 Gaussian 16, Revision A.03,
 Gaussian 16:  ES64L-G16RevA.03 25-Dec-2016

 ----------------------------------------------------------
 #p cam-b3lyp/Def2SVP td=(nstates=5) density=(transition=1)
 ----------------------------------------------------------

 --------------------------------
 TDDFT excited states in gaussian
 --------------------------------
 Symbolic Z-matrix:
 Charge =  0 Multiplicity = 1

                         Standard orientation:
 ---------------------------------------------------------------------
 Center     Atomic      Atomic             Coordinates (Angstroms)
 Number     Number       Type             X           Y           Z
 ---------------------------------------------------------------------
      1         12           0       16.373538   -0.489270    0.276063
      2          6           0       15.649299    2.552171   -1.241326
      3          6           0       18.414255    1.094648    2.438512
      4          6           0       17.652673   -3.476684    1.213241
      5          6           0       14.906500   -2.133052   -2.498739
      6          7           0       16.826777    1.573185    0.541136
      7          6           0       16.338400    2.717563   -0.050822
      8          6           0       16.990654    3.977963    0.581196
      9          6           0       18.215365    3.349977    1.315287
     10          6           0       17.747850    1.920711    1.547611
     11          6           0       19.552484    3.365934    0.494033
     12          6           0       15.894779    4.741624    1.347014
     13          6           0       15.940149    6.211704    1.170489
     14          1           0       14.694940    6.909388    1.484824
     15          7           0       17.654135   -1.076820    1.781075
     16          6           0       18.349107   -0.251924    2.606332
     17          6           0       18.855905   -1.031350    3.707752
     18          6           0       18.622630   -2.405772    3.340764
     19          6           0       18.016792   -2.364477    2.006625
     20          6           0       19.583262   -0.447576    4.865586
     21          6           0       19.045019   -3.743146    4.031811
     22          8           0       18.751328   -4.851527    3.579348
     23          6           0       19.716878   -3.747411    5.376488
     24          7           0       16.552994   -2.468537   -0.755325
     25          6           0       17.042233   -3.587829   -0.028124
     26          6           0       16.769949   -4.895115   -0.695707
     27          6           0       15.712407   -4.403159   -1.736631
     28          6           0       15.664851   -2.882244   -1.616264
     29          6           0       18.038006   -5.581080   -1.307857
     30          6           0       14.277864   -5.002652   -1.501602
     31          6           0       13.714932   -4.854857   -0.065064
     32          7           0       15.367038    0.045951   -1.459385
     33          6           0       14.780905   -0.730851   -2.470693
     34          6           0       14.203773    0.175309   -3.391571
     35          6           0       14.501838    1.449030   -2.923569
     36          6           0       15.207485    1.308378   -1.774307
     37          6           0       13.391695   -0.203376   -4.588977
     38          6           0       14.403111    2.795342   -3.244189
     39          8           0       13.873106    3.336414   -4.231702
     40          6           0       15.129721    3.661571   -2.171573
     41          6           0       13.990576    4.565299   -1.604837
     42          8           0       13.034808    4.172676   -0.912270
     43          8           0       14.234174    5.871565   -2.015096
     44          6           0       13.155617    6.891449   -1.817345
     45          1           0       19.112633    1.705781    3.014180
     46          1           0       17.851336   -4.527319    1.438142
     47          1           0       14.263643   -2.581794   -3.258960
     48          1           0       17.286364    4.681067   -0.196730
     49          1           0       18.328826    3.825094    2.289255
     50          1           0       19.520075    3.878789   -0.467657
     51          1           0       19.830327    2.355620    0.196480
     52          1           0       20.311274    3.891053    1.073832
     53          1           0       16.115052    4.585523    2.402124
     54          1           0       14.932406    4.324893    1.048671
     55          1           0       16.120978    6.373187    0.107664
     56          1           0       16.803488    6.597957    1.711940
     57          1           0       19.388418    0.620389    4.961631
     58          1           0       20.618481   -0.787708    4.822414
     59          1           0       19.183484   -0.868290    5.788299
     60          1           0       20.267674   -4.688006    5.399371
     61          1           0       18.979196   -3.772346    6.178880
     62          1           0       20.428510   -2.927913    5.481691
     63          1           0       16.291169   -5.631034   -0.048205
     64          1           0       16.056234   -4.670819   -2.736272
     65          1           0       18.810852   -4.826308   -1.455700
     66          1           0       17.910954   -6.079055   -2.269225
     67          1           0       18.497940   -6.361855   -0.701407
     68          1           0       14.329685   -6.036027   -1.844886
     69          1           0       13.668470   -4.490304   -2.245999
     70          1           0       12.779931   -4.295010   -0.035986
     71          1           0       14.487312   -4.357690    0.522414
     72          1           0       13.506708   -5.815237    0.405594
     73          1           0       13.884747    0.266976   -5.439676
     74          1           0       12.372926    0.146350   -4.422005
     75          1           0       13.373106   -1.267341   -4.825380
     76          1           0       15.858728    4.290975   -2.681275
     77          1           0       12.296614    6.534872   -2.385283
     78          1           0       13.360072    7.913875   -2.134911
     79          1           0       13.062239    6.773254   -0.737767
     80         12           0      -15.927252   -0.775848   -0.066775
     81          6           0      -17.887636    1.832808    1.023828
     82          6           0      -13.419854    1.552470   -0.808715
     83          6           0      -13.973099   -3.264130   -1.243263
     84          6           0      -18.526927   -2.921931    0.324722
     85          7           0      -15.812352    1.501243   -0.141660
     86          6           0      -16.681145    2.316919    0.593957
     87          6           0      -16.092797    3.721346    0.834046
     88          6           0      -14.699937    3.578857    0.116907
     89          6           0      -14.567234    2.124382   -0.280434
     90          6           0      -14.540111    4.519592   -1.070704
     91          6           0      -15.951893    4.261982    2.300988
     92          6           0      -16.888795    5.521025    2.718974
     93          1           0      -16.042962    6.720826    3.156629
     94          7           0      -14.052095   -0.851098   -0.987133
     95          6           0      -13.129251    0.203510   -1.077169
     96          6           0      -11.800756   -0.281228   -1.465901
     97          6           0      -11.924110   -1.756287   -1.697047
     98          6           0      -13.341913   -2.060166   -1.249907
     99          6           0      -10.602406    0.628123   -1.625901
    100          6           0      -10.963987   -2.742038   -2.171973
    101          8           0      -11.330910   -3.908207   -2.378594
    102          6           0       -9.521019   -2.401849   -2.501256
    103          7           0      -16.263312   -2.712823   -0.463356
    104          6           0      -15.264197   -3.632343   -0.832740
    105          6           0      -15.710811   -5.149942   -0.810887
    106          6           0      -17.235531   -4.957755   -0.314077
    107          6           0      -17.338605   -3.427677   -0.122536
    108          6           0      -15.587547   -5.903265   -2.226004
    109          6           0      -17.524947   -5.767452    0.996455
    110          6           0      -18.865928   -6.416711    1.138562
    111          7           0      -17.890347   -0.547974    0.464899
    112          6           0      -18.846184   -1.553266    0.637218
    113          6           0      -20.025989   -1.035312    1.241203
    114          6           0      -19.644264    0.331419    1.508270
    115          6           0      -18.382535    0.549214    0.940495
    116          6           0      -21.278702   -1.691497    1.646352
    117          6           0      -20.146326    1.583717    1.980474
    118          8           0      -21.189968    1.957716    2.526860
    119          6           0      -19.047490    2.652857    1.537217
    120          6           0      -19.659437    3.588905    0.557291
    121          8           0      -19.574616    3.582674   -0.607557
    122          8           0      -20.302130    4.629710    1.223557
    123          6           0      -20.420761    5.859998    0.468934
    124          1           0      -12.611957    2.272692   -0.953966
    125          1           0      -13.423737   -4.162131   -1.533299
    126          1           0      -19.312225   -3.631860    0.592465
    127          1           0      -16.684098    4.444723    0.273661
    128          1           0      -13.878573    3.883406    0.766124
    129          1           0      -14.476911    3.924732   -1.981492
    130          1           0      -13.582427    4.997257   -0.867430
    131          1           0      -15.280594    5.315259   -1.149774
    132          1           0      -14.909917    4.544926    2.452498
    133          1           0      -16.211813    3.495740    3.031475
    134          1           0      -17.401233    5.138246    3.601754
    135          1           0      -17.548340    5.794374    1.895637
    136          1           0      -10.761218    1.191655   -2.546143
    137          1           0       -9.716882    0.001857   -1.722732
    138          1           0      -10.530023    1.392091   -0.851512
    139          1           0       -9.163296   -3.224933   -3.120196
    140          1           0       -8.891259   -2.255688   -1.623057
    141          1           0       -9.346524   -1.575269   -3.189753
    142          1           0      -15.193101   -5.675028   -0.008821
    143          1           0      -17.994014   -5.326722   -1.004865
    144          1           0      -16.449191   -6.561352   -2.340132
    145          1           0      -14.767307   -6.611868   -2.334217
    146          1           0      -15.530279   -5.216847   -3.071018
    147          1           0      -17.335742   -5.208253    1.912605
    148          1           0      -16.884764   -6.643965    1.094553
    149          1           0      -19.348104   -5.871144    1.949555
    150          1           0      -18.952040   -7.426880    1.538879
    151          1           0      -19.429956   -6.303948    0.212102
    152          1           0      -21.063055   -2.738471    1.861296
    153          1           0      -21.905162   -1.633928    0.756303
    154          1           0      -21.759995   -1.080905    2.410548
    155          1           0      -18.712000    3.223831    2.402612
    156          1           0      -21.233845    5.659634   -0.227980
    157          1           0      -19.478370    5.964969   -0.068397
    158          1           0      -20.684545    6.700978    1.110878
 ---------------------------------------------------------------------

 SCF Done:  E(RCAM-B3LYP) =  -4069.80330568     A.U. after   19 cycles

 Excitation energies and oscillator strengths:

 Excited State   1:      Singlet-A      1.6605 eV  746.68 nm  f=0.4078  <S**2>=0.000
     310 -> 316        0.16085
     312 -> 314        0.68319
     310 <- 316        0.10323
 This state for optimization and/or second-order correction.
 Total Energy, E(TD-HF/TD-DFT) =  -4069.74228415
 Copying the excited state density for this state as the 1-particle RhoCI density.

 Excited State   2:      Singlet-A      1.6725 eV  741.32 nm  f=0.3813  <S**2>=0.000
     309 -> 315        0.15600
     311 -> 313        0.68275

 Excited State   3:      Singlet-A      2.1914 eV  565.77 nm  f=0.1232  <S**2>=0.000
     309 -> 313        0.64532
     311 -> 315       -0.25775

 Excited State   4:      Singlet-A      2.2190 eV  558.74 nm  f=0.1300  <S**2>=0.000
     310 -> 314        0.64338
     312 -> 316       -0.27225

 Excited State   5:      Singlet-A      2.9688 eV  417.62 nm  f=0.0000  <S**2>=0.000
     312 -> 313        0.70708

 The electronic state is 1-A.
 Alpha  occ. eigenvalues --  -46.88382 -46.87914 -19.24811 -19.22159 -19.20078
 Alpha  occ. eigenvalues --  -19.19574 -19.18839 -19.18793 -19.17939 -19.17716
 Alpha  occ. eigenvalues --  -14.42546 -14.42003 -14.41982 -14.41542 -14.40256
 Alpha  occ. eigenvalues --  -14.39407 -14.38569 -14.38566 -10.40096 -10.38096
 Alpha  occ. eigenvalues --  -10.35342 -10.35315 -10.34191 -10.33699 -10.32046
 Alpha  occ. eigenvalues --  -10.31816 -10.31273 -10.31035 -10.31018 -10.31016
 Alpha  occ. eigenvalues --  -10.30745 -10.30617 -10.30608 -10.30453 -10.30382
 Alpha  occ. eigenvalues --  -10.30301 -10.30285 -10.30265 -10.29518 -10.29369
 Alpha  occ. eigenvalues --  -10.29273 -10.29266 -10.29226 -10.28542 -10.28388
 Alpha  occ. eigenvalues --  -10.28366 -10.28306 -10.28276 -10.28241 -10.28239
 Alpha  occ. eigenvalues --  -10.27970 -10.27945 -10.27838 -10.27737 -10.27733
 Alpha  occ. eigenvalues --  -10.27698 -10.27612 -10.27596 -10.27515 -10.27456
 Alpha  occ. eigenvalues --  -10.27296 -10.27233 -10.27149 -10.27073 -10.27070
 Alpha  occ. eigenvalues --  -10.26791 -10.26590 -10.26524 -10.26477 -10.26470
 Alpha  occ. eigenvalues --  -10.26457 -10.26438 -10.26434 -10.26176 -10.25999
 Alpha  occ. eigenvalues --  -10.25998 -10.25970 -10.25886 -10.25863 -10.25811
 Alpha  occ. eigenvalues --  -10.25809 -10.25804 -10.25633 -10.25315 -10.24474
 Alpha  occ. eigenvalues --  -10.23844  -3.16978  -3.16675  -1.91858  -1.91544
 Alpha  occ. eigenvalues --   -1.91437  -1.91280  -1.91140  -1.90993  -1.16766
 Alpha  occ. eigenvalues --   -1.14484  -1.09544  -1.09532  -1.08105  -1.08009
 Alpha  occ. eigenvalues --   -1.07707  -1.06716  -1.04870  -1.04620  -1.03962
 Alpha  occ. eigenvalues --   -1.03578  -1.03421  -1.02288  -1.02052  -1.00612
 Alpha  occ. eigenvalues --   -0.92594  -0.92577  -0.89175  -0.89153  -0.89112
 Alpha  occ. eigenvalues --   -0.88646  -0.88607  -0.88488  -0.87859  -0.87337
 Alpha  occ. eigenvalues --   -0.87189  -0.87189  -0.86661  -0.86596  -0.84660
 Alpha  occ. eigenvalues --   -0.84212  -0.83568  -0.83453  -0.82394  -0.82228
 Alpha  occ. eigenvalues --   -0.81875  -0.81682  -0.81053  -0.80855  -0.80454
 Alpha  occ. eigenvalues --   -0.80213  -0.78762  -0.78267  -0.77393  -0.77134
 Alpha  occ. eigenvalues --   -0.76996  -0.76682  -0.76096  -0.75529  -0.75249
 Alpha  occ. eigenvalues --   -0.75223  -0.73311  -0.73055  -0.72109  -0.71677
 Alpha  occ. eigenvalues --   -0.69853  -0.69315  -0.68828  -0.68682  -0.67935
 Alpha  occ. eigenvalues --   -0.67597  -0.67539  -0.66593  -0.65661  -0.65399
 Alpha  occ. eigenvalues --   -0.65292  -0.64984  -0.64721  -0.64515  -0.64128
 Alpha  occ. eigenvalues --   -0.63875  -0.61629  -0.60848  -0.60174  -0.59946
 Alpha  occ. eigenvalues --   -0.59845  -0.59390  -0.59201  -0.58988  -0.58496
 Alpha  occ. eigenvalues --   -0.58449  -0.58284  -0.57684  -0.57627  -0.57065
 Alpha  occ. eigenvalues --   -0.56492  -0.56041  -0.55680  -0.55564  -0.55389
 Alpha  occ. eigenvalues --   -0.55273  -0.55144  -0.54829  -0.53917  -0.53617
 Alpha  occ. eigenvalues --   -0.53609  -0.53250  -0.53106  -0.52994  -0.52984
 Alpha  occ. eigenvalues --   -0.52870  -0.52661  -0.52525  -0.52262  -0.52141
 Alpha  occ. eigenvalues --   -0.51993  -0.51734  -0.51593  -0.51520  -0.51354
 Alpha  occ. eigenvalues --   -0.51178  -0.50744  -0.50551  -0.50544  -0.50408
 Alpha  occ. eigenvalues --   -0.50109  -0.49993  -0.49778  -0.49700  -0.49609
 Alpha  occ. eigenvalues --   -0.49446  -0.49255  -0.48973  -0.48952  -0.48821
 Alpha  occ. eigenvalues --   -0.48579  -0.48575  -0.48525  -0.48145  -0.48066
 Alpha  occ. eigenvalues --   -0.48035  -0.48008  -0.47745  -0.47424  -0.47268
 Alpha  occ. eigenvalues --   -0.47094  -0.46937  -0.46821  -0.46673  -0.46477
 Alpha  occ. eigenvalues --   -0.46358  -0.46131  -0.46052  -0.45982  -0.45762
 Alpha  occ. eigenvalues --   -0.45528  -0.45389  -0.45264  -0.44964  -0.44670
 Alpha  occ. eigenvalues --   -0.44624  -0.44550  -0.44242  -0.44147  -0.43812
 Alpha  occ. eigenvalues --   -0.43649  -0.43525  -0.43503  -0.43502  -0.43321
 Alpha  occ. eigenvalues --   -0.43251  -0.43116  -0.43045  -0.42897  -0.42755
 Alpha  occ. eigenvalues --   -0.42493  -0.42427  -0.42023  -0.41969  -0.41800
 Alpha  occ. eigenvalues --   -0.41651  -0.41640  -0.41407  -0.41166  -0.41126
 Alpha  occ. eigenvalues --   -0.41012  -0.40906  -0.40713  -0.40625  -0.40357
 Alpha  occ. eigenvalues --   -0.40123  -0.40017  -0.39878  -0.39222  -0.39052
 Alpha  occ. eigenvalues --   -0.38697  -0.38265  -0.38095  -0.37808  -0.37672
 Alpha  occ. eigenvalues --   -0.37426  -0.37060  -0.36891  -0.36659  -0.36143
 Alpha  occ. eigenvalues --   -0.36109  -0.34909  -0.34444  -0.34252  -0.34150
 Alpha  occ. eigenvalues --   -0.34073  -0.33287  -0.33171  -0.31529  -0.31419
 Alpha  occ. eigenvalues --   -0.31376  -0.30882  -0.30119  -0.30016  -0.29784
 Alpha  occ. eigenvalues --   -0.29764  -0.29461  -0.29261  -0.24365  -0.24302
 Alpha  occ. eigenvalues --   -0.21451  -0.21252
 Alpha virt. eigenvalues --   -0.09270  -0.09065  -0.02159  -0.01572  -0.00222
 Alpha virt. eigenvalues --    0.00472   0.01954   0.02130   0.02362   0.02429
 Alpha virt. eigenvalues --    0.04897   0.05007   0.05132   0.05365   0.06269

 Mulliken charges:
               1
     1  Mg  12.002497
     2  C    5.968325
     3  C    6.009947
     4  C    6.037983
     5  C    6.011348
     6  N    6.977692
     7  C    6.036474
     8  C    5.997441
     9  C    6.006707
    10  C    5.975550
    11  C    6.004094
    12  C    5.992974
    13  C    6.000355
    14  H    0.998959
    15  N    7.010729
    16  C    5.957458
    17  C    5.979975
    18  C    5.986499
    19  C    5.954730
    20  C    6.005398
    21  C    5.987213
    22  O    7.970555
    23  C    6.005808
    24  N    7.017909
    25  C    5.953464
    26  C    6.016910
    27  C    5.992532
    28  C    6.017609
    29  C    5.999936
    30  C    5.991399
    31  C    5.993279
    32  N    6.995152
    33  C    6.034646
    34  C    6.030954
    35  C    6.001520
    36  C    6.033113
    37  C    5.994882
    38  C    6.013297
    39  O    8.031066
    40  C    6.005347
    41  C    6.002739
    42  O    8.003258
    43  O    8.001554
    44  C    5.999095
    45  H    0.985026
    46  H    0.996254
    47  H    1.017736
    48  H    0.998924
    49  H    0.998377
    50  H    0.982758
    51  H    1.000548
    52  H    0.996384
    53  H    1.013392
    54  H    0.993974
    55  H    0.996178
    56  H    1.006074
    57  H    0.983396
    58  H    0.979145
    59  H    0.980227
    60  H    0.985894
    61  H    0.988743
    62  H    0.996127
    63  H    0.998229
    64  H    1.003114
    65  H    1.000175
    66  H    0.989309
    67  H    1.003139
    68  H    1.010603
    69  H    0.992935
    70  H    0.996901
    71  H    1.015113
    72  H    1.007314
    73  H    1.019774
    74  H    1.021189
    75  H    1.018478
    76  H    1.008127
    77  H    0.998916
    78  H    1.004615
    79  H    1.004539
    80  Mg  12.000475
    81  C    5.998249
    82  C    6.002208
    83  C    6.002784
    84  C    5.998636
    85  N    6.999370
    86  C    6.003489
    87  C    5.998292
    88  C    6.001255
    89  C    5.996431
    90  C    6.000223
    91  C    5.999795
    92  C    5.999521
    93  H    1.001187
    94  N    7.000715
    95  C    5.994608
    96  C    5.996303
    97  C    5.998140
    98  C    5.995285
    99  C    6.000465
   100  C    5.998612
   101  O    7.996168
   102  C    6.000998
   103  N    7.000264
   104  C    5.995010
   105  C    6.002055
   106  C    5.998240
   107  C    6.004109
   108  C    6.000389
   109  C    5.999156
   110  C    6.000051
   111  N    6.999709
   112  C    6.005461
   113  C    6.003631
   114  C    6.000864
   115  C    6.003741
   116  C    5.999791
   117  C    6.002099
   118  O    8.004545
   119  C    5.999950
   120  C    6.000119
   121  O    8.001038
   122  O    7.999963
   123  C    5.999651
   124  H    0.998800
   125  H    0.999120
   126  H    1.001407
   127  H    1.000415
   128  H    0.999926
   129  H    1.000311
   130  H    0.999860
   131  H    0.998260
   132  H    1.001273
   133  H    0.999676
   134  H    0.999669
   135  H    0.999728
   136  H    0.997143
   137  H    0.997784
   138  H    0.997272
   139  H    0.997977
   140  H    0.998564
   141  H    0.998776
   142  H    0.999507
   143  H    1.000451
   144  H    0.998508
   145  H    1.000096
   146  H    1.000089
   147  H    1.000097
   148  H    1.001611
   149  H    0.999329
   150  H    1.000774
   151  H    1.000011
   152  H    1.002587
   153  H    1.002620
   154  H    1.001952
   155  H    1.001549
   156  H    1.000328
   157  H    1.000782
   158  H    1.000705
 Sum of Mulliken charges = 624.00000

 Dipole moment (field-independent basis, Debye):
    X=             -7.6853    Y=              2.3791    Z=             -8.0498  Tot=             11.3808
 Quadrupole moment (field-independent basis, Debye-Ang):
   XX=           -163.8746   YY=             -0.4269   ZZ=             -2.7330
   XY=             38.1388   XZ=           -151.0648   YZ=              5.2637

 Normal termination of Gaussian 16 at Wed Sep 22 12:35:15 2021.
