 Gaussian 16, Revision A.03,
 Gaussian 16:  ES64L-G16RevA.03 25-Dec-2016

 -----------------------------------
 #p cam-b3lyp/Def2SVP td=(nstates=5)
 -----------------------------------

 --------------------------------
 TDDFT excited states in gaussian
 --------------------------------
 Symbolic Z-matrix:
 Charge =  0 Multiplicity = 1

                         Standard orientation:
 ---------------------------------------------------------------------
 Center     Atomic      Atomic             Coordinates (Angstroms)
 Number     Number       Type             X           Y           Z
 ---------------------------------------------------------------------
      1         12           0      -32.866030    0.193458   -0.363375
      2          6           0      -29.407313    0.174749   -0.037705
      3          6           0      -32.699065   -3.348943    0.121464
      4          6           0      -36.145625    0.108895   -0.157485
      5          6           0      -32.797415    3.697918   -0.095463
      6          7           0      -31.244534   -1.357211    0.117754
      7          6           0      -29.894462   -1.087533    0.098898
      8          6           0      -29.098199   -2.365034    0.378583
      9          6           0      -30.170341   -3.463893    0.139309
     10          6           0      -31.470992   -2.704959    0.164454
     11          6           0      -30.077145   -4.335164   -1.174454
     12          6           0      -28.489910   -2.399922    1.790241
     13          6           0      -27.569409   -3.527223    2.064139
     14          1           0      -26.537359   -3.342096    3.241295
     15          7           0      -34.270463   -1.406343   -0.045121
     16          6           0      -34.005201   -2.776807    0.101727
     17          6           0      -35.260805   -3.460328    0.240870
     18          6           0      -36.284939   -2.444564    0.299920
     19          6           0      -35.570007   -1.156648   -0.002607
     20          6           0      -35.367678   -4.994136    0.464270
     21          6           0      -37.762630   -2.771941    0.537084
     22          8           0      -38.176159   -3.919537    0.542410
     23          6           0      -38.717475   -1.661477    0.757601
     24          7           0      -34.262027    1.716224   -0.378721
     25          6           0      -35.561726    1.405185   -0.328611
     26          6           0      -36.420959    2.725109   -0.176050
     27          6           0      -35.382732    3.909476   -0.095055
     28          6           0      -34.007323    3.044601   -0.141753
     29          6           0      -37.572135    2.952872   -1.190727
     30          6           0      -35.538481    4.666199    1.241400
     31          6           0      -35.159717    6.151604    1.198903
     32          7           0      -31.438449    1.713691   -0.117521
     33          6           0      -31.531654    3.076859   -0.152345
     34          6           0      -30.174054    3.633990   -0.184030
     35          6           0      -29.345876    2.544947   -0.233894
     36          6           0      -30.117365    1.410170   -0.125583
     37          6           0      -29.810141    5.117998   -0.296459
     38          6           0      -27.971504    2.143833   -0.262877
     39          8           0      -26.945693    2.774586   -0.335282
     40          6           0      -27.955091    0.582642   -0.151266
     41          6           0      -27.381767    0.048635   -1.417198
     42          8           0      -27.697360    0.341139   -2.537151
     43          8           0      -26.482829   -0.984139   -1.099054
     44          6           0      -25.897630   -1.664420   -2.219189
     45          1           0      -32.538710   -4.427124    0.179251
     46          1           0      -37.229977    0.236746   -0.122730
     47          1           0      -32.737111    4.788288   -0.082737
     48          1           0      -28.362464   -2.436127   -0.421359
     49          1           0      -30.291020   -4.193628    0.939185
     50          1           0      -30.129575   -5.361460   -0.811665
     51          1           0      -29.368513   -4.024718   -1.942754
     52          1           0      -31.021801   -4.195947   -1.699933
     53          1           0      -29.200778   -2.531320    2.606476
     54          1           0      -27.976928   -1.460066    1.994548
     55          1           0      -27.032180   -3.722506    1.136049
     56          1           0      -28.158729   -4.425566    2.247116
     57          1           0      -35.607858   -4.956244    1.527282
     58          1           0      -34.429611   -5.548601    0.430917
     59          1           0      -36.074603   -5.632073   -0.066518
     60          1           0      -38.245273   -1.043201    1.521044
     61          1           0      -39.631209   -2.074367    1.185355
     62          1           0      -38.788118   -1.191548   -0.223665
     63          1           0      -36.930554    2.627482    0.782950
     64          1           0      -35.402546    4.602375   -0.935644
     65          1           0      -38.515706    2.775604   -0.673656
     66          1           0      -37.393661    2.325390   -2.063318
     67          1           0      -37.616771    4.006765   -1.465275
     68          1           0      -34.904365    4.123932    1.942326
     69          1           0      -36.525904    4.571757    1.693702
     70          1           0      -36.073287    6.643810    1.534165
     71          1           0      -34.794379    6.499651    0.232648
     72          1           0      -34.396370    6.368315    1.946290
     73          1           0      -29.012113    5.471725    0.355487
     74          1           0      -30.766246    5.597100   -0.084360
     75          1           0      -29.687128    5.314994   -1.361545
     76          1           0      -27.322035    0.345103    0.703755
     77          1           0      -24.849644   -1.365722   -2.245459
     78          1           0      -26.325345   -1.527281   -3.212633
     79          1           0      -25.982843   -2.733692   -2.027454
     80         12           0       32.398722    0.659637   -0.684053
     81          6           0       30.264131   -2.037994    0.190455
     82          6           0       30.141563    2.772777    0.930568
     83          6           0       34.871901    2.820666   -0.461597
     84          6           0       34.686078   -1.878611   -1.999068
     85          7           0       30.496417    0.319392    0.676565
     86          6           0       29.730492   -0.798551    0.624833
     87          6           0       28.359243   -0.495157    1.201448
     88          6           0       28.142238    0.984425    0.883692
     89          6           0       29.695619    1.420290    0.878188
     90          6           0       27.500076    1.357814   -0.453674
     91          6           0       28.318906   -0.920367    2.733899
     92          6           0       27.082672   -1.651964    3.082353
     93          1           0       26.405977   -1.311087    4.424312
     94          7           0       32.550684    2.577948    0.175818
     95          6           0       31.467129    3.306850    0.725914
     96          6           0       31.987097    4.604277    1.077320
     97          6           0       33.327396    4.727501    0.624281
     98          6           0       33.678723    3.359568    0.100642
     99          6           0       31.104082    5.632617    1.777130
    100          6           0       34.202245    5.906366    0.793017
    101          8           0       33.756419    6.895400    1.361506
    102          6           0       35.644765    6.017665    0.422481
    103          7           0       34.581476    0.409987   -1.104920
    104          6           0       35.266712    1.570647   -1.095764
    105          6           0       36.663575    1.382448   -1.714794
    106          6           0       36.583635   -0.108497   -2.371201
    107          6           0       35.197654   -0.569339   -1.850428
    108          6           0       37.126271    2.565516   -2.679073
    109          6           0       37.765511   -1.064123   -2.016185
    110          6           0       37.542531   -2.103395   -0.865078
    111          7           0       32.497426   -1.426000   -0.884612
    112          6           0       33.457763   -2.281203   -1.496365
    113          6           0       32.855042   -3.679867   -1.615700
    114          6           0       31.659994   -3.572299   -0.922505
    115          6           0       31.489961   -2.197959   -0.524490
    116          6           0       33.369819   -4.986073   -2.250568
    117          6           0       30.489501   -4.287951   -0.524526
    118          8           0       30.142232   -5.445778   -0.763131
    119          6           0       29.701584   -3.336664    0.303413
    120          6           0       29.879812   -3.892776    1.734695
    121          8           0       30.855604   -3.757319    2.469849
    122          8           0       28.724026   -4.667673    2.030279
    123          6           0       28.695070   -5.385814    3.239318
    124          1           0       29.435671    3.500744    1.336150
    125          1           0       35.569074    3.659998   -0.500296
    126          1           0       35.230447   -2.678309   -2.504263
    127          1           0       27.549239   -1.002580    0.677718
    128          1           0       27.565675    1.615768    1.558797
    129          1           0       26.952713    0.540478   -0.922316
    130          1           0       28.191822    1.908226   -1.091824
    131          1           0       26.736547    2.073994   -0.147797
    132          1           0       28.335493   -0.017605    3.344607
    133          1           0       29.224225   -1.415645    3.085057
    134          1           0       27.424026   -2.685845    3.045108
    135          1           0       26.347298   -1.471156    2.298510
    136          1           0       30.775755    6.432237    1.113405
    137          1           0       31.626844    5.997177    2.660181
    138          1           0       30.193487    5.160159    2.145792
    139          1           0       35.718087    6.002097   -0.665216
    140          1           0       36.302457    5.250613    0.833180
    141          1           0       36.029209    7.020441    0.604882
    142          1           0       37.309432    1.320258   -0.839209
    143          1           0       36.460952   -0.004924   -3.448783
    144          1           0       36.607015    3.493209   -2.438929
    145          1           0       37.138173    2.397700   -3.756665
    146          1           0       38.207162    2.576721   -2.530405
    147          1           0       38.684980   -0.522939   -1.794516
    148          1           0       37.886111   -1.627068   -2.941422
    149          1           0       38.578866   -2.110815   -0.526544
    150          1           0       37.243961   -3.115942   -1.137445
    151          1           0       36.889683   -1.639206   -0.125592
    152          1           0       32.681559   -5.347357   -3.013887
    153          1           0       33.197416   -5.622959   -1.383478
    154          1           0       34.426111   -4.845735   -2.478994
    155          1           0       28.648929   -3.401005    0.027720
    156          1           0       27.787642   -5.969179    3.400277
    157          1           0       28.772506   -4.661205    4.048920
    158          1           0       29.558072   -6.050451    3.190430
 ---------------------------------------------------------------------

 SCF Done:  E(RCAM-B3LYP) =  -4069.76707154     A.U. after   18 cycles

 Excitation energies and oscillator strengths:

 Excited State   1:      Singlet-A      1.6842 eV  736.14 nm  f=0.3543  <S**2>=0.000
     310 -> 315        0.19726
     312 -> 314        0.68021
     310 <- 315        0.11213
 This state for optimization and/or second-order correction.
 Total Energy, E(TD-HF/TD-DFT) =  -4069.70517675
 Copying the excited state density for this state as the 1-particle RhoCI density.

 Excited State   2:      Singlet-A      1.7655 eV  702.25 nm  f=0.3963  <S**2>=0.000
     309 -> 316       -0.17238
     311 -> 313        0.68748
     309 <- 316       -0.10344

 Excited State   3:      Singlet-A      2.1915 eV  565.74 nm  f=0.0564  <S**2>=0.000
     310 -> 314        0.61453
     312 -> 315       -0.33942

 Excited State   4:      Singlet-A      2.2943 eV  540.41 nm  f=0.1178  <S**2>=0.000
     309 -> 313        0.63734
     311 -> 316        0.29069

 Excited State   5:      Singlet-A      3.1231 eV  397.00 nm  f=0.0000  <S**2>=0.000
     312 -> 313        0.70711

 The electronic state is 1-A.
 Alpha  occ. eigenvalues --  -46.91308 -46.89669 -19.24953 -19.24717 -19.21410
 Alpha  occ. eigenvalues --  -19.20505 -19.18919 -19.18699 -19.18535 -19.17580
 Alpha  occ. eigenvalues --  -14.42665 -14.42414 -14.42353 -14.41949 -14.40250
 Alpha  occ. eigenvalues --  -14.40234 -14.39768 -14.39103 -10.40600 -10.39514
 Alpha  occ. eigenvalues --  -10.34867 -10.34568 -10.34162 -10.34132 -10.32368
 Alpha  occ. eigenvalues --  -10.31837 -10.31601 -10.31434 -10.31410 -10.31313
 Alpha  occ. eigenvalues --  -10.31233 -10.31185 -10.31127 -10.31084 -10.31060
 Alpha  occ. eigenvalues --  -10.30981 -10.30838 -10.30570 -10.30087 -10.29550
 Alpha  occ. eigenvalues --  -10.29474 -10.29399 -10.29241 -10.28787 -10.28596
 Alpha  occ. eigenvalues --  -10.28527 -10.28419 -10.28379 -10.28356 -10.28257
 Alpha  occ. eigenvalues --  -10.28238 -10.28208 -10.28194 -10.28177 -10.28153
 Alpha  occ. eigenvalues --  -10.27915 -10.27911 -10.27795 -10.27754 -10.27751
 Alpha  occ. eigenvalues --  -10.27671 -10.27613 -10.27562 -10.27532 -10.27420
 Alpha  occ. eigenvalues --  -10.27361 -10.27170 -10.27113 -10.27101 -10.26929
 Alpha  occ. eigenvalues --  -10.26807 -10.26787 -10.26543 -10.26506 -10.26413
 Alpha  occ. eigenvalues --  -10.26368 -10.26248 -10.26241 -10.26083 -10.26067
 Alpha  occ. eigenvalues --  -10.25776 -10.25675 -10.25633 -10.25278 -10.24984
 Alpha  occ. eigenvalues --  -10.23992  -3.19507  -3.18090  -1.94349  -1.94015
 Alpha  occ. eigenvalues --   -1.93763  -1.92996  -1.92548  -1.92377  -1.16627
 Alpha  occ. eigenvalues --   -1.15827  -1.10346  -1.10125  -1.09607  -1.09364
 Alpha  occ. eigenvalues --   -1.08838  -1.08658  -1.04602  -1.04208  -1.03798
 Alpha  occ. eigenvalues --   -1.03730  -1.03456  -1.02843  -1.02832  -1.01282
 Alpha  occ. eigenvalues --   -0.94386  -0.93274  -0.89424  -0.89242  -0.89177
 Alpha  occ. eigenvalues --   -0.88846  -0.88728  -0.88101  -0.87807  -0.87273
 Alpha  occ. eigenvalues --   -0.86855  -0.86467  -0.85956  -0.85578  -0.85222
 Alpha  occ. eigenvalues --   -0.84785  -0.84056  -0.83668  -0.83172  -0.82709
 Alpha  occ. eigenvalues --   -0.82595  -0.81648  -0.81309  -0.80862  -0.80861
 Alpha  occ. eigenvalues --   -0.80279  -0.78042  -0.77769  -0.77360  -0.77277
 Alpha  occ. eigenvalues --   -0.77121  -0.76883  -0.76214  -0.76009  -0.75535
 Alpha  occ. eigenvalues --   -0.75212  -0.73255  -0.72753  -0.72055  -0.71846
 Alpha  occ. eigenvalues --   -0.69923  -0.69345  -0.69080  -0.68719  -0.67797
 Alpha  occ. eigenvalues --   -0.67323  -0.66873  -0.66774  -0.66106  -0.65589
 Alpha  occ. eigenvalues --   -0.65348  -0.64989  -0.64975  -0.64717  -0.64624
 Alpha  occ. eigenvalues --   -0.64549  -0.62706  -0.62218  -0.60248  -0.59936
 Alpha  occ. eigenvalues --   -0.59907  -0.59773  -0.59322  -0.59277  -0.58906
 Alpha  occ. eigenvalues --   -0.58864  -0.58467  -0.58266  -0.57582  -0.57041
 Alpha  occ. eigenvalues --   -0.56514  -0.56205  -0.55964  -0.55912  -0.55645
 Alpha  occ. eigenvalues --   -0.55486  -0.54954  -0.54938  -0.54563  -0.54397
 Alpha  occ. eigenvalues --   -0.54035  -0.53682  -0.53582  -0.53397  -0.53328
 Alpha  occ. eigenvalues --   -0.53158  -0.53039  -0.52655  -0.52646  -0.52185
 Alpha  occ. eigenvalues --   -0.51967  -0.51915  -0.51732  -0.51674  -0.51666
 Alpha  occ. eigenvalues --   -0.51396  -0.51310  -0.50850  -0.50746  -0.50557
 Alpha  occ. eigenvalues --   -0.50375  -0.50296  -0.50188  -0.49972  -0.49886
 Alpha  occ. eigenvalues --   -0.49408  -0.49326  -0.49232  -0.49056  -0.48954
 Alpha  occ. eigenvalues --   -0.48868  -0.48482  -0.48307  -0.48270  -0.48111
 Alpha  occ. eigenvalues --   -0.47762  -0.47549  -0.47474  -0.47388  -0.47172
 Alpha  occ. eigenvalues --   -0.47164  -0.47104  -0.46853  -0.46475  -0.46412
 Alpha  occ. eigenvalues --   -0.46157  -0.46098  -0.45950  -0.45906  -0.45873
 Alpha  occ. eigenvalues --   -0.45817  -0.45440  -0.45336  -0.45305  -0.45149
 Alpha  occ. eigenvalues --   -0.45141  -0.44683  -0.44574  -0.44453  -0.44176
 Alpha  occ. eigenvalues --   -0.44142  -0.43923  -0.43797  -0.43702  -0.43480
 Alpha  occ. eigenvalues --   -0.43328  -0.43310  -0.43245  -0.43007  -0.42966
 Alpha  occ. eigenvalues --   -0.42724  -0.42391  -0.42335  -0.42304  -0.42045
 Alpha  occ. eigenvalues --   -0.42042  -0.41871  -0.41604  -0.41549  -0.41303
 Alpha  occ. eigenvalues --   -0.41015  -0.40980  -0.40618  -0.40431  -0.40273
 Alpha  occ. eigenvalues --   -0.40088  -0.39928  -0.39723  -0.39176  -0.38827
 Alpha  occ. eigenvalues --   -0.38563  -0.38272  -0.38055  -0.37928  -0.37684
 Alpha  occ. eigenvalues --   -0.37640  -0.36916  -0.36529  -0.36520  -0.36330
 Alpha  occ. eigenvalues --   -0.36099  -0.35775  -0.35257  -0.35221  -0.34255
 Alpha  occ. eigenvalues --   -0.34221  -0.33732  -0.33351  -0.31773  -0.31469
 Alpha  occ. eigenvalues --   -0.31044  -0.30814  -0.30664  -0.30571  -0.30220
 Alpha  occ. eigenvalues --   -0.30132  -0.29956  -0.29483  -0.24677  -0.24054
 Alpha  occ. eigenvalues --   -0.21671  -0.21042
 Alpha virt. eigenvalues --   -0.09040  -0.08535  -0.02620  -0.01948  -0.00609
 Alpha virt. eigenvalues --    0.00129   0.00910   0.02023   0.02165   0.02720
 Alpha virt. eigenvalues --    0.04406   0.04702   0.05162   0.05391   0.05815

 Mulliken charges:
               1
     1  Mg   0.819424
     2  C    0.006829
     3  C   -0.063006
     4  C   -0.089720
     5  C   -0.063110
     6  N   -0.264010
     7  C   -0.106189
     8  C    0.076799
     9  C   -0.101760
    10  C    0.006161
    11  C    0.083472
    12  C    0.079420
    13  C   -0.054117
    14  H    0.025146
    15  N   -0.352372
    16  C    0.164006
    17  C   -0.119924
    18  C   -0.079723
    19  C    0.210336
    20  C    0.108909
    21  C   -0.024734
    22  O   -0.198833
    23  C    0.067348
    24  N   -0.318220
    25  C    0.038788
    26  C   -0.072154
    27  C   -0.046005
    28  C    0.073402
    29  C    0.071527
    30  C    0.009606
    31  C    0.015620
    32  N   -0.337710
    33  C    0.071513
    34  C   -0.219933
    35  C    0.070814
    36  C    0.099100
    37  C    0.148646
    38  C    0.009766
    39  O   -0.147650
    40  C   -0.000606
    41  C    0.189460
    42  O   -0.181736
    43  O   -0.348340
    44  C    0.164120
    45  H   -0.031015
    46  H   -0.042635
    47  H   -0.031351
    48  H   -0.002957
    49  H    0.005805
    50  H    0.021133
    51  H    0.026170
    52  H    0.008149
    53  H    0.004407
    54  H    0.011774
    55  H    0.014312
    56  H    0.017995
    57  H    0.035811
    58  H   -0.003335
    59  H    0.050476
    60  H    0.031110
    61  H    0.030874
    62  H    0.058546
    63  H    0.015110
    64  H    0.017521
    65  H    0.014327
    66  H    0.028266
    67  H    0.012879
    68  H    0.008928
    69  H    0.006507
    70  H    0.015384
    71  H    0.022922
    72  H    0.016389
    73  H    0.047916
    74  H   -0.016025
    75  H    0.035043
    76  H    0.042148
    77  H    0.038401
    78  H    0.044909
    79  H    0.023741
    80  Mg   0.808516
    81  C    0.026509
    82  C   -0.060741
    83  C   -0.021889
    84  C   -0.054821
    85  N   -0.238518
    86  C   -0.066705
    87  C   -0.007312
    88  C   -0.085879
    89  C    0.025274
    90  C    0.085411
    91  C    0.072660
    92  C   -0.063562
    93  H    0.018174
    94  N   -0.411438
    95  C    0.127349
    96  C   -0.147928
    97  C    0.024186
    98  C    0.084047
    99  C    0.141734
   100  C   -0.053927
   101  O   -0.216888
   102  C    0.078840
   103  N   -0.260302
   104  C    0.038683
   105  C   -0.046169
   106  C    0.025420
   107  C   -0.014251
   108  C    0.052466
   109  C    0.002700
   110  C    0.007458
   111  N   -0.333219
   112  C    0.096734
   113  C   -0.206556
   114  C    0.019536
   115  C    0.125912
   116  C    0.134637
   117  C    0.005915
   118  O   -0.180148
   119  C    0.016443
   120  C    0.215295
   121  O   -0.202555
   122  O   -0.345882
   123  C    0.186835
   124  H   -0.020640
   125  H   -0.066446
   126  H   -0.026122
   127  H   -0.009638
   128  H    0.002560
   129  H    0.020040
   130  H    0.025895
   131  H    0.005837
   132  H    0.007755
   133  H    0.031956
   134  H    0.024944
   135  H    0.024304
   136  H    0.034551
   137  H    0.037886
   138  H   -0.012197
   139  H    0.019232
   140  H    0.050491
   141  H    0.019666
   142  H    0.023821
   143  H    0.010336
   144  H    0.032477
   145  H    0.011779
   146  H    0.010041
   147  H    0.015628
   148  H    0.005369
   149  H    0.012265
   150  H    0.025461
   151  H    0.040072
   152  H    0.049514
   153  H    0.045726
   154  H    0.017027
   155  H    0.029899
   156  H    0.038715
   157  H    0.024811
   158  H    0.034939
 Sum of Mulliken charges =  -0.00000

 Dipole moment (field-independent basis, Debye):
    X=             -1.8915    Y=             -0.2875    Z=             -3.5035  Tot=              3.9919
 Quadrupole moment (field-independent basis, Debye-Ang):
   XX=           -265.0047   YY=           -545.1205   ZZ=           -510.8287
   XY=            -40.6824   XZ=           -151.9534   YZ=             -6.6923

 Normal termination of Gaussian 16 at Thu Sep 16 11:50:59 2021.
