 Gaussian 16, Revision A.03,
 Gaussian 16:  ES64L-G16RevA.03 25-Dec-2016

 -----------------------------------
 #p cam-b3lyp/Def2SVP td=(nstates=5)
 -----------------------------------

 --------------------------------
 TDDFT excited states in gaussian
 --------------------------------
 Symbolic Z-matrix:
 Charge =  0 Multiplicity = 1

                         Standard orientation:
 ---------------------------------------------------------------------
 Center     Atomic      Atomic             Coordinates (Angstroms)
 Number     Number       Type             X           Y           Z
 ---------------------------------------------------------------------
      1         12           0      -29.832728   -0.537583   -0.417758
      2          6           0      -26.716056    0.782525   -1.522659
      3          6           0      -28.224807   -3.362786    0.661855
      4          6           0      -32.617766   -1.309137    1.555900
      5          6           0      -31.295415    2.602403   -1.008945
      6          7           0      -27.559249   -1.040169   -0.242899
      7          6           0      -26.549623   -0.500397   -0.945073
      8          6           0      -25.437123   -1.522310   -1.092045
      9          6           0      -25.880672   -2.859328   -0.324855
     10          6           0      -27.408776   -2.410099   -0.076536
     11          6           0      -25.731632   -4.058472   -1.287984
     12          6           0      -24.121923   -0.970481   -0.565909
     13          6           0      -24.192370   -0.088328    0.703198
     14          1           0      -23.670303   -0.717268    2.023866
     15          7           0      -30.403273   -2.191734    0.883055
     16          6           0      -29.540724   -3.226132    1.174122
     17          6           0      -30.315400   -4.184510    1.898250
     18          6           0      -31.587446   -3.610391    2.280250
     19          6           0      -31.631743   -2.324148    1.539713
     20          6           0      -29.736280   -5.486080    2.402475
     21          6           0      -32.579115   -4.132058    3.321331
     22          8           0      -32.317056   -5.129907    3.964863
     23          6           0      -33.829033   -3.494928    3.609694
     24          7           0      -31.649155    0.526986    0.278119
     25          6           0      -32.647596   -0.058360    0.922857
     26          6           0      -33.822389    0.869783    1.185413
     27          6           0      -33.202273    2.236198    0.661987
     28          6           0      -32.021174    1.790833   -0.122454
     29          6           0      -35.168452    0.448324    0.416809
     30          6           0      -32.904852    3.220259    1.885251
     31          6           0      -33.701748    4.481885    2.060676
     32          7           0      -29.274097    1.176213   -1.306716
     33          6           0      -30.019880    2.337805   -1.593078
     34          6           0      -29.224788    3.279847   -2.402661
     35          6           0      -27.971551    2.667806   -2.389984
     36          6           0      -27.966374    1.452121   -1.620652
     37          6           0      -29.681157    4.563741   -3.178099
     38          6           0      -26.597511    2.862124   -2.863939
     39          8           0      -26.051746    3.743296   -3.548470
     40          6           0      -25.732949    1.663711   -2.350571
     41          6           0      -24.774971    2.400886   -1.479779
     42          8           0      -25.078064    3.096248   -0.544364
     43          8           0      -23.540414    2.285995   -1.960807
     44          6           0      -22.390846    2.880547   -1.193387
     45          1           0      -27.796031   -4.364352    0.733783
     46          1           0      -33.569861   -1.446044    2.072469
     47          1           0      -31.804556    3.568333   -1.044602
     48          1           0      -25.426051   -1.585369   -2.180189
     49          1           0      -25.324315   -3.015526    0.599742
     50          1           0      -25.027922   -4.762991   -0.845102
     51          1           0      -25.326396   -3.804642   -2.267841
     52          1           0      -26.716520   -4.521987   -1.338284
     53          1           0      -23.643078   -0.371101   -1.340265
     54          1           0      -23.452331   -1.783176   -0.282849
     55          1           0      -25.178963    0.191456    1.072337
     56          1           0      -23.611466    0.798014    0.447893
     57          1           0      -28.672434   -5.570348    2.179125
     58          1           0      -30.354066   -6.294534    2.010020
     59          1           0      -29.934176   -5.533719    3.472728
     60          1           0      -33.756918   -2.493885    4.035459
     61          1           0      -34.384605   -4.100757    4.325268
     62          1           0      -34.293909   -3.425983    2.625615
     63          1           0      -34.028315    1.037710    2.242227
     64          1           0      -34.064901    2.678693    0.163495
     65          1           0      -35.005407   -0.490532   -0.113211
     66          1           0      -35.366613    1.218729   -0.328625
     67          1           0      -36.070663    0.390656    1.027685
     68          1           0      -31.908665    3.655978    1.807830
     69          1           0      -32.971739    2.692825    2.835809
     70          1           0      -33.185025    5.380909    1.724644
     71          1           0      -33.796508    4.482796    3.147049
     72          1           0      -34.744714    4.412537    1.751184
     73          1           0      -29.828526    5.356524   -2.445206
     74          1           0      -30.572955    4.294425   -3.744257
     75          1           0      -28.859965    4.887779   -3.817172
     76          1           0      -25.319174    1.190403   -3.241761
     77          1           0      -22.236516    3.937009   -1.414041
     78          1           0      -21.459042    2.357263   -1.411728
     79          1           0      -22.647796    2.722228   -0.146019
     80         12           0       28.973983    0.449163    0.633647
     81          6           0       28.849486   -2.361394   -1.353106
     82          6           0       27.437538    2.272520   -2.027742
     83          6           0       29.379652    3.237197    2.314412
     84          6           0       30.623228   -1.338386    3.133286
     85          7           0       28.252469   -0.073662   -1.420536
     86          6           0       28.274710   -1.279039   -1.996858
     87          6           0       27.545095   -1.193315   -3.377070
     88          6           0       27.239231    0.360692   -3.583859
     89          6           0       27.731432    0.932640   -2.240343
     90          6           0       28.030578    1.081821   -4.658048
     91          6           0       26.324602   -2.115100   -3.519768
     92          6           0       26.401718   -2.944297   -4.790665
     93          1           0       25.129364   -3.456619   -5.481143
     94          7           0       28.398755    2.454042    0.218970
     95          6           0       27.756341    2.996484   -0.856488
     96          6           0       27.507243    4.359043   -0.694335
     97          6           0       28.170115    4.734771    0.525814
     98          6           0       28.684127    3.442856    1.098789
     99          6           0       26.739515    5.211497   -1.694229
    100          6           0       28.371342    6.120322    1.117512
    101          8           0       29.126346    6.240921    2.101776
    102          6           0       27.800061    7.327328    0.492917
    103          7           0       29.832221    0.835391    2.436498
    104          6           0       29.843772    2.092770    3.004516
    105          6           0       30.563451    2.173654    4.401841
    106          6           0       30.682001    0.621576    4.717570
    107          6           0       30.382568   -0.011425    3.346377
    108          6           0       31.948760    2.912623    4.575824
    109          6           0       29.902804    0.038956    5.982779
    110          6           0       28.423502   -0.170388    5.794240
    111          7           0       29.740177   -1.375684    0.850108
    112          6           0       30.390242   -2.010513    1.891283
    113          6           0       30.682761   -3.353844    1.598245
    114          6           0       30.058814   -3.522077    0.356716
    115          6           0       29.482920   -2.293773   -0.080668
    116          6           0       31.340856   -4.242689    2.565621
    117          6           0       29.935652   -4.506947   -0.647928
    118          8           0       30.439404   -5.631814   -0.666226
    119          6           0       29.098603   -3.823448   -1.850906
    120          6           0       29.880783   -3.893032   -3.072614
    121          8           0       30.846044   -3.220842   -3.355508
    122          8           0       29.463543   -4.898775   -3.831697
    123          6           0       30.185774   -5.214839   -5.026810
    124          1           0       27.015423    2.831219   -2.865164
    125          1           0       29.587937    4.074897    2.982758
    126          1           0       31.142907   -1.859727    3.939938
    127          1           0       28.360779   -1.480683   -4.039764
    128          1           0       26.202737    0.404700   -3.920156
    129          1           0       28.665638    0.435311   -5.264450
    130          1           0       28.716448    1.796432   -4.203852
    131          1           0       27.366583    1.723648   -5.237859
    132          1           0       25.359421   -1.609224   -3.489424
    133          1           0       26.304077   -2.768991   -2.648243
    134          1           0       26.901738   -3.871768   -4.509254
    135          1           0       26.967363   -2.345019   -5.503867
    136          1           0       26.227477    4.599106   -2.436522
    137          1           0       27.454066    5.779357   -2.290499
    138          1           0       26.112187    5.943171   -1.186470
    139          1           0       28.340475    8.220294    0.809047
    140          1           0       26.783768    7.428870    0.874886
    141          1           0       27.839119    7.246993   -0.593149
    142          1           0       29.895219    2.516382    5.192488
    143          1           0       31.706059    0.410519    5.023032
    144          1           0       32.228934    3.321674    3.605914
    145          1           0       32.731040    2.164472    4.709952
    146          1           0       32.035419    3.675188    5.350371
    147          1           0       29.983925    0.799883    6.758610
    148          1           0       30.357004   -0.853111    6.412390
    149          1           0       28.144349   -1.018236    6.418829
    150          1           0       27.995523   -0.299318    4.800890
    151          1           0       27.938917    0.740362    6.146147
    152          1           0       31.178315   -4.070740    3.629328
    153          1           0       32.391028   -4.462252    2.377004
    154          1           0       30.879152   -5.196260    2.310693
    155          1           0       28.175404   -4.389284   -1.974451
    156          1           0       29.818755   -4.661448   -5.891949
    157          1           0       29.997392   -6.267101   -5.238985
    158          1           0       31.242849   -4.984932   -4.892406
 ---------------------------------------------------------------------

 SCF Done:  E(RCAM-B3LYP) =  -4069.78581794     A.U. after   19 cycles

 Excitation energies and oscillator strengths:

 Excited State   1:      Singlet-A      1.6890 eV  734.07 nm  f=0.3468  <S**2>=0.000
     309 -> 315        0.20075
     312 -> 314        0.68045
     309 <- 315        0.11491
 This state for optimization and/or second-order correction.
 Total Energy, E(TD-HF/TD-DFT) =  -4069.72374877
 Copying the excited state density for this state as the 1-particle RhoCI density.

 Excited State   2:      Singlet-A      1.7068 eV  726.43 nm  f=0.4221  <S**2>=0.000
     310 -> 316        0.17262
     311 -> 313        0.68672
     310 <- 316        0.10536

 Excited State   3:      Singlet-A      2.1999 eV  563.59 nm  f=0.0722  <S**2>=0.000
     309 -> 314        0.61855
     312 -> 315       -0.32994

 Excited State   4:      Singlet-A      2.2215 eV  558.10 nm  f=0.1598  <S**2>=0.000
     310 -> 313        0.65328
     311 -> 316       -0.25406

 Excited State   5:      Singlet-A      3.1700 eV  391.12 nm  f=0.0000  <S**2>=0.000
     312 -> 313        0.70711

 The electronic state is 1-A.
 Alpha  occ. eigenvalues --  -46.90235 -46.87687 -19.25103 -19.24829 -19.18882
 Alpha  occ. eigenvalues --  -19.18878 -19.18626 -19.18593 -19.18243 -19.18091
 Alpha  occ. eigenvalues --  -14.42454 -14.42300 -14.42168 -14.41997 -14.40163
 Alpha  occ. eigenvalues --  -14.39715 -14.39562 -14.38965 -10.38752 -10.38304
 Alpha  occ. eigenvalues --  -10.34993 -10.34870 -10.34512 -10.34344 -10.32486
 Alpha  occ. eigenvalues --  -10.32031 -10.31504 -10.31413 -10.31220 -10.31188
 Alpha  occ. eigenvalues --  -10.31159 -10.31002 -10.30951 -10.30761 -10.30739
 Alpha  occ. eigenvalues --  -10.30728 -10.30157 -10.29978 -10.29873 -10.29386
 Alpha  occ. eigenvalues --  -10.29055 -10.28990 -10.28879 -10.28842 -10.28752
 Alpha  occ. eigenvalues --  -10.28556 -10.28526 -10.28428 -10.28408 -10.28284
 Alpha  occ. eigenvalues --  -10.28277 -10.28269 -10.28176 -10.28121 -10.28087
 Alpha  occ. eigenvalues --  -10.27963 -10.27875 -10.27701 -10.27692 -10.27664
 Alpha  occ. eigenvalues --  -10.27589 -10.27500 -10.27463 -10.27296 -10.27191
 Alpha  occ. eigenvalues --  -10.27037 -10.27012 -10.26934 -10.26819 -10.26800
 Alpha  occ. eigenvalues --  -10.26618 -10.26605 -10.26436 -10.26308 -10.26277
 Alpha  occ. eigenvalues --  -10.26215 -10.26187 -10.26168 -10.25809 -10.25748
 Alpha  occ. eigenvalues --  -10.25658 -10.25562 -10.25539 -10.25072 -10.24981
 Alpha  occ. eigenvalues --  -10.24640  -3.18541  -3.16472  -1.93405  -1.93029
 Alpha  occ. eigenvalues --   -1.92819  -1.91370  -1.90943  -1.90776  -1.17935
 Alpha  occ. eigenvalues --   -1.17089  -1.10237  -1.08856  -1.08842  -1.08505
 Alpha  occ. eigenvalues --   -1.07799  -1.07729  -1.04624  -1.04595  -1.03703
 Alpha  occ. eigenvalues --   -1.03701  -1.03333  -1.02549  -1.02420  -1.01625
 Alpha  occ. eigenvalues --   -0.92090  -0.91969  -0.89367  -0.88974  -0.88843
 Alpha  occ. eigenvalues --   -0.88775  -0.88347  -0.88276  -0.87653  -0.87519
 Alpha  occ. eigenvalues --   -0.87111  -0.86787  -0.86142  -0.85379  -0.84709
 Alpha  occ. eigenvalues --   -0.84596  -0.84066  -0.83866  -0.82953  -0.82875
 Alpha  occ. eigenvalues --   -0.82642  -0.82400  -0.81183  -0.81118  -0.80597
 Alpha  occ. eigenvalues --   -0.80277  -0.78342  -0.77923  -0.77371  -0.77335
 Alpha  occ. eigenvalues --   -0.76896  -0.76411  -0.76323  -0.75983  -0.75285
 Alpha  occ. eigenvalues --   -0.74987  -0.73452  -0.72878  -0.71744  -0.71454
 Alpha  occ. eigenvalues --   -0.69654  -0.68923  -0.68840  -0.68548  -0.68143
 Alpha  occ. eigenvalues --   -0.67797  -0.67148  -0.66704  -0.65605  -0.65396
 Alpha  occ. eigenvalues --   -0.65217  -0.64921  -0.64778  -0.64608  -0.64386
 Alpha  occ. eigenvalues --   -0.64053  -0.62442  -0.62345  -0.60429  -0.60307
 Alpha  occ. eigenvalues --   -0.60005  -0.59294  -0.59001  -0.58996  -0.58715
 Alpha  occ. eigenvalues --   -0.58514  -0.58352  -0.57825  -0.57684  -0.57285
 Alpha  occ. eigenvalues --   -0.56528  -0.56340  -0.56206  -0.55863  -0.55094
 Alpha  occ. eigenvalues --   -0.55058  -0.54930  -0.54675  -0.54532  -0.54363
 Alpha  occ. eigenvalues --   -0.53886  -0.53553  -0.53536  -0.53169  -0.53079
 Alpha  occ. eigenvalues --   -0.52777  -0.52638  -0.52513  -0.52507  -0.52355
 Alpha  occ. eigenvalues --   -0.52133  -0.52041  -0.51774  -0.51724  -0.51549
 Alpha  occ. eigenvalues --   -0.51330  -0.50694  -0.50302  -0.50298  -0.50179
 Alpha  occ. eigenvalues --   -0.49963  -0.49825  -0.49711  -0.49669  -0.49505
 Alpha  occ. eigenvalues --   -0.49473  -0.49260  -0.49236  -0.49145  -0.48970
 Alpha  occ. eigenvalues --   -0.48965  -0.48529  -0.48397  -0.48280  -0.48148
 Alpha  occ. eigenvalues --   -0.47818  -0.47776  -0.47332  -0.47323  -0.46972
 Alpha  occ. eigenvalues --   -0.46921  -0.46881  -0.46617  -0.46504  -0.46379
 Alpha  occ. eigenvalues --   -0.46311  -0.46026  -0.45824  -0.45620  -0.45542
 Alpha  occ. eigenvalues --   -0.45426  -0.45328  -0.45201  -0.45153  -0.45118
 Alpha  occ. eigenvalues --   -0.44929  -0.44914  -0.44590  -0.44377  -0.44375
 Alpha  occ. eigenvalues --   -0.43968  -0.43900  -0.43696  -0.43635  -0.43594
 Alpha  occ. eigenvalues --   -0.43495  -0.43242  -0.43233  -0.42908  -0.42680
 Alpha  occ. eigenvalues --   -0.42530  -0.42408  -0.42016  -0.41998  -0.41590
 Alpha  occ. eigenvalues --   -0.41512  -0.41512  -0.41424  -0.41323  -0.41306
 Alpha  occ. eigenvalues --   -0.41115  -0.40990  -0.40879  -0.40487  -0.40138
 Alpha  occ. eigenvalues --   -0.40043  -0.39822  -0.39201  -0.38886  -0.38661
 Alpha  occ. eigenvalues --   -0.38201  -0.38011  -0.37740  -0.37438  -0.37193
 Alpha  occ. eigenvalues --   -0.37131  -0.36768  -0.36538  -0.36402  -0.36359
 Alpha  occ. eigenvalues --   -0.36185  -0.35731  -0.34272  -0.34237  -0.34123
 Alpha  occ. eigenvalues --   -0.33885  -0.33367  -0.33135  -0.31450  -0.31401
 Alpha  occ. eigenvalues --   -0.30786  -0.30764  -0.30696  -0.30536  -0.30294
 Alpha  occ. eigenvalues --   -0.30064  -0.29770  -0.28942  -0.24302  -0.24127
 Alpha  occ. eigenvalues --   -0.21483  -0.21336
 Alpha virt. eigenvalues --   -0.09102  -0.08787  -0.02575  -0.01431   0.00246
 Alpha virt. eigenvalues --    0.00483   0.01013   0.02409   0.02476   0.03162
 Alpha virt. eigenvalues --    0.04766   0.05167   0.05636   0.05665   0.06397

 Mulliken charges:
               1
     1  Mg   0.809053
     2  C   -0.024284
     3  C   -0.063374
     4  C   -0.069233
     5  C   -0.046409
     6  N   -0.259861
     7  C   -0.095473
     8  C    0.047101
     9  C   -0.094993
    10  C    0.038585
    11  C    0.067257
    12  C    0.028222
    13  C   -0.086683
    14  H   -0.003199
    15  N   -0.383433
    16  C    0.151033
    17  C   -0.160417
    18  C   -0.041628
    19  C    0.173084
    20  C    0.133628
    21  C   -0.012997
    22  O   -0.204450
    23  C    0.070709
    24  N   -0.255746
    25  C    0.022675
    26  C   -0.100934
    27  C   -0.016301
    28  C    0.028504
    29  C    0.062461
    30  C    0.013440
    31  C    0.006263
    32  N   -0.412707
    33  C    0.143980
    34  C   -0.181414
    35  C    0.017256
    36  C    0.150121
    37  C    0.132501
    38  C    0.023754
    39  O   -0.196851
    40  C    0.022552
    41  C    0.168894
    42  O   -0.207062
    43  O   -0.315700
    44  C    0.170862
    45  H   -0.008630
    46  H   -0.041476
    47  H   -0.025242
    48  H    0.008613
    49  H    0.035943
    50  H    0.010330
    51  H    0.022938
    52  H    0.020755
    53  H    0.017507
    54  H    0.016108
    55  H    0.065857
    56  H    0.027679
    57  H    0.007253
    58  H    0.023940
    59  H    0.038911
    60  H    0.044554
    61  H    0.029523
    62  H    0.034968
    63  H    0.015077
    64  H   -0.005462
    65  H    0.022376
    66  H    0.010553
    67  H    0.024205
    68  H    0.012520
    69  H    0.009694
    70  H    0.031449
    71  H    0.006069
    72  H    0.005315
    73  H    0.031932
    74  H    0.035003
    75  H    0.039142
    76  H    0.037211
    77  H    0.053520
    78  H    0.040932
    79  H    0.052143
    80  Mg   0.849775
    81  C   -0.032490
    82  C   -0.104334
    83  C   -0.040413
    84  C   -0.102954
    85  N   -0.277005
    86  C   -0.073637
    87  C    0.020012
    88  C   -0.112948
    89  C    0.098368
    90  C    0.051550
    91  C    0.081295
    92  C   -0.091570
    93  H    0.011465
    94  N   -0.341462
    95  C    0.146766
    96  C   -0.163379
    97  C   -0.029823
    98  C    0.148874
    99  C    0.116774
   100  C   -0.008330
   101  O   -0.229859
   102  C    0.068406
   103  N   -0.320756
   104  C    0.008025
   105  C   -0.016752
   106  C   -0.037886
   107  C    0.071421
   108  C    0.076342
   109  C    0.018585
   110  C   -0.003775
   111  N   -0.375131
   112  C    0.118486
   113  C   -0.127435
   114  C    0.017190
   115  C    0.159542
   116  C    0.116727
   117  C    0.021784
   118  O   -0.183754
   119  C   -0.013644
   120  C    0.166788
   121  O   -0.220804
   122  O   -0.295157
   123  C    0.174908
   124  H   -0.024847
   125  H   -0.005984
   126  H   -0.029583
   127  H    0.009691
   128  H    0.016844
   129  H    0.020834
   130  H    0.019466
   131  H    0.013206
   132  H    0.015424
   133  H    0.005730
   134  H    0.041358
   135  H    0.035618
   136  H    0.018811
   137  H    0.034018
   138  H    0.033327
   139  H    0.029276
   140  H    0.043636
   141  H    0.024137
   142  H    0.010405
   143  H    0.001450
   144  H    0.018267
   145  H    0.006741
   146  H    0.034655
   147  H    0.004117
   148  H    0.008758
   149  H    0.014742
   150  H    0.027002
   151  H    0.007624
   152  H    0.024883
   153  H    0.030973
   154  H    0.021936
   155  H    0.035908
   156  H    0.024934
   157  H    0.037060
   158  H    0.049797
 Sum of Mulliken charges =  -0.00000

 Dipole moment (field-independent basis, Debye):
    X=             -5.0238    Y=              2.4471    Z=             -1.3514  Tot=              5.7492
 Quadrupole moment (field-independent basis, Debye-Ang):
   XX=           -561.7312   YY=           -549.0624   ZZ=           -497.1407
   XY=             60.9164   XZ=             51.0000   YZ=             11.9747

 Normal termination of Gaussian 16 at Tue Sep 14 19:11:21 2021.
