 Gaussian 16, Revision A.03,
 Gaussian 16:  ES64L-G16RevA.03 25-Dec-2016

 -----------------------------------
 #p cam-b3lyp/Def2SVP td=(nstates=5)
 -----------------------------------

 --------------------------------
 TDDFT excited states in gaussian
 --------------------------------
 Symbolic Z-matrix:
 Charge =  0 Multiplicity = 1

                         Standard orientation:
 ---------------------------------------------------------------------
 Center     Atomic      Atomic             Coordinates (Angstroms)
 Number     Number       Type             X           Y           Z
 ---------------------------------------------------------------------
      1         12           0       -0.704373    0.191675   -0.106813
      2          6           0        2.733712    0.400023   -0.255552
      3          6           0       -0.290653   -3.359201   -0.325916
      4          6           0       -3.944512   -0.141201   -0.316235
      5          6           0       -0.966686    3.638245   -0.239300
      6          7           0        1.089518   -1.291974   -0.487887
      7          6           0        2.349335   -0.949262   -0.277395
      8          6           0        3.222741   -2.198556    0.029238
      9          6           0        2.303636   -3.319344   -0.570785
     10          6           0        0.915252   -2.666602   -0.476263
     11          6           0        2.692732   -3.686126   -2.047034
     12          6           0        3.367528   -2.252803    1.566412
     13          6           0        4.315088   -3.321485    2.128086
     14          1           0        4.855862   -4.411612    1.224763
     15          7           0       -2.000293   -1.432046   -0.184552
     16          6           0       -1.612660   -2.815357   -0.230751
     17          6           0       -2.841813   -3.580055   -0.069904
     18          6           0       -3.907621   -2.633731    0.045306
     19          6           0       -3.321988   -1.314476   -0.188420
     20          6           0       -2.918172   -5.150074    0.016062
     21          6           0       -5.404778   -2.936162    0.383842
     22          8           0       -6.190875   -2.030903    0.322370
     23          6           0       -5.840300   -4.322064    0.733630
     24          7           0       -2.258199    1.576962   -0.165456
     25          6           0       -3.556053    1.207137   -0.249476
     26          6           0       -4.514210    2.391306   -0.372649
     27          6           0       -3.556593    3.593977   -0.206540
     28          6           0       -2.143200    2.881697   -0.203847
     29          6           0       -5.354382    2.452256   -1.700937
     30          6           0       -3.838905    4.554758    0.920207
     31          6           0       -4.146400    4.049293    2.350425
     32          7           0        0.550315    1.766612   -0.238686
     33          6           0        0.328790    3.113612   -0.273472
     34          6           0        1.622740    3.760062   -0.213096
     35          6           0        2.646495    2.752042   -0.171341
     36          6           0        1.903408    1.540346   -0.204810
     37          6           0        1.818033    5.244138   -0.209584
     38          6           0        4.043757    2.475709   -0.173081
     39          8           0        5.056529    3.208476   -0.199028
     40          6           0        4.103757    0.886732   -0.507203
     41          6           0        5.267450    0.317098    0.305773
     42          8           0        5.416568    0.439241    1.461243
     43          8           0        6.115016   -0.314012   -0.559649
     44          6           0        7.089509   -1.233030   -0.008465
     45          1           0       -0.158888   -4.434490   -0.459848
     46          1           0       -5.028647   -0.193028   -0.436462
     47          1           0       -0.980336    4.727799   -0.299613
     48          1           0        4.161314   -2.192211   -0.524770
     49          1           0        2.417067   -4.142364    0.135228
     50          1           0        3.218943   -4.639866   -2.055201
     51          1           0        3.314475   -2.879992   -2.436975
     52          1           0        1.832297   -3.841070   -2.698052
     53          1           0        2.389431   -2.507387    1.973772
     54          1           0        3.560017   -1.269707    1.994937
     55          1           0        4.016160   -3.685820    3.111196
     56          1           0        5.183634   -2.754784    2.464137
     57          1           0       -3.654722   -5.567935   -0.670864
     58          1           0       -3.126504   -5.374406    1.062062
     59          1           0       -1.928378   -5.572006   -0.162374
     60          1           0       -6.698657   -4.128584    1.377357
     61          1           0       -5.123812   -4.840180    1.370021
     62          1           0       -5.918688   -5.089911   -0.035974
     63          1           0       -5.190083    2.293656    0.476623
     64          1           0       -3.472309    4.198565   -1.109546
     65          1           0       -5.450436    3.512061   -1.935415
     66          1           0       -6.306507    2.021475   -1.390424
     67          1           0       -4.913303    1.807508   -2.461037
     68          1           0       -4.825057    4.907861    0.620547
     69          1           0       -3.150100    5.388903    1.057958
     70          1           0       -5.119380    4.281470    2.781412
     71          1           0       -3.508629    4.535129    3.088840
     72          1           0       -4.054218    2.963335    2.373018
     73          1           0        2.897000    5.395821   -0.220186
     74          1           0        1.448768    5.666644    0.725850
     75          1           0        1.267445    5.789030   -0.975860
     76          1           0        4.235950    0.836122   -1.588171
     77          1           0        7.902100   -0.716718   -0.519760
     78          1           0        6.879668   -2.280305   -0.226951
     79          1           0        7.243482   -1.135822    1.066534
 ---------------------------------------------------------------------

 SCF Done:  E(RCAM-B3LYP) =  -2034.90001000     A.U. after   19 cycles

 Excitation energies and oscillator strengths:

 Excited State   1:      Singlet-A      1.7338 eV  715.11 nm  f=0.3746  <S**2>=0.000
     155 ->158        -0.19631
     156 ->157         0.68085
     155 <-158        -0.11073
 This state for optimization and/or second-order correction.
 Total Energy, E(TD-HF/TD-DFT) =  -2034.83629463
 Copying the excited state density for this state as the 1-particle RhoCI density.

 Excited State   2:      Singlet-A      2.2194 eV  558.65 nm  f=0.0919  <S**2>=0.000
     155 ->157         0.63502
     156 ->158         0.29921

 Excited State   3:      Singlet-A      3.3264 eV  372.72 nm  f=0.0407  <S**2>=0.000
     151 ->157         0.28079
     151 ->159        -0.18916
     152 ->157         0.40922
     152 ->159        -0.22800
     152 ->160         0.11032
     153 ->157         0.13623
     154 ->157         0.20185
     156 ->158         0.17383

 Excited State   4:      Singlet-A      3.4284 eV  361.63 nm  f=0.0117  <S**2>=0.000
     153 ->157        -0.39054
     154 ->157         0.54716

 Excited State   5:      Singlet-A      3.4526 eV  359.10 nm  f=0.3110  <S**2>=0.000
     153 ->157        -0.27553
     154 ->157        -0.30564
     155 ->157        -0.20338
     156 ->158         0.51516

 The electronic state is 1-A.
 Alpha  occ. eigenvalues --  -46.88271 -19.24388 -19.20264 -19.19098 -19.19019
 Alpha  occ. eigenvalues --  -14.41736 -14.41733 -14.39308 -14.39277 -10.38918
 Alpha  occ. eigenvalues --  -10.35277 -10.35060 -10.31466 -10.30714 -10.30622
 Alpha  occ. eigenvalues --  -10.30594 -10.30430 -10.30286 -10.29626 -10.29316
 Alpha  occ. eigenvalues --  -10.29010 -10.28774 -10.28602 -10.28459 -10.28078
 Alpha  occ. eigenvalues --  -10.27803 -10.27784 -10.27699 -10.27657 -10.27623
 Alpha  occ. eigenvalues --  -10.27585 -10.27585 -10.26744 -10.26561 -10.26469
 Alpha  occ. eigenvalues --  -10.26465 -10.26279 -10.26268 -10.26210 -10.25794
 Alpha  occ. eigenvalues --  -10.25747 -10.25274 -10.24948  -3.16908  -1.91807
 Alpha  occ. eigenvalues --   -1.91380  -1.91198  -1.17614  -1.11526  -1.09803
 Alpha  occ. eigenvalues --   -1.08012  -1.05239  -1.04083  -1.03055  -1.02079
 Alpha  occ. eigenvalues --   -0.93023  -0.89383  -0.88672  -0.88541  -0.87311
 Alpha  occ. eigenvalues --   -0.86437  -0.85684  -0.84070  -0.83739  -0.82433
 Alpha  occ. eigenvalues --   -0.81767  -0.81428  -0.80284  -0.77999  -0.77363
 Alpha  occ. eigenvalues --   -0.76825  -0.75876  -0.75516  -0.72688  -0.72010
 Alpha  occ. eigenvalues --   -0.70275  -0.68887  -0.68110  -0.66206  -0.65192
 Alpha  occ. eigenvalues --   -0.64927  -0.64303  -0.64159  -0.62376  -0.60511
 Alpha  occ. eigenvalues --   -0.59655  -0.59167  -0.58827  -0.58149  -0.57924
 Alpha  occ. eigenvalues --   -0.56230  -0.56143  -0.55656  -0.55356  -0.54232
 Alpha  occ. eigenvalues --   -0.53642  -0.53525  -0.52970  -0.52397  -0.52313
 Alpha  occ. eigenvalues --   -0.52089  -0.51814  -0.50768  -0.50724  -0.50153
 Alpha  occ. eigenvalues --   -0.49993  -0.49697  -0.49566  -0.49330  -0.49316
 Alpha  occ. eigenvalues --   -0.48780  -0.48239  -0.48145  -0.47982  -0.47644
 Alpha  occ. eigenvalues --   -0.46855  -0.46628  -0.46551  -0.45965  -0.45842
 Alpha  occ. eigenvalues --   -0.45591  -0.45213  -0.45018  -0.44747  -0.43865
 Alpha  occ. eigenvalues --   -0.43365  -0.43269  -0.42986  -0.42865  -0.42701
 Alpha  occ. eigenvalues --   -0.42312  -0.42093  -0.41995  -0.41884  -0.41576
 Alpha  occ. eigenvalues --   -0.41437  -0.40997  -0.40229  -0.39558  -0.39448
 Alpha  occ. eigenvalues --   -0.38406  -0.37958  -0.37516  -0.37136  -0.36393
 Alpha  occ. eigenvalues --   -0.35857  -0.35140  -0.33966  -0.33350  -0.31586
 Alpha  occ. eigenvalues --   -0.31017  -0.30424  -0.29827  -0.29367  -0.23815
 Alpha  occ. eigenvalues --   -0.21101
 Alpha virt. eigenvalues --   -0.08441  -0.01892   0.00184   0.02605   0.03021
 Alpha virt. eigenvalues --    0.05333   0.05848   0.06062   0.06719   0.07786
 Alpha virt. eigenvalues --    0.08538   0.09226   0.09397   0.10346   0.10531

 Mulliken charges:
               1
     1  Mg   0.826082
     2  C   -0.012333
     3  C   -0.069430
     4  C   -0.074869
     5  C   -0.110755
     6  N   -0.226814
     7  C   -0.083318
     8  C   -0.038292
     9  C   -0.040657
    10  C    0.001546
    11  C    0.086682
    12  C    0.038273
    13  C   -0.033807
    14  H    0.030045
    15  N   -0.395516
    16  C    0.163785
    17  C   -0.171008
    18  C   -0.041640
    19  C    0.168861
    20  C    0.109760
    21  C    0.017411
    22  O   -0.181333
    23  C    0.052850
    24  N   -0.266003
    25  C   -0.012131
    26  C   -0.046940
    27  C   -0.006075
    28  C    0.066906
    29  C    0.083999
    30  C    0.038650
    31  C   -0.018423
    32  N   -0.393963
    33  C    0.127055
    34  C   -0.170488
    35  C    0.015090
    36  C    0.149471
    37  C    0.114107
    38  C    0.076150
    39  O   -0.199752
    40  C   -0.076674
    41  C    0.177521
    42  O   -0.154505
    43  O   -0.338133
    44  C    0.149808
    45  H   -0.021742
    46  H   -0.018194
    47  H   -0.032790
    48  H   -0.002273
    49  H   -0.002005
    50  H    0.017269
    51  H    0.023469
    52  H    0.018042
    53  H    0.001271
    54  H    0.042094
    55  H    0.018706
    56  H    0.015671
    57  H    0.037189
    58  H    0.036372
    59  H    0.006414
    60  H    0.032716
    61  H   -0.000050
    62  H    0.047143
    63  H    0.021809
    64  H    0.003763
    65  H    0.024776
    66  H    0.026001
    67  H    0.031886
    68  H    0.004412
    69  H    0.015878
    70  H    0.010610
    71  H    0.010203
    72  H    0.020207
    73  H    0.037305
    74  H    0.019392
    75  H    0.024877
    76  H    0.054933
    77  H    0.050925
    78  H    0.046133
    79  H    0.046399
 Sum of Mulliken charges =  -0.00000

 Dipole moment (field-independent basis, Debye):
    X=             -2.4374    Y=             -3.6844    Z=             -0.1615  Tot=              4.4206
 Quadrupole moment (field-independent basis, Debye-Ang):
   XX=           -277.1783   YY=           -228.3391   ZZ=           -257.3762
   XY=            -30.1480   XZ=             -5.1607   YZ=             -1.8038

 Normal termination of Gaussian 16 at Wed Sep 15 02:37:43 2021.
