 Gaussian 16, Revision A.03,
 Gaussian 16:  ES64L-G16RevA.03 25-Dec-2016

 ----------------------------------------------------------
 #p cam-b3lyp/Def2SVP td=(nstates=5) density=(transition=1)
 ----------------------------------------------------------

 --------------------------------
 TDDFT excited states in gaussian
 --------------------------------
 Symbolic Z-matrix:
 Charge =  0 Multiplicity = 1

                         Standard orientation:
 ---------------------------------------------------------------------
 Center     Atomic      Atomic             Coordinates (Angstroms)
 Number     Number       Type             X           Y           Z
 ---------------------------------------------------------------------
      1         12           0       23.933890    0.551707    0.052676
      2          6           0       22.994862   -2.566056   -1.292938
      3          6           0       23.959278   -0.842662    3.148768
      4          6           0       24.719803    3.594244    1.303776
      5          6           0       23.445034    1.976268   -3.076252
      6          7           0       23.437297   -1.411170    0.843140
      7          6           0       23.189007   -2.567515    0.098570
      8          6           0       23.182780   -3.755686    1.012783
      9          6           0       23.002536   -3.104340    2.404555
     10          6           0       23.507739   -1.667433    2.114629
     11          6           0       21.556746   -3.043689    2.990899
     12          6           0       24.445786   -4.693238    0.930515
     13          6           0       24.129033   -6.152204    0.841694
     14          1           0       24.953049   -7.091156    1.742446
     15          7           0       24.379106    1.213668    1.907492
     16          6           0       24.430806    0.457920    3.090589
     17          6           0       24.852213    1.268106    4.162955
     18          6           0       25.102818    2.627230    3.650797
     19          6           0       24.755740    2.522534    2.262228
     20          6           0       24.893612    0.861078    5.606886
     21          6           0       25.533884    3.982936    4.361524
     22          8           0       25.702427    4.993080    3.720508
     23          6           0       25.845820    4.022277    5.850724
     24          7           0       23.954910    2.528792   -0.757357
     25          6           0       24.299906    3.608974   -0.009906
     26          6           0       24.214332    4.943244   -0.894644
     27          6           0       24.098778    4.378391   -2.377784
     28          6           0       23.806674    2.847866   -2.071566
     29          6           0       23.055219    5.921050   -0.556307
     30          6           0       25.388350    4.585294   -3.249475
     31          6           0       25.073563    5.248293   -4.524244
     32          7           0       23.297935   -0.115257   -1.800242
     33          6           0       23.253107    0.563852   -3.016869
     34          6           0       22.875668   -0.341582   -4.067768
     35          6           0       22.739026   -1.560259   -3.434895
     36          6           0       23.019067   -1.404549   -2.113948
     37          6           0       22.785770    0.095374   -5.553211
     38          6           0       22.387417   -2.955237   -3.627073
     39          8           0       21.953795   -3.484222   -4.626784
     40          6           0       22.521367   -3.679882   -2.196896
     41          6           0       21.214034   -4.252339   -1.826711
     42          8           0       20.150530   -3.587888   -1.714615
     43          8           0       21.362479   -5.599785   -1.674490
     44          6           0       20.085187   -6.361053   -1.678667
     45          1           0       23.905084   -1.348155    4.115163
     46          1           0       24.948282    4.612045    1.626267
     47          1           0       23.227134    2.450782   -4.034793
     48          1           0       22.298748   -4.386831    0.914244
     49          1           0       23.588336   -3.584163    3.188779
     50          1           0       20.933221   -3.896527    2.719427
     51          1           0       21.114557   -2.109143    2.644687
     52          1           0       21.488494   -2.913722    4.070668
     53          1           0       25.036527   -4.445958    1.812341
     54          1           0       25.098064   -4.415623    0.102013
     55          1           0       24.293941   -6.335232   -0.220217
     56          1           0       23.103265   -6.323531    1.167852
     57          1           0       25.887850    0.700221    6.024261
     58          1           0       24.424790   -0.116164    5.714967
     59          1           0       24.399646    1.499293    6.339047
     60          1           0       26.247507    5.017258    6.038503
     61          1           0       26.469819    3.180870    6.153404
     62          1           0       24.957080    3.747655    6.419654
     63          1           0       25.092970    5.563226   -0.715804
     64          1           0       23.232485    4.841150   -2.852875
     65          1           0       22.345711    5.589682    0.202623
     66          1           0       22.439796    6.170328   -1.421082
     67          1           0       23.519029    6.845114   -0.210194
     68          1           0       25.794879    3.605754   -3.503884
     69          1           0       26.157585    5.200878   -2.783630
     70          1           0       25.318669    6.306823   -4.433526
     71          1           0       24.078867    5.130234   -4.952604
     72          1           0       25.662978    4.794642   -5.321121
     73          1           0       23.317611    1.039142   -5.676159
     74          1           0       21.756893    0.074099   -5.915370
     75          1           0       23.367569   -0.656694   -6.084830
     76          1           0       23.278277   -4.464462   -2.213211
     77          1           0       20.284005   -7.432579   -1.690093
     78          1           0       19.640184   -6.154617   -2.652284
     79          1           0       19.495843   -5.988864   -0.840197
     80         12           0      -23.972611    0.508069    0.099198
     81          6           0      -21.730464   -1.881330    1.012787
     82          6           0      -26.227154   -1.894791   -0.890850
     83          6           0      -26.026816    2.993498   -0.932140
     84          6           0      -21.459678    2.925738    0.675216
     85          7           0      -23.881207   -1.657480   -0.137920
     86          6           0      -23.006880   -2.390850    0.601518
     87          6           0      -23.415612   -3.815730    0.763296
     88          6           0      -24.774480   -3.804752   -0.110994
     89          6           0      -25.000410   -2.359832   -0.413820
     90          6           0      -24.658448   -4.677144   -1.441970
     91          6           0      -23.697559   -4.099260    2.312154
     92          6           0      -23.610927   -5.551499    2.786609
     93          1           0      -23.580638   -6.779701    1.843155
     94          7           0      -25.904126    0.599947   -0.697802
     95          6           0      -26.659484   -0.528179   -1.057320
     96          6           0      -27.902720   -0.044442   -1.611450
     97          6           0      -27.870590    1.364892   -1.601223
     98          6           0      -26.577564    1.684926   -1.012258
     99          6           0      -29.021011   -1.022662   -2.040781
    100          6           0      -28.974344    2.382260   -2.203977
    101          8           0      -28.925372    3.605375   -2.022159
    102          6           0      -30.186874    1.948072   -3.010812
    103          7           0      -23.760952    2.707865   -0.027628
    104          6           0      -24.766835    3.462716   -0.530604
    105          6           0      -24.308882    4.895178   -0.799801
    106          6           0      -22.908362    4.954723    0.043692
    107          6           0      -22.695742    3.467389    0.366565
    108          6           0      -24.259987    5.342239   -2.332238
    109          6           0      -22.959757    5.705808    1.469454
    110          6           0      -21.911455    6.748534    1.811409
    111          7           0      -21.995514    0.605346    0.765881
    112          6           0      -21.111900    1.604076    0.937871
    113          6           0      -19.847816    1.065687    1.531034
    114          6           0      -20.117770   -0.320988    1.613025
    115          6           0      -21.384893   -0.526093    1.014454
    116          6           0      -18.611390    1.755851    1.987630
    117          6           0      -19.502952   -1.522653    2.037108
    118          8           0      -18.380200   -1.718714    2.545991
    119          6           0      -20.519813   -2.598312    1.663658
    120          6           0      -19.908699   -3.512032    0.725663
    121          8           0      -19.381866   -3.313549   -0.324181
    122          8           0      -20.143307   -4.790684    1.222512
    123          6           0      -19.706840   -6.036711    0.483397
    124          1           0      -27.067087   -2.581422   -1.012160
    125          1           0      -26.655675    3.779923   -1.355478
    126          1           0      -20.585516    3.579086    0.690265
    127          1           0      -22.776834   -4.634493    0.432693
    128          1           0      -25.617198   -4.191929    0.461707
    129          1           0      -25.560634   -5.209698   -1.741991
    130          1           0      -23.779107   -5.317296   -1.372463
    131          1           0      -24.456697   -3.973510   -2.250275
    132          1           0      -24.676786   -3.727700    2.614706
    133          1           0      -22.951284   -3.511182    2.846928
    134          1           0      -24.441672   -5.680361    3.481565
    135          1           0      -22.731816   -5.655251    3.421472
    136          1           0      -28.802714   -2.070921   -1.837244
    137          1           0      -29.188552   -0.853989   -3.104024
    138          1           0      -29.928822   -0.716066   -1.520673
    139          1           0      -30.821247    1.433452   -2.290069
    140          1           0      -29.968016    1.114453   -3.678406
    141          1           0      -30.557536    2.774886   -3.616346
    142          1           0      -25.007340    5.564025   -0.295494
    143          1           0      -22.116468    5.415032   -0.547498
    144          1           0      -23.258819    5.664854   -2.619016
    145          1           0      -24.981195    6.138540   -2.512701
    146          1           0      -24.474961    4.496619   -2.985982
    147          1           0      -23.020054    4.999735    2.297531
    148          1           0      -23.931777    6.196087    1.514117
    149          1           0      -21.441430    6.420090    2.737740
    150          1           0      -22.323424    7.753266    1.901547
    151          1           0      -21.120648    6.733249    1.060108
    152          1           0      -18.649015    2.844066    1.940710
    153          1           0      -17.753861    1.456633    1.384400
    154          1           0      -18.421589    1.468356    3.021566
    155          1           0      -20.861191   -3.162045    2.532344
    156          1           0      -19.256905   -5.772203   -0.473767
    157          1           0      -20.579635   -6.648954    0.252577
    158          1           0      -18.993102   -6.528793    1.144051
 ---------------------------------------------------------------------

 SCF Done:  E(RCAM-B3LYP) =  -4069.83220964     A.U. after   19 cycles

 Excitation energies and oscillator strengths:

 Excited State   1:      Singlet-A      1.7389 eV  713.01 nm  f=0.3981  <S**2>=0.000
     310 -> 315        0.19176
     312 -> 314        0.68294
     310 <- 315        0.10976
 This state for optimization and/or second-order correction.
 Total Energy, E(TD-HF/TD-DFT) =  -4069.76830668
 Copying the excited state density for this state as the 1-particle RhoCI density.

 Excited State   2:      Singlet-A      1.7437 eV  711.02 nm  f=0.3940  <S**2>=0.000
     309 -> 316        0.17837
     311 -> 313        0.68464
     309 <- 316        0.10695

 Excited State   3:      Singlet-A      2.2018 eV  563.10 nm  f=0.1583  <S**2>=0.000
     309 -> 313        0.65400
     311 -> 316       -0.24978

 Excited State   4:      Singlet-A      2.2287 eV  556.30 nm  f=0.1033  <S**2>=0.000
     310 -> 314        0.63902
     312 -> 315       -0.29488

 Excited State   5:      Singlet-A      3.1055 eV  399.24 nm  f=0.0000  <S**2>=0.000
     312 -> 313        0.70711

 The electronic state is 1-A.
 Alpha  occ. eigenvalues --  -46.89394 -46.87163 -19.25643 -19.23677 -19.19870
 Alpha  occ. eigenvalues --  -19.19585 -19.19497 -19.19188 -19.19020 -19.18774
 Alpha  occ. eigenvalues --  -14.42472 -14.42045 -14.41664 -14.41485 -14.39545
 Alpha  occ. eigenvalues --  -14.39385 -14.39271 -14.38538 -10.39412 -10.38646
 Alpha  occ. eigenvalues --  -10.36325 -10.36224 -10.35021 -10.34468 -10.32161
 Alpha  occ. eigenvalues --  -10.31896 -10.31740 -10.31032 -10.30669 -10.30638
 Alpha  occ. eigenvalues --  -10.30612 -10.30603 -10.30602 -10.30420 -10.30208
 Alpha  occ. eigenvalues --  -10.29988 -10.29902 -10.29862 -10.29739 -10.29081
 Alpha  occ. eigenvalues --  -10.29008 -10.28923 -10.28848 -10.28767 -10.28652
 Alpha  occ. eigenvalues --  -10.28292 -10.28243 -10.28182 -10.28181 -10.28119
 Alpha  occ. eigenvalues --  -10.28044 -10.27956 -10.27953 -10.27884 -10.27847
 Alpha  occ. eigenvalues --  -10.27818 -10.27749 -10.27740 -10.27625 -10.27595
 Alpha  occ. eigenvalues --  -10.27509 -10.27456 -10.27393 -10.27392 -10.27358
 Alpha  occ. eigenvalues --  -10.27202 -10.26933 -10.26710 -10.26656 -10.26486
 Alpha  occ. eigenvalues --  -10.26430 -10.26335 -10.26204 -10.26162 -10.26108
 Alpha  occ. eigenvalues --  -10.26105 -10.26068 -10.26059 -10.25886 -10.25776
 Alpha  occ. eigenvalues --  -10.25696 -10.25356 -10.25319 -10.24742 -10.24640
 Alpha  occ. eigenvalues --  -10.24338  -3.17801  -3.15892  -1.92720  -1.92238
 Alpha  occ. eigenvalues --   -1.92112  -1.90796  -1.90336  -1.90216  -1.15740
 Alpha  occ. eigenvalues --   -1.15626  -1.11691  -1.10307  -1.09508  -1.08320
 Alpha  occ. eigenvalues --   -1.07196  -1.06317  -1.05557  -1.04925  -1.04454
 Alpha  occ. eigenvalues --   -1.03570  -1.03325  -1.02623  -1.02537  -1.01410
 Alpha  occ. eigenvalues --   -0.93487  -0.92564  -0.89191  -0.88646  -0.88602
 Alpha  occ. eigenvalues --   -0.88257  -0.88014  -0.87511  -0.87058  -0.87012
 Alpha  occ. eigenvalues --   -0.86899  -0.86399  -0.86215  -0.85810  -0.84320
 Alpha  occ. eigenvalues --   -0.84296  -0.83814  -0.83468  -0.82891  -0.82358
 Alpha  occ. eigenvalues --   -0.82094  -0.81602  -0.81182  -0.81177  -0.80647
 Alpha  occ. eigenvalues --   -0.80294  -0.78406  -0.78218  -0.77465  -0.77306
 Alpha  occ. eigenvalues --   -0.77118  -0.76759  -0.76196  -0.75718  -0.75181
 Alpha  occ. eigenvalues --   -0.74867  -0.72866  -0.72584  -0.71979  -0.70913
 Alpha  occ. eigenvalues --   -0.69251  -0.68632  -0.68593  -0.68219  -0.68101
 Alpha  occ. eigenvalues --   -0.67575  -0.66528  -0.65978  -0.65499  -0.65332
 Alpha  occ. eigenvalues --   -0.65198  -0.65164  -0.64555  -0.64509  -0.64245
 Alpha  occ. eigenvalues --   -0.64025  -0.61928  -0.61810  -0.60443  -0.60305
 Alpha  occ. eigenvalues --   -0.60101  -0.59920  -0.59233  -0.59177  -0.58789
 Alpha  occ. eigenvalues --   -0.58467  -0.58192  -0.57749  -0.57673  -0.57605
 Alpha  occ. eigenvalues --   -0.56144  -0.56020  -0.55665  -0.55496  -0.55489
 Alpha  occ. eigenvalues --   -0.55287  -0.54977  -0.54229  -0.53827  -0.53764
 Alpha  occ. eigenvalues --   -0.53541  -0.53418  -0.53038  -0.52969  -0.52754
 Alpha  occ. eigenvalues --   -0.52609  -0.52567  -0.52195  -0.52131  -0.51870
 Alpha  occ. eigenvalues --   -0.51806  -0.51689  -0.51625  -0.51540  -0.51401
 Alpha  occ. eigenvalues --   -0.51013  -0.50878  -0.50801  -0.50536  -0.50444
 Alpha  occ. eigenvalues --   -0.50092  -0.49799  -0.49787  -0.49696  -0.49436
 Alpha  occ. eigenvalues --   -0.49394  -0.49389  -0.49120  -0.49092  -0.48911
 Alpha  occ. eigenvalues --   -0.48700  -0.48300  -0.48139  -0.47945  -0.47934
 Alpha  occ. eigenvalues --   -0.47660  -0.47608  -0.47262  -0.47241  -0.46921
 Alpha  occ. eigenvalues --   -0.46771  -0.46629  -0.46586  -0.46451  -0.46441
 Alpha  occ. eigenvalues --   -0.46240  -0.46163  -0.46130  -0.45830  -0.45756
 Alpha  occ. eigenvalues --   -0.45577  -0.45390  -0.45182  -0.45067  -0.44728
 Alpha  occ. eigenvalues --   -0.44682  -0.44658  -0.44439  -0.44343  -0.44318
 Alpha  occ. eigenvalues --   -0.44256  -0.43973  -0.43892  -0.43685  -0.43382
 Alpha  occ. eigenvalues --   -0.43339  -0.43135  -0.42902  -0.42857  -0.42666
 Alpha  occ. eigenvalues --   -0.42597  -0.42317  -0.42263  -0.41923  -0.41863
 Alpha  occ. eigenvalues --   -0.41741  -0.41624  -0.41290  -0.41208  -0.41128
 Alpha  occ. eigenvalues --   -0.41046  -0.40932  -0.40805  -0.40466  -0.40201
 Alpha  occ. eigenvalues --   -0.40055  -0.39715  -0.39402  -0.39138  -0.38825
 Alpha  occ. eigenvalues --   -0.38413  -0.38338  -0.37831  -0.37813  -0.37779
 Alpha  occ. eigenvalues --   -0.37530  -0.36752  -0.36740  -0.36573  -0.36315
 Alpha  occ. eigenvalues --   -0.36068  -0.35973  -0.34484  -0.34229  -0.34225
 Alpha  occ. eigenvalues --   -0.34123  -0.33148  -0.33138  -0.31746  -0.31255
 Alpha  occ. eigenvalues --   -0.31243  -0.31093  -0.31014  -0.30841  -0.30168
 Alpha  occ. eigenvalues --   -0.30042  -0.29968  -0.29545  -0.23952  -0.23826
 Alpha  occ. eigenvalues --   -0.21511  -0.21125
 Alpha virt. eigenvalues --   -0.08995  -0.08508  -0.01695  -0.01252   0.00004
 Alpha virt. eigenvalues --    0.00755   0.02314   0.02799   0.02810   0.03463
 Alpha virt. eigenvalues --    0.04526   0.04674   0.05339   0.05422   0.06150

 Mulliken charges:
               1
     1  Mg  12.000005
     2  C    5.999928
     3  C    6.000039
     4  C    6.000052
     5  C    5.999963
     6  N    6.999978
     7  C    6.000062
     8  C    6.000001
     9  C    5.999994
    10  C    5.999946
    11  C    5.999988
    12  C    5.999998
    13  C    6.000003
    14  H    0.999967
    15  N    7.000014
    16  C    5.999914
    17  C    5.999961
    18  C    5.999947
    19  C    5.999941
    20  C    6.000010
    21  C    5.999997
    22  O    7.999940
    23  C    5.999999
    24  N    7.000024
    25  C    5.999940
    26  C    5.999992
    27  C    5.999997
    28  C    6.000048
    29  C    6.000001
    30  C    6.000002
    31  C    6.000016
    32  N    7.000007
    33  C    6.000078
    34  C    6.000060
    35  C    6.000040
    36  C    6.000081
    37  C    5.999999
    38  C    5.999983
    39  O    8.000059
    40  C    6.000001
    41  C    6.000014
    42  O    8.000057
    43  O    7.999983
    44  C    5.999987
    45  H    0.999993
    46  H    0.999976
    47  H    1.000017
    48  H    1.000036
    49  H    0.999980
    50  H    1.000026
    51  H    1.000037
    52  H    1.000031
    53  H    0.999996
    54  H    0.999963
    55  H    0.999979
    56  H    1.000047
    57  H    0.999933
    58  H    0.999994
    59  H    1.000002
    60  H    0.999956
    61  H    0.999966
    62  H    1.000027
    63  H    0.999967
    64  H    1.000025
    65  H    1.000054
    66  H    1.000005
    67  H    0.999978
    68  H    0.999973
    69  H    0.999977
    70  H    0.999985
    71  H    1.000023
    72  H    0.999960
    73  H    0.999992
    74  H    1.000060
    75  H    0.999984
    76  H    0.999980
    77  H    0.999988
    78  H    1.000015
    79  H    1.000061
    80  Mg  12.001810
    81  C    6.026275
    82  C    5.973592
    83  C    5.977907
    84  C    6.016269
    85  N    6.999526
    86  C    5.958166
    87  C    6.019177
    88  C    5.984863
    89  C    6.041184
    90  C    5.997113
    91  C    6.004632
    92  C    6.000661
    93  H    0.993208
    94  N    6.990357
    95  C    6.058159
    96  C    6.008546
    97  C    6.025235
    98  C    6.031311
    99  C    5.998334
   100  C    6.012146
   101  O    8.028065
   102  C    5.997977
   103  N    6.998009
   104  C    6.033575
   105  C    5.988797
   106  C    6.010394
   107  C    5.969085
   108  C    5.997985
   109  C    6.009309
   110  C    5.998985
   111  N    7.007819
   112  C    5.955050
   113  C    5.967532
   114  C    5.997416
   115  C    5.965248
   116  C    6.006550
   117  C    5.985116
   118  O    7.970038
   119  C    6.000912
   120  C    5.995568
   121  O    7.996930
   122  O    7.998723
   123  C    6.001897
   124  H    1.009176
   125  H    1.005676
   126  H    0.991440
   127  H    0.995408
   128  H    1.002491
   129  H    1.000442
   130  H    1.016027
   131  H    1.000295
   132  H    0.987212
   133  H    1.007990
   134  H    0.995348
   135  H    1.003038
   136  H    1.018840
   137  H    1.017194
   138  H    1.017367
   139  H    1.007394
   140  H    1.006497
   141  H    1.014408
   142  H    0.999450
   143  H    0.995984
   144  H    1.011713
   145  H    1.000116
   146  H    0.995456
   147  H    1.000671
   148  H    0.985995
   149  H    1.002588
   150  H    0.993981
   151  H    1.000681
   152  H    0.979778
   153  H    0.978599
   154  H    0.981028
   155  H    0.990937
   156  H    0.996756
   157  H    0.993064
   158  H    0.997505
 Sum of Mulliken charges = 624.00000

 Dipole moment (field-independent basis, Debye):
    X=            -10.0906    Y=              0.2194    Z=             -4.3433  Tot=             10.9878
 Quadrupole moment (field-independent basis, Debye-Ang):
   XX=            482.0917   YY=             -3.0202   ZZ=              0.3050
   XY=            -10.9664   XZ=            104.1508   YZ=             -2.1728

 Normal termination of Gaussian 16 at Tue Sep 21 22:01:28 2021.
