 Gaussian 16, Revision A.03,
 Gaussian 16:  ES64L-G16RevA.03 25-Dec-2016

 ----------------------------------------------------------
 #p cam-b3lyp/Def2SVP td=(nstates=5) density=(transition=1)
 ----------------------------------------------------------

 --------------------------------
 TDDFT excited states in gaussian
 --------------------------------
 Symbolic Z-matrix:
 Charge =  0 Multiplicity = 1

                         Standard orientation:
 ---------------------------------------------------------------------
 Center     Atomic      Atomic             Coordinates (Angstroms)
 Number     Number       Type             X           Y           Z
 ---------------------------------------------------------------------
      1         12           0       -9.551165    0.330174    0.511206
      2          6           0       -8.932732   -2.366591   -1.472476
      3          6           0       -6.799535   -0.606306    2.403502
      4          6           0       -9.934353    3.189976    2.227976
      5          6           0      -11.875105    1.544573   -1.836198
      6          7           0       -7.882097   -1.173655    0.299817
      7          6           0       -7.916839   -2.184811   -0.591098
      8          6           0       -6.711702   -3.049525   -0.518352
      9          6           0       -6.222967   -2.675935    1.015946
     10          6           0       -7.015231   -1.381409    1.295313
     11          6           0       -6.470876   -3.833096    2.028128
     12          6           0       -5.704247   -2.615671   -1.571237
     13          6           0       -5.212567   -1.094812   -1.602447
     14          1           0       -3.752296   -0.762109   -1.882294
     15          7           0       -8.524716    1.179521    2.084898
     16          6           0       -7.485155    0.571140    2.832870
     17          6           0       -7.269377    1.382876    3.983814
     18          6           0       -8.096148    2.499192    3.958616
     19          6           0       -8.944646    2.342226    2.765304
     20          6           0       -6.220266    0.937390    4.982162
     21          6           0       -8.085213    3.674823    4.906243
     22          8           0       -7.234101    3.621359    5.828722
     23          6           0       -8.789016    4.900725    4.730569
     24          7           0      -10.592751    2.207453    0.093869
     25          6           0      -10.633849    3.210703    1.016966
     26          6           0      -11.537678    4.373515    0.541926
     27          6           0      -12.151637    3.806379   -0.782233
     28          6           0      -11.448783    2.464638   -0.901081
     29          6           0      -12.563967    4.799925    1.569769
     30          6           0      -11.881414    4.806094   -2.029265
     31          6           0      -13.082517    4.974674   -2.966767
     32          7           0      -10.336804   -0.246460   -1.348841
     33          6           0      -11.388683    0.205338   -2.079641
     34          6           0      -11.703267   -0.819730   -3.037319
     35          6           0      -10.799658   -1.923017   -2.853627
     36          6           0       -9.975828   -1.495519   -1.825523
     37          6           0      -12.616092   -0.656334   -4.204075
     38          6           0      -10.322695   -3.190470   -3.305415
     39          8           0      -10.835971   -3.846214   -4.220787
     40          6           0       -9.140701   -3.529567   -2.416161
     41          6           0       -9.422580   -4.811025   -1.724639
     42          8           0       -9.665879   -5.800929   -2.386352
     43          8           0       -9.291463   -4.765945   -0.370255
     44          6           0       -9.544664   -6.031178    0.321835
     45          1           0       -6.125766   -1.040447    3.144973
     46          1           0      -10.205529    3.987037    2.923152
     47          1           0      -12.707231    1.765400   -2.508429
     48          1           0       -6.838245   -4.122610   -0.662148
     49          1           0       -5.136062   -2.601678    1.069986
     50          1           0       -5.530273   -4.131896    2.489377
     51          1           0       -6.841827   -4.681032    1.451755
     52          1           0       -7.207351   -3.612114    2.801794
     53          1           0       -6.094886   -2.938693   -2.536422
     54          1           0       -4.908264   -3.348314   -1.438558
     55          1           0       -5.383313   -0.523560   -0.689872
     56          1           0       -5.768466   -0.704586   -2.454476
     57          1           0       -5.275049    1.320962    4.597597
     58          1           0       -6.170634   -0.150760    4.979200
     59          1           0       -6.363312    1.261933    6.013283
     60          1           0       -8.259839    5.740216    5.182592
     61          1           0       -9.841599    4.844324    5.011017
     62          1           0       -8.698715    5.118627    3.667260
     63          1           0      -10.822104    5.168621    0.329599
     64          1           0      -13.204396    3.574350   -0.622265
     65          1           0      -12.457520    4.305185    2.534804
     66          1           0      -13.625641    4.838240    1.327378
     67          1           0      -12.225749    5.802111    1.834693
     68          1           0      -11.047636    4.505136   -2.663655
     69          1           0      -11.553277    5.791794   -1.699862
     70          1           0      -13.497207    5.969571   -2.806839
     71          1           0      -13.859588    4.277895   -2.651785
     72          1           0      -12.822578    4.852128   -4.018316
     73          1           0      -13.682812   -0.569594   -4.001010
     74          1           0      -12.420396   -1.520388   -4.840185
     75          1           0      -12.396962    0.247236   -4.773076
     76          1           0       -8.288728   -3.661518   -3.083758
     77          1           0       -8.858416   -6.774847   -0.084300
     78          1           0      -10.585489   -6.351649    0.273475
     79          1           0       -9.449247   -5.904701    1.400160
     80         12           0        9.709504    0.550036   -0.149861
     81          6           0        8.374313   -2.400112    0.835334
     82          6           0        6.521910    1.791996   -0.751129
     83          6           0       11.045596    3.498556   -1.141101
     84          6           0       12.877523   -0.839337   -0.022016
     85          7           0        7.769006   -0.213645    0.141367
     86          6           0        7.407570   -1.464129    0.524828
     87          6           0        5.926560   -1.584509    0.772859
     88          6           0        5.332181   -0.343361    0.004892
     89          6           0        6.639669    0.491598   -0.192783
     90          6           0        4.462544   -0.552330   -1.304621
     91          6           0        5.576698   -1.484952    2.325740
     92          6           0        4.226139   -2.175298    2.678225
     93          1           0        3.091131   -2.312289    1.649568
     94          7           0        8.926954    2.408188   -0.939331
     95          6           0        7.542944    2.688135   -1.085412
     96          6           0        7.376238    4.023110   -1.575664
     97          6           0        8.706454    4.556664   -1.719882
     98          6           0        9.612981    3.455359   -1.234866
     99          6           0        6.063379    4.695112   -1.777015
    100          6           0        9.148333    5.931013   -2.210073
    101          8           0       10.343873    6.290963   -2.419600
    102          6           0        8.098795    6.988752   -2.506487
    103          7           0       11.657431    1.218676   -0.594380
    104          6           0       11.993611    2.556167   -0.809494
    105          6           0       13.508905    2.876264   -0.658860
    106          6           0       14.036840    1.392433   -0.237783
    107          6           0       12.824503    0.535224   -0.249223
    108          6           0       14.048978    3.385758   -2.001314
    109          6           0       14.813888    1.353227    1.045021
    110          6           0       16.183984    0.755656    0.897704
    111          7           0       10.540835   -1.192111    0.172936
    112          6           0       11.846173   -1.664006    0.233580
    113          6           0       11.853658   -3.036302    0.582428
    114          6           0       10.505636   -3.429943    0.798146
    115          6           0        9.738900   -2.255613    0.644515
    116          6           0       13.006288   -3.948284    0.760330
    117          6           0        9.628067   -4.553486    1.043008
    118          8           0        9.782281   -5.750672    1.185918
    119          6           0        8.191079   -3.852277    1.142516
    120          6           0        7.122238   -4.657738    0.495983
    121          8           0        7.189656   -5.222518   -0.565758
    122          8           0        6.007952   -4.754665    1.237725
    123          6           0        4.913745   -5.545317    0.605590
    124          1           0        5.501613    2.018343   -1.068098
    125          1           0       11.460970    4.404368   -1.587480
    126          1           0       13.842002   -1.320739    0.152165
    127          1           0        5.488337   -2.445028    0.267599
    128          1           0        4.737770    0.239231    0.707980
    129          1           0        4.318207   -1.625748   -1.427819
    130          1           0        4.843322   -0.136774   -2.236239
    131          1           0        3.523494   -0.024057   -1.138564
    132          1           0        5.582824   -0.414526    2.532039
    133          1           0        6.386902   -1.971130    2.869295
    134          1           0        3.883577   -1.586525    3.529363
    135          1           0        4.484980   -3.141816    3.109787
    136          1           0        5.608127    5.124637   -0.884572
    137          1           0        5.423192    3.941302   -2.233591
    138          1           0        6.072644    5.419606   -2.590798
    139          1           0        7.747766    6.783776   -3.517741
    140          1           0        8.644247    7.932097   -2.497566
    141          1           0        7.247533    6.973648   -1.825651
    142          1           0       13.572632    3.688943    0.064836
    143          1           0       14.715713    1.036537   -1.013483
    144          1           0       13.367640    3.309336   -2.848943
    145          1           0       15.028095    2.941318   -2.178349
    146          1           0       14.178183    4.461374   -1.877655
    147          1           0       14.347872    0.734041    1.811645
    148          1           0       14.938488    2.320667    1.531637
    149          1           0       16.966822    1.362363    1.351967
    150          1           0       16.452238    0.631075   -0.151065
    151          1           0       16.076144   -0.254221    1.294544
    152          1           0       13.880241   -3.742300    0.141652
    153          1           0       12.669205   -4.867670    0.280709
    154          1           0       13.272322   -4.011327    1.815540
    155          1           0        8.073453   -3.962132    2.220960
    156          1           0        5.089858   -6.619567    0.676968
    157          1           0        4.677764   -5.186556   -0.396400
    158          1           0        3.997246   -5.363156    1.167327
 ---------------------------------------------------------------------

 SCF Done:  E(RCAM-B3LYP) =  -4069.81222010     A.U. after   17 cycles

 Excitation energies and oscillator strengths:

 Excited State   1:      Singlet-A      1.6462 eV  753.16 nm  f=0.3890  <S**2>=0.000
     310 -> 316       -0.16993
     312 -> 314        0.68901
     310 <- 316       -0.10745
 This state for optimization and/or second-order correction.
 Total Energy, E(TD-HF/TD-DFT) =  -4069.75172394
 Copying the excited state density for this state as the 1-particle RhoCI density.

 Excited State   2:      Singlet-A      1.7414 eV  712.00 nm  f=0.3896  <S**2>=0.000
     309 -> 315       -0.17705
     311 -> 313        0.68515
     309 <- 315       -0.10400

 Excited State   3:      Singlet-A      2.2171 eV  559.22 nm  f=0.1280  <S**2>=0.000
     309 -> 313        0.64107
     310 -> 314       -0.10951
     311 -> 315        0.24961

 Excited State   4:      Singlet-A      2.2273 eV  556.65 nm  f=0.1166  <S**2>=0.000
     309 -> 313        0.10999
     310 -> 314        0.62869
     312 -> 316        0.28774

 Excited State   5:      Singlet-A      2.6930 eV  460.40 nm  f=0.0000  <S**2>=0.000
     312 -> 313        0.70697

 The electronic state is 1-A.
 Alpha  occ. eigenvalues --  -46.89290 -46.87148 -19.26549 -19.25198 -19.19632
 Alpha  occ. eigenvalues --  -19.19229 -19.18781 -19.18491 -19.18444 -19.18345
 Alpha  occ. eigenvalues --  -14.42856 -14.42258 -14.42249 -14.41684 -14.39972
 Alpha  occ. eigenvalues --  -14.39524 -14.38784 -14.38759 -10.39624 -10.38613
 Alpha  occ. eigenvalues --  -10.35220 -10.35153 -10.35019 -10.34615 -10.32889
 Alpha  occ. eigenvalues --  -10.32090 -10.31850 -10.31393 -10.31376 -10.31358
 Alpha  occ. eigenvalues --  -10.30955 -10.30726 -10.30695 -10.30568 -10.30481
 Alpha  occ. eigenvalues --  -10.30403 -10.30113 -10.29854 -10.29392 -10.29381
 Alpha  occ. eigenvalues --  -10.29319 -10.28948 -10.28852 -10.28742 -10.28731
 Alpha  occ. eigenvalues --  -10.28619 -10.28555 -10.28535 -10.28460 -10.28389
 Alpha  occ. eigenvalues --  -10.28256 -10.28233 -10.28140 -10.28047 -10.27911
 Alpha  occ. eigenvalues --  -10.27882 -10.27878 -10.27796 -10.27656 -10.27581
 Alpha  occ. eigenvalues --  -10.27549 -10.27534 -10.27509 -10.27473 -10.27471
 Alpha  occ. eigenvalues --  -10.27468 -10.27358 -10.27191 -10.27150 -10.26949
 Alpha  occ. eigenvalues --  -10.26820 -10.26695 -10.26643 -10.26543 -10.25996
 Alpha  occ. eigenvalues --  -10.25838 -10.25759 -10.25758 -10.25752 -10.25602
 Alpha  occ. eigenvalues --  -10.25471 -10.25384 -10.25237 -10.25125 -10.25116
 Alpha  occ. eigenvalues --  -10.24727  -3.17742  -3.16006  -1.92619  -1.92218
 Alpha  occ. eigenvalues --   -1.92025  -1.90897  -1.90441  -1.90352  -1.17573
 Alpha  occ. eigenvalues --   -1.17335  -1.10147  -1.09212  -1.08581  -1.08153
 Alpha  occ. eigenvalues --   -1.07404  -1.07281  -1.05174  -1.04719  -1.04528
 Alpha  occ. eigenvalues --   -1.03570  -1.02911  -1.02718  -1.01697  -1.01410
 Alpha  occ. eigenvalues --   -0.94248  -0.93379  -0.89715  -0.89467  -0.89209
 Alpha  occ. eigenvalues --   -0.88950  -0.88811  -0.88602  -0.87983  -0.87681
 Alpha  occ. eigenvalues --   -0.87225  -0.86511  -0.86416  -0.86022  -0.85278
 Alpha  occ. eigenvalues --   -0.84336  -0.84291  -0.83828  -0.83536  -0.82988
 Alpha  occ. eigenvalues --   -0.82493  -0.81666  -0.81640  -0.81082  -0.81071
 Alpha  occ. eigenvalues --   -0.80509  -0.78791  -0.78357  -0.78175  -0.77783
 Alpha  occ. eigenvalues --   -0.77376  -0.77220  -0.76546  -0.76380  -0.75221
 Alpha  occ. eigenvalues --   -0.75146  -0.72888  -0.72695  -0.72309  -0.71853
 Alpha  occ. eigenvalues --   -0.70365  -0.69288  -0.69101  -0.69015  -0.68689
 Alpha  occ. eigenvalues --   -0.68214  -0.67313  -0.66725  -0.66709  -0.65869
 Alpha  occ. eigenvalues --   -0.65526  -0.65400  -0.65362  -0.64781  -0.64578
 Alpha  occ. eigenvalues --   -0.64089  -0.64001  -0.62360  -0.60420  -0.60324
 Alpha  occ. eigenvalues --   -0.59946  -0.59924  -0.59517  -0.59001  -0.58978
 Alpha  occ. eigenvalues --   -0.58573  -0.58379  -0.58198  -0.58013  -0.57716
 Alpha  occ. eigenvalues --   -0.57015  -0.56764  -0.56092  -0.55989  -0.55529
 Alpha  occ. eigenvalues --   -0.55336  -0.55199  -0.54980  -0.54698  -0.54421
 Alpha  occ. eigenvalues --   -0.53954  -0.53928  -0.53664  -0.53358  -0.53249
 Alpha  occ. eigenvalues --   -0.53006  -0.52898  -0.52675  -0.52576  -0.52434
 Alpha  occ. eigenvalues --   -0.52156  -0.52065  -0.51984  -0.51983  -0.51640
 Alpha  occ. eigenvalues --   -0.51317  -0.51250  -0.51158  -0.51084  -0.50522
 Alpha  occ. eigenvalues --   -0.50314  -0.50112  -0.49977  -0.49789  -0.49644
 Alpha  occ. eigenvalues --   -0.49621  -0.49296  -0.49010  -0.48941  -0.48890
 Alpha  occ. eigenvalues --   -0.48848  -0.48650  -0.48393  -0.48359  -0.48238
 Alpha  occ. eigenvalues --   -0.48001  -0.47810  -0.47769  -0.47337  -0.47278
 Alpha  occ. eigenvalues --   -0.47218  -0.46896  -0.46720  -0.46619  -0.46608
 Alpha  occ. eigenvalues --   -0.46584  -0.46367  -0.46237  -0.45932  -0.45903
 Alpha  occ. eigenvalues --   -0.45816  -0.45436  -0.45207  -0.45047  -0.44916
 Alpha  occ. eigenvalues --   -0.44833  -0.44788  -0.44780  -0.44722  -0.44556
 Alpha  occ. eigenvalues --   -0.44057  -0.43924  -0.43900  -0.43721  -0.43526
 Alpha  occ. eigenvalues --   -0.43287  -0.43182  -0.43003  -0.42612  -0.42473
 Alpha  occ. eigenvalues --   -0.42419  -0.42412  -0.42353  -0.42081  -0.42078
 Alpha  occ. eigenvalues --   -0.41957  -0.41950  -0.41474  -0.41432  -0.41364
 Alpha  occ. eigenvalues --   -0.41163  -0.40980  -0.40907  -0.40656  -0.40499
 Alpha  occ. eigenvalues --   -0.40447  -0.40403  -0.40051  -0.39686  -0.39362
 Alpha  occ. eigenvalues --   -0.38888  -0.38274  -0.38034  -0.37979  -0.37874
 Alpha  occ. eigenvalues --   -0.37712  -0.37624  -0.37202  -0.37071  -0.37043
 Alpha  occ. eigenvalues --   -0.36634  -0.36173  -0.34862  -0.34600  -0.34175
 Alpha  occ. eigenvalues --   -0.34145  -0.33353  -0.33281  -0.31963  -0.31541
 Alpha  occ. eigenvalues --   -0.31062  -0.30739  -0.30711  -0.30608  -0.30285
 Alpha  occ. eigenvalues --   -0.29950  -0.29579  -0.29161  -0.24478  -0.24317
 Alpha  occ. eigenvalues --   -0.21847  -0.21039
 Alpha virt. eigenvalues --   -0.09322  -0.08967  -0.02063  -0.01623  -0.00029
 Alpha virt. eigenvalues --    0.00110   0.01176   0.01838   0.02161   0.03159
 Alpha virt. eigenvalues --    0.04714   0.04801   0.05296   0.05462   0.05847

 Mulliken charges:
               1
     1  Mg  12.000017
     2  C    6.000074
     3  C    5.999938
     4  C    5.999847
     5  C    6.000410
     6  N    7.000096
     7  C    5.999597
     8  C    6.000266
     9  C    5.999831
    10  C    6.000637
    11  C    6.000089
    12  C    6.000282
    13  C    5.999246
    14  H    1.001833
    15  N    6.999822
    16  C    6.001046
    17  C    6.000395
    18  C    6.000296
    19  C    6.000868
    20  C    5.999906
    21  C    6.000372
    22  O    8.000500
    23  C    5.999677
    24  N    7.000159
    25  C    6.000658
    26  C    5.999775
    27  C    6.000128
    28  C    5.999536
    29  C    5.999970
    30  C    5.999982
    31  C    6.000046
    32  N    7.000117
    33  C    5.999288
    34  C    5.999338
    35  C    5.999756
    36  C    5.999581
    37  C    6.000100
    38  C    5.999641
    39  O    7.999109
    40  C    6.000031
    41  C    5.999825
    42  O    7.999612
    43  O    8.000167
    44  C    6.000259
    45  H    1.000001
    46  H    1.000167
    47  H    0.999787
    48  H    0.999463
    49  H    1.000239
    50  H    0.999528
    51  H    0.999881
    52  H    0.999753
    53  H    0.999938
    54  H    0.999345
    55  H    0.999891
    56  H    1.000217
    57  H    1.001152
    58  H    0.999857
    59  H    1.000043
    60  H    1.000540
    61  H    0.999897
    62  H    1.000513
    63  H    1.000418
    64  H    0.999770
    65  H    0.999748
    66  H    0.999978
    67  H    1.000156
    68  H    1.000378
    69  H    1.000061
    70  H    0.999843
    71  H    0.999777
    72  H    1.000116
    73  H    0.999281
    74  H    0.999592
    75  H    0.999676
    76  H    0.999860
    77  H    0.999591
    78  H    0.999764
    79  H    0.999659
    80  Mg  12.004672
    81  C    5.973703
    82  C    6.009346
    83  C    6.035864
    84  C    6.009655
    85  N    6.986818
    86  C    6.036142
    87  C    5.987003
    88  C    6.010819
    89  C    5.963662
    90  C    6.005260
    91  C    5.997009
    92  C    5.999796
    93  H    1.006816
    94  N    7.007051
    95  C    5.950811
    96  C    5.987768
    97  C    5.974974
    98  C    5.963697
    99  C    6.004821
   100  C    5.986964
   101  O    7.961284
   102  C    6.005807
   103  N    7.021132
   104  C    5.961763
   105  C    6.010923
   106  C    5.986996
   107  C    6.018821
   108  C    6.000284
   109  C    5.993133
   110  C    5.999662
   111  N    6.994733
   112  C    6.025608
   113  C    6.035971
   114  C    6.001964
   115  C    6.035615
   116  C    5.995014
   117  C    6.012884
   118  O    8.025260
   119  C    6.004345
   120  C    6.002948
   121  O    8.002423
   122  O    8.002091
   123  C    5.997815
   124  H    0.984376
   125  H    1.002296
   126  H    1.016002
   127  H    0.999771
   128  H    0.995907
   129  H    0.983480
   130  H    1.000685
   131  H    0.996369
   132  H    1.012884
   133  H    0.992195
   134  H    1.002716
   135  H    0.995456
   136  H    0.979549
   137  H    0.985461
   138  H    0.984121
   139  H    0.989141
   140  H    0.984205
   141  H    0.992657
   142  H    1.003328
   143  H    1.004575
   144  H    1.004928
   145  H    0.991019
   146  H    1.004925
   147  H    0.997698
   148  H    1.013769
   149  H    1.007732
   150  H    1.004253
   151  H    0.995328
   152  H    1.019228
   153  H    1.017710
   154  H    1.023837
   155  H    1.003945
   156  H    1.000625
   157  H    1.005443
   158  H    1.005260
 Sum of Mulliken charges = 624.00000

 Dipole moment (field-independent basis, Debye):
    X=              5.6350    Y=             -9.0871    Z=              3.2078  Tot=             11.1633
 Quadrupole moment (field-independent basis, Debye-Ang):
   XX=            107.0102   YY=            -12.6367   ZZ=             -3.1060
   XY=            -86.5472   XZ=             25.1369   YZ=              7.8735

 Normal termination of Gaussian 16 at Wed Sep 22 19:14:26 2021.
