 Gaussian 16, Revision A.03,
 Gaussian 16:  ES64L-G16RevA.03 25-Dec-2016

 -----------------------------------
 #p cam-b3lyp/Def2SVP td=(nstates=5)
 -----------------------------------

 --------------------------------
 TDDFT excited states in gaussian
 --------------------------------
 Symbolic Z-matrix:
 Charge =  0 Multiplicity = 1

                         Standard orientation:
 ---------------------------------------------------------------------
 Center     Atomic      Atomic             Coordinates (Angstroms)
 Number     Number       Type             X           Y           Z
 ---------------------------------------------------------------------
      1         12           0        8.801051    0.668006   -0.178717
      2          6           0        6.547264   -1.467460   -2.082707
      3          6           0        7.126228    3.359167   -1.498640
      4          6           0        9.718418    2.452963    2.496125
      5          6           0       10.430011   -2.105035    0.918129
      6          7           0        6.885438    0.877156   -1.495414
      7          6           0        6.182880   -0.151153   -2.221308
      8          6           0        5.215359    0.498913   -3.214331
      9          6           0        5.672843    1.985739   -3.284362
     10          6           0        6.643887    2.147507   -2.033443
     11          6           0        6.441052    2.358078   -4.639688
     12          6           0        3.749993    0.245673   -3.011999
     13          6           0        3.300825   -0.283962   -1.629674
     14          1           0        1.855937   -0.549157   -1.168777
     15          7           0        8.580194    2.704071    0.357050
     16          6           0        7.830449    3.640257   -0.320165
     17          6           0        8.030845    4.965095    0.345686
     18          6           0        8.675368    4.646962    1.538394
     19          6           0        8.993234    3.221274    1.569251
     20          6           0        7.459562    6.208554   -0.237933
     21          6           0        8.989319    5.669558    2.669060
     22          8           0        8.569671    6.805979    2.540500
     23          6           0        9.637580    5.324765    3.968792
     24          7           0        9.795067    0.127105    1.534285
     25          6           0       10.167785    1.133287    2.424835
     26          6           0       11.131926    0.598319    3.483668
     27          6           0       11.618602   -0.755646    2.851060
     28          6           0       10.617757   -0.908973    1.703570
     29          6           0       12.320922    1.492107    3.920843
     30          6           0       11.671567   -1.985136    3.813668
     31          6           0       13.129531   -2.464845    4.254737
     32          7           0        8.634651   -1.387226   -0.546302
     33          6           0        9.452063   -2.400796   -0.067678
     34          6           0        9.125417   -3.629749   -0.748224
     35          6           0        7.965251   -3.285998   -1.455345
     36          6           0        7.740466   -1.895421   -1.303543
     37          6           0        9.849724   -4.963707   -0.497312
     38          6           0        6.959775   -3.761521   -2.355402
     39          8           0        6.890540   -4.922539   -2.806683
     40          6           0        6.052487   -2.590290   -2.940381
     41          6           0        4.668391   -3.053195   -2.716491
     42          8           0        4.200346   -3.501021   -1.664402
     43          8           0        3.980667   -2.773066   -3.850528
     44          6           0        2.592002   -3.324207   -3.937346
     45          1           0        6.581352    4.212843   -1.905895
     46          1           0       10.022064    3.052801    3.356921
     47          1           0       11.053392   -2.956950    1.196250
     48          1           0        5.564856   -0.021529   -4.106044
     49          1           0        4.873186    2.688632   -3.050048
     50          1           0        5.754283    3.045740   -5.131621
     51          1           0        6.650985    1.446384   -5.199527
     52          1           0        7.340824    2.889610   -4.327838
     53          1           0        3.438426   -0.390954   -3.839889
     54          1           0        3.345216    1.240128   -3.202887
     55          1           0        3.732086    0.416966   -0.914264
     56          1           0        3.743414   -1.264697   -1.454246
     57          1           0        6.664556    6.517329    0.440205
     58          1           0        7.086650    5.975125   -1.234747
     59          1           0        8.252196    6.947744   -0.359014
     60          1           0        9.105425    4.661739    4.649866
     61          1           0        9.755904    6.189130    4.621564
     62          1           0       10.609261    4.977887    3.617484
     63          1           0       10.400106    0.487433    4.284658
     64          1           0       12.592818   -0.519635    2.422348
     65          1           0       12.150666    2.012175    4.864067
     66          1           0       12.469215    2.284247    3.187691
     67          1           0       13.211884    0.863450    3.937312
     68          1           0       11.151050   -2.868142    3.441856
     69          1           0       11.078388   -1.669273    4.671938
     70          1           0       12.993310   -2.639681    5.321671
     71          1           0       13.925033   -1.739938    4.081486
     72          1           0       13.379725   -3.320405    3.628437
     73          1           0        9.868698   -5.649992   -1.344213
     74          1           0        9.222866   -5.388814    0.285795
     75          1           0       10.911217   -4.788652   -0.323502
     76          1           0        6.292736   -2.442751   -3.994315
     77          1           0        2.146040   -3.025572   -4.886680
     78          1           0        1.961125   -2.931600   -3.139652
     79          1           0        2.771599   -4.396081   -3.866947
     80         12           0       -8.767800   -0.045257   -0.028470
     81          6           0       -6.017476   -2.170703    0.265340
     82          6           0       -7.099571    1.815958   -2.226143
     83          6           0      -10.844778    2.546774    0.779389
     84          6           0      -10.453993   -1.996433    2.313737
     85          7           0       -6.816865   -0.264729   -1.017465
     86          6           0       -5.908550   -1.195038   -0.749737
     87          6           0       -4.719646   -1.055134   -1.767912
     88          6           0       -5.045823    0.286621   -2.466502
     89          6           0       -6.394012    0.673842   -1.866221
     90          6           0       -4.024255    1.476759   -2.108029
     91          6           0       -4.577790   -2.249751   -2.816767
     92          6           0       -3.157701   -2.645447   -3.035123
     93          1           0       -2.616343   -2.742303   -4.453147
     94          7           0       -8.947076    1.898155   -0.667376
     95          6           0       -8.161043    2.491529   -1.619351
     96          6           0       -8.799547    3.747174   -2.037931
     97          6           0       -9.893211    3.948890   -1.150391
     98          6           0       -9.888132    2.777715   -0.258133
     99          6           0       -8.219621    4.668237   -3.158363
    100          6           0      -10.858310    5.168890   -1.055587
    101          8           0      -11.783381    5.254215   -0.255703
    102          6           0      -10.662092    6.285475   -2.010045
    103          7           0      -10.342006    0.252307    1.321552
    104          6           0      -11.045336    1.437867    1.555009
    105          6           0      -11.953633    1.265503    2.800483
    106          6           0      -12.243824   -0.299255    2.812778
    107          6           0      -10.924683   -0.684628    2.085132
    108          6           0      -11.340256    1.856141    4.088218
    109          6           0      -13.447035   -0.781108    2.053113
    110          6           0      -13.415797   -0.920609    0.560070
    111          7           0       -8.478117   -1.842068    0.947843
    112          6           0       -9.215739   -2.506423    1.900310
    113          6           0       -8.557747   -3.737601    2.343702
    114          6           0       -7.203992   -3.611393    1.792061
    115          6           0       -7.238633   -2.423186    0.963056
    116          6           0       -9.058463   -4.678850    3.314978
    117          6           0       -5.868049   -4.193333    1.748283
    118          8           0       -5.376943   -5.096271    2.314984
    119          6           0       -5.060623   -3.299603    0.669653
    120          6           0       -3.695229   -2.854385    1.129040
    121          8           0       -3.449735   -1.793863    1.696227
    122          8           0       -2.757847   -3.800192    0.715019
    123          6           0       -1.342064   -3.543139    1.035306
    124          1           0       -6.793813    2.434728   -3.072791
    125          1           0      -11.460415    3.422534    0.996752
    126          1           0      -11.075560   -2.609844    2.968798
    127          1           0       -3.761584   -0.920715   -1.265147
    128          1           0       -5.058242    0.273730   -3.556340
    129          1           0       -3.247620    1.464050   -2.873006
    130          1           0       -3.489237    1.364259   -1.165407
    131          1           0       -4.574006    2.416841   -2.167140
    132          1           0       -4.989809   -1.982965   -3.790134
    133          1           0       -5.127652   -3.158470   -2.571447
    134          1           0       -3.132321   -3.672833   -2.672925
    135          1           0       -2.386322   -2.104625   -2.487583
    136          1           0       -7.547624    5.359780   -2.650917
    137          1           0       -9.011243    5.152882   -3.730321
    138          1           0       -7.482691    4.180577   -3.797389
    139          1           0       -9.667501    6.643842   -2.275029
    140          1           0      -11.195280    7.167345   -1.655782
    141          1           0      -11.287722    6.118975   -2.887417
    142          1           0      -12.864947    1.793462    2.521124
    143          1           0      -12.320446   -0.698269    3.824065
    144          1           0      -11.267607    1.187445    4.945951
    145          1           0      -11.740517    2.834791    4.354000
    146          1           0      -10.300578    2.130222    3.910068
    147          1           0      -14.345493   -0.186500    2.213904
    148          1           0      -13.705313   -1.767805    2.437859
    149          1           0      -13.169655   -1.974737    0.433544
    150          1           0      -12.641178   -0.352821    0.044159
    151          1           0      -14.401629   -0.686749    0.156847
    152          1           0       -8.722566   -5.659006    2.976012
    153          1           0      -10.146428   -4.638296    3.268357
    154          1           0       -8.643308   -4.461701    4.298655
    155          1           0       -4.912487   -3.924911   -0.210783
    156          1           0       -1.290242   -3.350316    2.107204
    157          1           0       -0.985479   -2.648046    0.526320
    158          1           0       -0.590984   -4.297304    0.799747
 ---------------------------------------------------------------------

 SCF Done:  E(RCAM-B3LYP) =  -4069.78358374     A.U. after   19 cycles

 Excitation energies and oscillator strengths:

 Excited State   1:      Singlet-A      1.6552 eV  749.06 nm  f=0.2351  <S**2>=0.000
     309 -> 315        0.15343
     311 -> 313        0.67755
     312 -> 314        0.13392
 This state for optimization and/or second-order correction.
 Total Energy, E(TD-HF/TD-DFT) =  -4069.72275661
 Copying the excited state density for this state as the 1-particle RhoCI density.

 Excited State   2:      Singlet-A      1.6831 eV  736.64 nm  f=0.4794  <S**2>=0.000
     310 -> 316        0.17396
     311 -> 313       -0.13428
     312 -> 314        0.67331
     310 <- 316        0.10648

 Excited State   3:      Singlet-A      2.2557 eV  549.66 nm  f=0.1170  <S**2>=0.000
     310 -> 314        0.62982
     312 -> 316       -0.30407

 Excited State   4:      Singlet-A      2.2775 eV  544.40 nm  f=0.0722  <S**2>=0.000
     309 -> 313        0.61587
     311 -> 315       -0.32423

 Excited State   5:      Singlet-A      2.7279 eV  454.50 nm  f=0.0000  <S**2>=0.000
     312 -> 313        0.70699

 The electronic state is 1-A.
 Alpha  occ. eigenvalues --  -46.89395 -46.87828 -19.25561 -19.24684 -19.19830
 Alpha  occ. eigenvalues --  -19.19630 -19.19538 -19.19134 -19.19109 -19.17182
 Alpha  occ. eigenvalues --  -14.42551 -14.42104 -14.41647 -14.41334 -14.39812
 Alpha  occ. eigenvalues --  -14.39185 -14.39137 -14.38835 -10.39425 -10.39332
 Alpha  occ. eigenvalues --  -10.35576 -10.35560 -10.35370 -10.33647 -10.32343
 Alpha  occ. eigenvalues --  -10.32043 -10.31735 -10.31292 -10.31243 -10.31082
 Alpha  occ. eigenvalues --  -10.30960 -10.30905 -10.30617 -10.30504 -10.30497
 Alpha  occ. eigenvalues --  -10.29908 -10.29789 -10.29662 -10.29373 -10.29290
 Alpha  occ. eigenvalues --  -10.29092 -10.28916 -10.28850 -10.28691 -10.28575
 Alpha  occ. eigenvalues --  -10.28575 -10.28566 -10.28451 -10.28328 -10.28219
 Alpha  occ. eigenvalues --  -10.28209 -10.28110 -10.28012 -10.27975 -10.27839
 Alpha  occ. eigenvalues --  -10.27833 -10.27793 -10.27751 -10.27696 -10.27586
 Alpha  occ. eigenvalues --  -10.27481 -10.27478 -10.27379 -10.27317 -10.27215
 Alpha  occ. eigenvalues --  -10.27211 -10.27019 -10.26991 -10.26971 -10.26858
 Alpha  occ. eigenvalues --  -10.26830 -10.26618 -10.26427 -10.26332 -10.26152
 Alpha  occ. eigenvalues --  -10.26104 -10.26032 -10.25981 -10.25948 -10.25857
 Alpha  occ. eigenvalues --  -10.25756 -10.25496 -10.25458 -10.25285 -10.24479
 Alpha  occ. eigenvalues --  -10.24071  -3.17883  -3.16531  -1.92755  -1.92360
 Alpha  occ. eigenvalues --   -1.92165  -1.91435  -1.90962  -1.90858  -1.16283
 Alpha  occ. eigenvalues --   -1.14850  -1.12787  -1.10742  -1.10088  -1.07647
 Alpha  occ. eigenvalues --   -1.07154  -1.06826  -1.05091  -1.04925  -1.04107
 Alpha  occ. eigenvalues --   -1.03489  -1.02908  -1.02775  -1.02044  -1.00465
 Alpha  occ. eigenvalues --   -0.92055  -0.91744  -0.89415  -0.89076  -0.88951
 Alpha  occ. eigenvalues --   -0.88734  -0.88576  -0.87928  -0.87085  -0.86905
 Alpha  occ. eigenvalues --   -0.86811  -0.86738  -0.86225  -0.86169  -0.84482
 Alpha  occ. eigenvalues --   -0.84106  -0.83802  -0.83485  -0.82811  -0.82447
 Alpha  occ. eigenvalues --   -0.82414  -0.81798  -0.81097  -0.80855  -0.80276
 Alpha  occ. eigenvalues --   -0.80198  -0.78163  -0.78103  -0.77825  -0.77160
 Alpha  occ. eigenvalues --   -0.76624  -0.76604  -0.76116  -0.75670  -0.75371
 Alpha  occ. eigenvalues --   -0.74768  -0.73125  -0.72149  -0.71782  -0.71364
 Alpha  occ. eigenvalues --   -0.69696  -0.69153  -0.69145  -0.68382  -0.67740
 Alpha  occ. eigenvalues --   -0.67701  -0.67001  -0.66691  -0.66254  -0.65609
 Alpha  occ. eigenvalues --   -0.65470  -0.64776  -0.64516  -0.64077  -0.63999
 Alpha  occ. eigenvalues --   -0.63663  -0.62271  -0.61589  -0.60061  -0.59700
 Alpha  occ. eigenvalues --   -0.59503  -0.59214  -0.59144  -0.58756  -0.58177
 Alpha  occ. eigenvalues --   -0.58010  -0.57627  -0.57585  -0.57294  -0.57063
 Alpha  occ. eigenvalues --   -0.56866  -0.56450  -0.55713  -0.55378  -0.55312
 Alpha  occ. eigenvalues --   -0.55207  -0.54741  -0.54658  -0.54376  -0.53866
 Alpha  occ. eigenvalues --   -0.53808  -0.53515  -0.53392  -0.53260  -0.52912
 Alpha  occ. eigenvalues --   -0.52839  -0.52662  -0.52411  -0.52390  -0.52038
 Alpha  occ. eigenvalues --   -0.51968  -0.51693  -0.51539  -0.51465  -0.51298
 Alpha  occ. eigenvalues --   -0.51277  -0.51144  -0.51116  -0.50776  -0.50330
 Alpha  occ. eigenvalues --   -0.50049  -0.50041  -0.49922  -0.49787  -0.49593
 Alpha  occ. eigenvalues --   -0.49449  -0.49415  -0.49062  -0.49026  -0.48909
 Alpha  occ. eigenvalues --   -0.48515  -0.48509  -0.48223  -0.48201  -0.47868
 Alpha  occ. eigenvalues --   -0.47841  -0.47694  -0.47677  -0.47239  -0.47014
 Alpha  occ. eigenvalues --   -0.46883  -0.46867  -0.46648  -0.46641  -0.46529
 Alpha  occ. eigenvalues --   -0.46352  -0.46211  -0.45991  -0.45799  -0.45641
 Alpha  occ. eigenvalues --   -0.45559  -0.45420  -0.45291  -0.45115  -0.44992
 Alpha  occ. eigenvalues --   -0.44860  -0.44530  -0.44516  -0.44299  -0.44108
 Alpha  occ. eigenvalues --   -0.44062  -0.44038  -0.43636  -0.43579  -0.43509
 Alpha  occ. eigenvalues --   -0.43240  -0.43155  -0.42919  -0.42837  -0.42717
 Alpha  occ. eigenvalues --   -0.42640  -0.42590  -0.42362  -0.42214  -0.42043
 Alpha  occ. eigenvalues --   -0.41874  -0.41801  -0.41470  -0.41319  -0.41292
 Alpha  occ. eigenvalues --   -0.41143  -0.40997  -0.40883  -0.40409  -0.40150
 Alpha  occ. eigenvalues --   -0.40008  -0.39477  -0.39147  -0.39052  -0.38671
 Alpha  occ. eigenvalues --   -0.38622  -0.37989  -0.37588  -0.37498  -0.37216
 Alpha  occ. eigenvalues --   -0.36937  -0.36812  -0.36460  -0.36454  -0.36261
 Alpha  occ. eigenvalues --   -0.36034  -0.35844  -0.34573  -0.34229  -0.34182
 Alpha  occ. eigenvalues --   -0.33929  -0.32785  -0.32705  -0.31616  -0.31334
 Alpha  occ. eigenvalues --   -0.31231  -0.31088  -0.30900  -0.30188  -0.29936
 Alpha  occ. eigenvalues --   -0.29525  -0.29453  -0.29342  -0.24550  -0.23888
 Alpha  occ. eigenvalues --   -0.20842  -0.20690
 Alpha virt. eigenvalues --   -0.08671  -0.08367  -0.01877  -0.01289   0.00495
 Alpha virt. eigenvalues --    0.00837   0.01386   0.02408   0.02522   0.02869
 Alpha virt. eigenvalues --    0.04664   0.04753   0.05138   0.05343   0.05640

 Mulliken charges:
               1
     1  Mg   0.820531
     2  C   -0.030862
     3  C   -0.063575
     4  C   -0.070832
     5  C   -0.075443
     6  N   -0.309266
     7  C   -0.098883
     8  C    0.032207
     9  C   -0.089176
    10  C    0.018090
    11  C    0.083218
    12  C    0.077516
    13  C   -0.045090
    14  H    0.014957
    15  N   -0.391737
    16  C    0.125597
    17  C   -0.145222
    18  C   -0.034310
    19  C    0.143087
    20  C    0.154337
    21  C   -0.013323
    22  O   -0.197882
    23  C    0.066532
    24  N   -0.314517
    25  C    0.069940
    26  C   -0.079050
    27  C    0.038552
    28  C   -0.001155
    29  C    0.080863
    30  C    0.022718
    31  C   -0.006872
    32  N   -0.284715
    33  C    0.084162
    34  C   -0.172477
    35  C    0.043201
    36  C    0.082380
    37  C    0.114760
    38  C    0.002843
    39  O   -0.216319
    40  C    0.045199
    41  C    0.198160
    42  O   -0.233436
    43  O   -0.338945
    44  C    0.181089
    45  H   -0.019488
    46  H   -0.063393
    47  H   -0.033186
    48  H    0.001666
    49  H    0.014661
    50  H    0.026001
    51  H    0.029051
    52  H    0.020293
    53  H    0.006724
    54  H   -0.008019
    55  H    0.025856
    56  H    0.048212
    57  H    0.049881
    58  H   -0.000829
    59  H    0.036391
    60  H    0.055223
    61  H    0.021424
    62  H    0.037831
    63  H    0.026178
    64  H    0.005668
    65  H    0.019229
    66  H    0.015414
    67  H    0.020986
    68  H    0.021194
    69  H    0.000205
    70  H    0.029608
    71  H    0.015119
    72  H    0.025970
    73  H    0.027840
    74  H    0.049222
    75  H    0.019128
    76  H    0.043939
    77  H    0.042068
    78  H    0.048130
    79  H    0.055195
    80  Mg   0.845182
    81  C    0.027792
    82  C   -0.076917
    83  C   -0.074955
    84  C   -0.103218
    85  N   -0.243880
    86  C   -0.032128
    87  C    0.000615
    88  C   -0.076797
    89  C    0.082340
    90  C    0.038933
    91  C    0.069873
    92  C   -0.092263
    93  H    0.004816
    94  N   -0.370738
    95  C    0.094308
    96  C   -0.139959
    97  C   -0.062123
    98  C    0.101574
    99  C    0.093751
   100  C    0.038948
   101  O   -0.200872
   102  C    0.042024
   103  N   -0.293904
   104  C    0.034345
   105  C    0.001903
   106  C   -0.010264
   107  C    0.025492
   108  C    0.092684
   109  C    0.017598
   110  C    0.022138
   111  N   -0.363120
   112  C    0.154102
   113  C   -0.162564
   114  C   -0.039621
   115  C    0.088571
   116  C    0.123003
   117  C    0.056559
   118  O   -0.101389
   119  C   -0.071303
   120  C    0.218658
   121  O   -0.220157
   122  O   -0.352742
   123  C    0.184744
   124  H   -0.037264
   125  H   -0.006642
   126  H   -0.034658
   127  H    0.021445
   128  H    0.016833
   129  H    0.007678
   130  H    0.030742
   131  H    0.016855
   132  H    0.013535
   133  H    0.013571
   134  H    0.032934
   135  H    0.030874
   136  H    0.034706
   137  H    0.041966
   138  H    0.008748
   139  H    0.037957
   140  H    0.011863
   141  H    0.038562
   142  H   -0.003919
   143  H   -0.004020
   144  H    0.017221
   145  H    0.021640
   146  H    0.010667
   147  H    0.001142
   148  H   -0.002101
   149  H    0.005392
   150  H    0.031922
   151  H    0.016020
   152  H    0.033584
   153  H    0.015105
   154  H    0.051412
   155  H    0.046434
   156  H    0.036884
   157  H    0.023252
   158  H    0.048378
 Sum of Mulliken charges =  -0.00000

 Dipole moment (field-independent basis, Debye):
    X=              3.5403    Y=              3.6646    Z=             -3.0798  Tot=              5.9538
 Quadrupole moment (field-independent basis, Debye-Ang):
   XX=           -421.2183   YY=           -563.2227   ZZ=           -479.1318
   XY=             23.9997   XZ=             36.5784   YZ=            -23.5740

 Normal termination of Gaussian 16 at Tue Aug 31 17:12:06 2021.
