 Gaussian 16, Revision A.03,
 Gaussian 16:  ES64L-G16RevA.03 25-Dec-2016

 ----------------------------------------------------------
 #p cam-b3lyp/Def2SVP td=(nstates=5) density=(transition=1)
 ----------------------------------------------------------

 --------------------------------
 TDDFT excited states in gaussian
 --------------------------------
 Symbolic Z-matrix:
 Charge =  0 Multiplicity = 1

                         Standard orientation:
 ---------------------------------------------------------------------
 Center     Atomic      Atomic             Coordinates (Angstroms)
 Number     Number       Type             X           Y           Z
 ---------------------------------------------------------------------
      1         12           0      -31.385050    0.446605    0.436735
      2          6           0      -28.761847   -1.883069    0.232712
      3          6           0      -29.127278    2.941143   -0.271709
      4          6           0      -33.984249    2.421807   -0.100193
      5          6           0      -33.649532   -2.250466    0.901243
      6          7           0      -29.274383    0.475376   -0.214387
      7          6           0      -28.361716   -0.610896   -0.226891
      8          6           0      -26.955276   -0.175809   -0.278358
      9          6           0      -27.095221    1.406359   -0.341319
     10          6           0      -28.593172    1.644579   -0.234202
     11          6           0      -26.193201    2.124321    0.691594
     12          6           0      -26.210585   -0.607340   -1.504793
     13          6           0      -26.997387   -0.616475   -2.823892
     14          1           0      -26.312364   -0.231965   -4.192864
     15          7           0      -31.572820    2.449747   -0.082479
     16          6           0      -30.530271    3.294276   -0.198769
     17          6           0      -31.043697    4.630696   -0.367111
     18          6           0      -32.452017    4.532533   -0.248597
     19          6           0      -32.749997    3.098593   -0.103424
     20          6           0      -30.225325    5.862491   -0.646778
     21          6           0      -33.433030    5.704104   -0.280834
     22          8           0      -33.041992    6.845478   -0.428550
     23          6           0      -34.931525    5.639232   -0.259909
     24          7           0      -33.492339    0.097272    0.149779
     25          6           0      -34.391311    1.117053   -0.015304
     26          6           0      -35.858882    0.630683    0.221709
     27          6           0      -35.690515   -0.918913    0.227895
     28          6           0      -34.200118   -1.041794    0.457725
     29          6           0      -36.517023    1.116134    1.535825
     30          6           0      -35.944762   -1.659823   -1.168823
     31          6           0      -36.792745   -2.879468   -1.136658
     32          7           0      -31.291593   -1.562694    0.647977
     33          6           0      -32.236273   -2.442518    1.006733
     34          6           0      -31.595215   -3.705934    1.533709
     35          6           0      -30.208455   -3.463797    1.275425
     36          6           0      -30.094078   -2.213110    0.605072
     37          6           0      -32.220359   -4.954659    2.138809
     38          6           0      -28.927139   -4.108681    1.283350
     39          8           0      -28.605725   -5.234333    1.629972
     40          6           0      -27.926284   -3.075243    0.625340
     41          6           0      -27.462615   -3.682627   -0.682411
     42          8           0      -28.103755   -3.869387   -1.663252
     43          8           0      -26.102889   -3.892150   -0.593134
     44          6           0      -25.469434   -4.206211   -1.877823
     45          1           0      -28.384281    3.740712   -0.298593
     46          1           0      -34.850028    3.086113   -0.098279
     47          1           0      -34.394242   -2.999407    1.178597
     48          1           0      -26.455339   -0.572051    0.605465
     49          1           0      -26.920323    1.863887   -1.315010
     50          1           0      -25.729496    2.878534    0.055546
     51          1           0      -25.498285    1.378805    1.078282
     52          1           0      -26.759479    2.638964    1.468105
     53          1           0      -25.626174   -1.517864   -1.369822
     54          1           0      -25.367160    0.028983   -1.773701
     55          1           0      -27.851001    0.037405   -2.642141
     56          1           0      -27.389104   -1.633589   -2.845020
     57          1           0      -30.665700    6.450532   -1.452681
     58          1           0      -29.189589    5.582519   -0.838663
     59          1           0      -30.279574    6.430211    0.282429
     60          1           0      -35.392965    5.177565   -1.132264
     61          1           0      -35.185514    6.694082   -0.365292
     62          1           0      -35.336486    5.374584    0.717440
     63          1           0      -36.465532    0.994636   -0.607417
     64          1           0      -36.244703   -1.411949    1.026995
     65          1           0      -36.654513    0.256686    2.191738
     66          1           0      -37.360612    1.779389    1.345337
     67          1           0      -35.813887    1.768111    2.052879
     68          1           0      -35.003166   -1.890321   -1.666656
     69          1           0      -36.439766   -0.901643   -1.775888
     70          1           0      -37.650591   -2.820102   -1.806171
     71          1           0      -37.144470   -3.139270   -0.137946
     72          1           0      -36.250048   -3.758188   -1.484079
     73          1           0      -31.910406   -5.788651    1.509114
     74          1           0      -33.283945   -4.758233    2.279601
     75          1           0      -31.704759   -5.105648    3.087121
     76          1           0      -27.088256   -2.836526    1.279805
     77          1           0      -25.978597   -3.750536   -2.726955
     78          1           0      -25.536428   -5.292819   -1.932531
     79          1           0      -24.409415   -3.992610   -1.743287
     80         12           0       31.549211   -0.170311    0.256254
     81          6           0       28.176475    0.846154    0.135675
     82          6           0       30.471454   -3.295475   -0.306269
     83          6           0       34.712225   -0.903698   -0.115365
     84          6           0       32.367656    3.306027    0.131008
     85          7           0       29.539610   -1.086212   -0.092865
     86          6           0       28.301468   -0.541791   -0.026904
     87          6           0       27.183364   -1.550532   -0.195071
     88          6           0       28.002992   -2.895610   -0.053983
     89          6           0       29.445994   -2.449347   -0.167219
     90          6           0       27.738090   -3.701431    1.284232
     91          6           0       26.248171   -1.559694   -1.482013
     92          6           0       26.634428   -0.787428   -2.771402
     93          1           0       26.203998   -1.401386   -4.155798
     94          7           0       32.444394   -1.953990   -0.031095
     95          6           0       31.859950   -3.101798   -0.347290
     96          6           0       32.911169   -4.108780   -0.657280
     97          6           0       34.205061   -3.405922   -0.427093
     98          6           0       33.806141   -2.018299   -0.189830
     99          6           0       32.633079   -5.564560   -0.918557
    100          6           0       35.575389   -4.015154   -0.568793
    101          8           0       35.663917   -5.214015   -0.822183
    102          6           0       36.936380   -3.230673   -0.482622
    103          7           0       33.363327    1.070476   -0.082187
    104          6           0       34.480345    0.431832   -0.022800
    105          6           0       35.647608    1.515943    0.013724
    106          6           0       34.843601    2.806340   -0.158382
    107          6           0       33.392470    2.379765   -0.048031
    108          6           0       36.608406    1.542194    1.214119
    109          6           0       34.980923    3.464549   -1.627604
    110          6           0       35.700383    4.823541   -1.706165
    111          7           0       30.564037    1.704928    0.091334
    112          6           0       30.995819    3.002193    0.176144
    113          6           0       29.849190    3.923012    0.389187
    114          6           0       28.674368    3.130407    0.254024
    115          6           0       29.214132    1.773559    0.186578
    116          6           0       29.896576    5.463746    0.494130
    117          6           0       27.250842    3.088747    0.208595
    118          8           0       26.359181    3.951647    0.136054
    119          6           0       26.852606    1.590872    0.206557
    120          6           0       25.985094    1.361817    1.447634
    121          8           0       24.804970    1.186986    1.597191
    122          8           0       26.843876    1.163892    2.534298
    123          6           0       26.227594    0.803241    3.848823
    124          1           0       30.092526   -4.301718   -0.497903
    125          1           0       35.758794   -1.204867   -0.204782
    126          1           0       32.643826    4.338138    0.355087
    127          1           0       26.578359   -1.439771    0.704637
    128          1           0       27.727094   -3.570323   -0.864511
    129          1           0       27.055628   -3.158348    1.937136
    130          1           0       28.708708   -3.629275    1.773717
    131          1           0       27.408969   -4.712694    1.044514
    132          1           0       25.266982   -1.213630   -1.156778
    133          1           0       26.071881   -2.593834   -1.779882
    134          1           0       27.721885   -0.714880   -2.753334
    135          1           0       26.128312    0.171489   -2.878553
    136          1           0       33.523226   -6.190397   -0.858339
    137          1           0       32.079078   -5.605675   -1.857119
    138          1           0       31.881433   -5.819266   -0.170666
    139          1           0       37.164055   -2.588993    0.369396
    140          1           0       36.972427   -2.529544   -1.316426
    141          1           0       37.796883   -3.897459   -0.529569
    142          1           0       36.350185    1.371605   -0.806346
    143          1           0       35.045741    3.645776    0.507802
    144          1           0       36.381853    0.754352    1.932683
    145          1           0       36.626800    2.520983    1.694597
    146          1           0       37.645119    1.339986    0.944959
    147          1           0       34.007278    3.646024   -2.080717
    148          1           0       35.507942    2.723176   -2.228590
    149          1           0       35.341123    5.501350   -2.480906
    150          1           0       36.730461    4.584115   -1.970056
    151          1           0       35.541713    5.246520   -0.714116
    152          1           0       30.840102    5.918220    0.193729
    153          1           0       29.734076    5.659117    1.553810
    154          1           0       29.032782    5.865960   -0.034619
    155          1           0       26.272034    1.373549   -0.689388
    156          1           0       25.228920    1.175572    4.076067
    157          1           0       26.884508    1.289178    4.569986
    158          1           0       26.225815   -0.243682    4.152904
 ---------------------------------------------------------------------

 SCF Done:  E(RCAM-B3LYP) =  -4069.78418957     A.U. after   18 cycles

 Excitation energies and oscillator strengths:

 Excited State   1:      Singlet-A      1.6651 eV  744.61 nm  f=0.3735  <S**2>=0.000
     310 -> 316        0.17251
     312 -> 314        0.68783
     310 <- 316        0.10780
 This state for optimization and/or second-order correction.
 Total Energy, E(TD-HF/TD-DFT) =  -4069.72299882
 Copying the excited state density for this state as the 1-particle RhoCI density.

 Excited State   2:      Singlet-A      1.7690 eV  700.87 nm  f=0.4105  <S**2>=0.000
     309 -> 315       -0.18509
     311 -> 313        0.68379
     309 <- 315       -0.10633

 Excited State   3:      Singlet-A      2.2662 eV  547.11 nm  f=0.1018  <S**2>=0.000
     310 -> 314        0.62924
     312 -> 316       -0.31013

 Excited State   4:      Singlet-A      2.2834 eV  542.99 nm  f=0.0985  <S**2>=0.000
     309 -> 313        0.63711
     311 -> 315        0.29627

 Excited State   5:      Singlet-A      3.1459 eV  394.11 nm  f=0.0000  <S**2>=0.000
     312 -> 313        0.70711

 The electronic state is 1-A.
 Alpha  occ. eigenvalues --  -46.90084 -46.88574 -19.24613 -19.24598 -19.20430
 Alpha  occ. eigenvalues --  -19.20421 -19.19481 -19.19118 -19.18615 -19.18243
 Alpha  occ. eigenvalues --  -14.42369 -14.42331 -14.41880 -14.41856 -14.40451
 Alpha  occ. eigenvalues --  -14.40179 -14.39588 -14.39527 -10.39895 -10.39238
 Alpha  occ. eigenvalues --  -10.35705 -10.35621 -10.34986 -10.34599 -10.31882
 Alpha  occ. eigenvalues --  -10.31537 -10.31430 -10.31203 -10.31138 -10.31042
 Alpha  occ. eigenvalues --  -10.30940 -10.30811 -10.30786 -10.30745 -10.30651
 Alpha  occ. eigenvalues --  -10.30576 -10.30462 -10.30191 -10.30124 -10.30116
 Alpha  occ. eigenvalues --  -10.29943 -10.29882 -10.29420 -10.29311 -10.28984
 Alpha  occ. eigenvalues --  -10.28812 -10.28770 -10.28709 -10.28511 -10.28500
 Alpha  occ. eigenvalues --  -10.28328 -10.28282 -10.28118 -10.28042 -10.28035
 Alpha  occ. eigenvalues --  -10.27925 -10.27836 -10.27814 -10.27738 -10.27639
 Alpha  occ. eigenvalues --  -10.27578 -10.27429 -10.27389 -10.27261 -10.27199
 Alpha  occ. eigenvalues --  -10.27105 -10.27035 -10.26850 -10.26745 -10.26615
 Alpha  occ. eigenvalues --  -10.26600 -10.26583 -10.26557 -10.26502 -10.26481
 Alpha  occ. eigenvalues --  -10.26393 -10.26385 -10.26359 -10.26192 -10.25995
 Alpha  occ. eigenvalues --  -10.25804 -10.25506 -10.25484 -10.25394 -10.25365
 Alpha  occ. eigenvalues --  -10.25123  -3.18562  -3.17219  -1.93450  -1.93016
 Alpha  occ. eigenvalues --   -1.92865  -1.92081  -1.91679  -1.91538  -1.17259
 Alpha  occ. eigenvalues --   -1.16074  -1.10403  -1.09945  -1.09585  -1.09344
 Alpha  occ. eigenvalues --   -1.08955  -1.07294  -1.06761  -1.04841  -1.04577
 Alpha  occ. eigenvalues --   -1.04028  -1.03988  -1.03332  -1.03319  -1.02622
 Alpha  occ. eigenvalues --   -0.93600  -0.93177  -0.89862  -0.89823  -0.89425
 Alpha  occ. eigenvalues --   -0.88840  -0.88631  -0.88382  -0.88318  -0.87520
 Alpha  occ. eigenvalues --   -0.86919  -0.86329  -0.85800  -0.85427  -0.84908
 Alpha  occ. eigenvalues --   -0.84739  -0.84164  -0.83974  -0.82919  -0.82708
 Alpha  occ. eigenvalues --   -0.81810  -0.81685  -0.80870  -0.80826  -0.80562
 Alpha  occ. eigenvalues --   -0.80509  -0.78535  -0.77942  -0.77727  -0.77502
 Alpha  occ. eigenvalues --   -0.77046  -0.76842  -0.76707  -0.76041  -0.75387
 Alpha  occ. eigenvalues --   -0.75130  -0.73337  -0.72698  -0.72415  -0.71686
 Alpha  occ. eigenvalues --   -0.69625  -0.69584  -0.69285  -0.68804  -0.68709
 Alpha  occ. eigenvalues --   -0.68679  -0.67545  -0.67080  -0.66874  -0.65861
 Alpha  occ. eigenvalues --   -0.65713  -0.65530  -0.65075  -0.64892  -0.64533
 Alpha  occ. eigenvalues --   -0.64374  -0.63181  -0.62095  -0.60621  -0.60218
 Alpha  occ. eigenvalues --   -0.60001  -0.59483  -0.59410  -0.59061  -0.58936
 Alpha  occ. eigenvalues --   -0.58570  -0.58132  -0.58105  -0.57375  -0.57329
 Alpha  occ. eigenvalues --   -0.56556  -0.56389  -0.56099  -0.55893  -0.55713
 Alpha  occ. eigenvalues --   -0.55413  -0.55095  -0.55091  -0.54599  -0.54548
 Alpha  occ. eigenvalues --   -0.54068  -0.53965  -0.53629  -0.53037  -0.53027
 Alpha  occ. eigenvalues --   -0.52848  -0.52842  -0.52368  -0.52278  -0.52120
 Alpha  occ. eigenvalues --   -0.52036  -0.51785  -0.51613  -0.51553  -0.51417
 Alpha  occ. eigenvalues --   -0.51265  -0.51156  -0.51129  -0.50924  -0.50635
 Alpha  occ. eigenvalues --   -0.50128  -0.50034  -0.49817  -0.49600  -0.49506
 Alpha  occ. eigenvalues --   -0.49399  -0.49247  -0.49045  -0.48932  -0.48894
 Alpha  occ. eigenvalues --   -0.48763  -0.48594  -0.48572  -0.48532  -0.48359
 Alpha  occ. eigenvalues --   -0.48310  -0.47917  -0.47650  -0.47550  -0.47453
 Alpha  occ. eigenvalues --   -0.47254  -0.47191  -0.47101  -0.46951  -0.46899
 Alpha  occ. eigenvalues --   -0.46776  -0.46664  -0.46372  -0.46296  -0.46105
 Alpha  occ. eigenvalues --   -0.45999  -0.45920  -0.45876  -0.45546  -0.45498
 Alpha  occ. eigenvalues --   -0.45376  -0.45222  -0.44888  -0.44670  -0.44367
 Alpha  occ. eigenvalues --   -0.44226  -0.44043  -0.43935  -0.43898  -0.43598
 Alpha  occ. eigenvalues --   -0.43595  -0.43312  -0.43226  -0.43142  -0.42799
 Alpha  occ. eigenvalues --   -0.42696  -0.42517  -0.42375  -0.42271  -0.42193
 Alpha  occ. eigenvalues --   -0.42121  -0.42090  -0.42028  -0.41896  -0.41483
 Alpha  occ. eigenvalues --   -0.41265  -0.41113  -0.40939  -0.40767  -0.40701
 Alpha  occ. eigenvalues --   -0.40394  -0.39986  -0.39818  -0.39253  -0.39149
 Alpha  occ. eigenvalues --   -0.38870  -0.38449  -0.38225  -0.37874  -0.37676
 Alpha  occ. eigenvalues --   -0.37327  -0.37032  -0.36912  -0.36680  -0.36437
 Alpha  occ. eigenvalues --   -0.36338  -0.35759  -0.35098  -0.35030  -0.34281
 Alpha  occ. eigenvalues --   -0.34223  -0.33662  -0.33019  -0.31926  -0.31430
 Alpha  occ. eigenvalues --   -0.31373  -0.31096  -0.31063  -0.30981  -0.30532
 Alpha  occ. eigenvalues --   -0.29898  -0.29648  -0.29286  -0.24509  -0.24304
 Alpha  occ. eigenvalues --   -0.21549  -0.21042
 Alpha virt. eigenvalues --   -0.08929  -0.08774  -0.02048  -0.01783  -0.00634
 Alpha virt. eigenvalues --    0.00223   0.01171   0.01385   0.01853   0.02529
 Alpha virt. eigenvalues --    0.04289   0.04952   0.05059   0.05424   0.05435

 Mulliken charges:
               1
     1  Mg  12.002039
     2  C    6.035102
     3  C    5.983995
     4  C    5.971340
     5  C    6.013508
     6  N    7.006057
     7  C    5.954629
     8  C    6.015835
     9  C    5.990555
    10  C    6.031922
    11  C    5.997785
    12  C    6.004117
    13  C    6.006984
    14  H    0.990221
    15  N    6.987145
    16  C    6.049380
    17  C    6.022332
    18  C    6.005663
    19  C    6.051737
    20  C    5.995167
    21  C    6.010747
    22  O    8.019359
    23  C    5.995485
    24  N    6.996634
    25  C    6.036753
    26  C    5.992930
    27  C    6.005634
    28  C    5.975078
    29  C    6.000076
    30  C    6.008501
    31  C    6.000163
    32  N    7.005131
    33  C    5.957597
    34  C    5.960096
    35  C    6.004848
    36  C    5.954845
    37  C    6.002756
    38  C    5.986099
    39  O    7.973816
    40  C    5.997423
    41  C    5.997178
    42  O    7.996485
    43  O    7.997938
    44  C    6.001781
    45  H    1.012693
    46  H    1.007693
    47  H    0.988121
    48  H    0.997421
    49  H    0.997878
    50  H    1.000232
    51  H    1.013541
    52  H    0.997846
    53  H    1.003058
    54  H    0.990078
    55  H    0.989483
    56  H    1.007018
    57  H    1.018212
    58  H    1.019746
    59  H    1.019717
    60  H    1.011149
    61  H    1.011689
    62  H    1.011821
    63  H    1.000166
    64  H    1.000132
    65  H    1.013642
    66  H    1.000473
    67  H    0.995195
    68  H    1.000867
    69  H    0.984631
    70  H    0.994273
    71  H    0.999474
    72  H    1.003311
    73  H    0.979493
    74  H    0.980319
    75  H    0.979021
    76  H    0.989863
    77  H    0.995895
    78  H    0.998488
    79  H    0.994496
    80  Mg  12.000010
    81  C    6.000015
    82  C    6.000022
    83  C    5.999979
    84  C    5.999969
    85  N    6.999973
    86  C    5.999972
    87  C    6.000014
    88  C    5.999989
    89  C    6.000010
    90  C    5.999995
    91  C    5.999996
    92  C    6.000007
    93  H    0.999994
    94  N    6.999990
    95  C    6.000009
    96  C    6.000022
    97  C    5.999990
    98  C    6.000041
    99  C    6.000000
   100  C    6.000018
   101  O    8.000022
   102  C    6.000000
   103  N    7.000011
   104  C    6.000031
   105  C    5.999985
   106  C    6.000004
   107  C    5.999993
   108  C    6.000002
   109  C    6.000014
   110  C    5.999998
   111  N    6.999997
   112  C    6.000004
   113  C    5.999950
   114  C    6.000032
   115  C    5.999985
   116  C    5.999992
   117  C    5.999966
   118  O    7.999963
   119  C    5.999993
   120  C    6.000000
   121  O    7.999997
   122  O    8.000001
   123  C    6.000006
   124  H    1.000025
   125  H    1.000008
   126  H    0.999980
   127  H    1.000006
   128  H    1.000012
   129  H    1.000022
   130  H    0.999994
   131  H    1.000020
   132  H    1.000006
   133  H    1.000002
   134  H    0.999992
   135  H    0.999996
   136  H    1.000029
   137  H    1.000034
   138  H    1.000037
   139  H    1.000011
   140  H    1.000006
   141  H    1.000019
   142  H    0.999997
   143  H    0.999992
   144  H    1.000003
   145  H    1.000003
   146  H    0.999996
   147  H    1.000002
   148  H    0.999985
   149  H    0.999987
   150  H    0.999990
   151  H    0.999998
   152  H    0.999966
   153  H    0.999972
   154  H    0.999971
   155  H    0.999988
   156  H    0.999995
   157  H    0.999991
   158  H    1.000003
 Sum of Mulliken charges = 624.00000

 Dipole moment (field-independent basis, Debye):
    X=             -1.0332    Y=             10.7089    Z=             -1.5935  Tot=             10.8760
 Quadrupole moment (field-independent basis, Debye-Ang):
   XX=             63.6730   YY=             10.1195   ZZ=             -3.5653
   XY=           -336.6208   XZ=             50.8348   YZ=              4.7064

 Normal termination of Gaussian 16 at Tue Sep 21 20:36:25 2021.
