 Gaussian 16, Revision A.03,
 Gaussian 16:  ES64L-G16RevA.03 25-Dec-2016

 ----------------------------------------------------------
 #p cam-b3lyp/Def2SVP td=(nstates=5) density=(transition=1)
 ----------------------------------------------------------

 --------------------------------
 TDDFT excited states in gaussian
 --------------------------------
 Symbolic Z-matrix:
 Charge =  0 Multiplicity = 1

                         Standard orientation:
 ---------------------------------------------------------------------
 Center     Atomic      Atomic             Coordinates (Angstroms)
 Number     Number       Type             X           Y           Z
 ---------------------------------------------------------------------
      1         12           0       25.113658   -0.774374    0.041088
      2          6           0       26.738831    2.306140   -0.579555
      3          6           0       23.406610    0.722467    2.640535
      4          6           0       23.793246   -3.801700    0.798341
      5          6           0       27.026770   -2.301468   -2.468372
      6          7           0       25.224348    1.257514    0.913550
      7          6           0       25.781391    2.415572    0.376292
      8          6           0       25.364211    3.697296    1.207291
      9          6           0       24.537695    3.071694    2.362283
     10          6           0       24.404859    1.573993    2.006408
     11          6           0       25.067654    3.248074    3.834413
     12          6           0       24.716281    4.891891    0.394377
     13          6           0       25.459062    6.191565    0.468462
     14          1           0       24.570451    7.497326    0.511464
     15          7           0       23.822724   -1.382922    1.501278
     16          6           0       23.157658   -0.632742    2.449784
     17          6           0       22.332854   -1.508251    3.267634
     18          6           0       22.407293   -2.840403    2.771019
     19          6           0       23.364044   -2.725618    1.609484
     20          6           0       21.390519   -1.012367    4.382879
     21          6           0       21.684812   -4.102904    3.229944
     22          8           0       21.767986   -5.173157    2.663362
     23          6           0       20.655813   -4.152956    4.432708
     24          7           0       25.454696   -2.808413   -0.679960
     25          6           0       24.791318   -3.856647   -0.209834
     26          6           0       25.176715   -5.182110   -0.958653
     27          6           0       26.077974   -4.652067   -2.143143
     28          6           0       26.189797   -3.141843   -1.774358
     29          6           0       25.790068   -6.239014    0.004779
     30          6           0       25.480579   -4.964813   -3.500804
     31          6           0       26.499850   -5.435227   -4.536915
     32          7           0       26.692981   -0.252936   -1.213167
     33          6           0       27.307654   -0.934040   -2.246332
     34          6           0       28.320666   -0.075639   -2.778745
     35          6           0       28.131096    1.209941   -2.213880
     36          6           0       27.110577    1.075122   -1.231669
     37          6           0       29.319973   -0.442141   -3.809494
     38          6           0       28.550905    2.620537   -2.282279
     39          8           0       29.462404    3.191401   -2.874038
     40          6           0       27.536366    3.415031   -1.151285
     41          6           0       28.337008    4.088243   -0.176785
     42          8           0       28.508598    3.703954    0.959723
     43          8           0       28.778157    5.299814   -0.658917
     44          6           0       29.661604    6.009743    0.299323
     45          1           0       22.756204    1.181527    3.388244
     46          1           0       23.437397   -4.807583    1.028527
     47          1           0       27.514526   -2.833606   -3.288543
     48          1           0       26.282440    3.994091    1.712969
     49          1           0       23.524840    3.474458    2.372032
     50          1           0       24.193832    3.441901    4.457262
     51          1           0       25.775776    4.076245    3.848423
     52          1           0       25.578967    2.373091    4.236229
     53          1           0       23.695200    4.982666    0.765112
     54          1           0       24.716397    4.592716   -0.653901
     55          1           0       26.102806    6.296882   -0.405798
     56          1           0       26.064697    6.084827    1.367972
     57          1           0       20.386204   -1.209545    4.009631
     58          1           0       21.448046    0.075018    4.437203
     59          1           0       21.496545   -1.505456    5.349970
     60          1           0       19.865897   -3.429689    4.227326
     61          1           0       21.144210   -4.151956    5.407615
     62          1           0       20.323851   -5.190393    4.459721
     63          1           0       24.330026   -5.671262   -1.439846
     64          1           0       27.061388   -5.096319   -1.988137
     65          1           0       26.726042   -6.593644   -0.427771
     66          1           0       25.103400   -7.048729    0.252949
     67          1           0       26.024078   -5.770349    0.959248
     68          1           0       24.932368   -4.118627   -3.913673
     69          1           0       24.688974   -5.715426   -3.479527
     70          1           0       27.521333   -5.301869   -4.180554
     71          1           0       26.361836   -4.796753   -5.409952
     72          1           0       26.295984   -6.444841   -4.893943
     73          1           0       29.298664   -1.464137   -4.187748
     74          1           0       30.271537   -0.036166   -3.464146
     75          1           0       28.928526    0.044062   -4.703390
     76          1           0       26.915924    4.138733   -1.680643
     77          1           0       30.536439    5.397374    0.518998
     78          1           0       29.036959    6.254706    1.158302
     79          1           0       30.063086    6.939397   -0.102095
     80         12           0      -26.116053   -0.313738   -0.174823
     81          6           0      -24.534033    2.691135   -0.908595
     82          6           0      -26.473056    0.794308    3.052859
     83          6           0      -27.452357   -3.391224    0.636517
     84          6           0      -25.226831   -1.596982   -3.291415
     85          7           0      -25.644477    1.573511    0.893410
     86          6           0      -25.108689    2.699546    0.392204
     87          6           0      -25.107029    3.905190    1.360733
     88          6           0      -25.521350    3.198545    2.721930
     89          6           0      -25.879165    1.714644    2.230719
     90          6           0      -24.326213    3.299019    3.735598
     91          6           0      -26.186429    4.965454    0.797719
     92          6           0      -25.680540    6.421003    0.573994
     93          1           0      -24.383622    6.779913    1.385739
     94          7           0      -26.801100   -1.243648    1.580918
     95          6           0      -26.941672   -0.559900    2.806246
     96          6           0      -27.698265   -1.391760    3.717563
     97          6           0      -27.944991   -2.609308    3.070707
     98          6           0      -27.460203   -2.439744    1.650918
     99          6           0      -27.826351   -1.030953    5.204368
    100          6           0      -28.623029   -3.879371    3.649585
    101          8           0      -28.821252   -4.935813    3.020900
    102          6           0      -29.166133   -3.820401    5.087706
    103          7           0      -26.217067   -2.225749   -1.199024
    104          6           0      -26.901719   -3.334492   -0.614587
    105          6           0      -26.741642   -4.589642   -1.497645
    106          6           0      -26.275616   -3.919843   -2.873569
    107          6           0      -25.922096   -2.471622   -2.444515
    108          6           0      -25.791127   -5.565658   -0.824110
    109          6           0      -27.447319   -3.913637   -3.943674
    110          6           0      -28.889617   -3.351194   -3.702797
    111          7           0      -25.042601    0.323976   -1.746480
    112          6           0      -24.731505   -0.294791   -2.961172
    113          6           0      -23.978812    0.611760   -3.766004
    114          6           0      -23.910908    1.789580   -3.043927
    115          6           0      -24.479013    1.555385   -1.767310
    116          6           0      -23.332090    0.333234   -5.107474
    117          6           0      -23.435878    3.115641   -3.083126
    118          8           0      -22.766111    3.615309   -3.930020
    119          6           0      -23.722853    3.712762   -1.643493
    120          6           0      -22.376810    3.935086   -1.011095
    121          8           0      -21.914637    3.234444   -0.134972
    122          8           0      -21.817955    4.988556   -1.618468
    123          6           0      -20.387310    5.044432   -1.443082
    124          1           0      -26.664670    1.167468    4.060832
    125          1           0      -27.651313   -4.409301    0.975722
    126          1           0      -24.930561   -1.988057   -4.267522
    127          1           0      -24.157355    4.433811    1.440806
    128          1           0      -26.420520    3.598785    3.190897
    129          1           0      -24.115780    2.386853    4.294467
    130          1           0      -24.719031    4.091119    4.372443
    131          1           0      -23.482895    3.714612    3.184571
    132          1           0      -27.065764    4.896919    1.437824
    133          1           0      -26.526309    4.580274   -0.163957
    134          1           0      -26.543922    6.992088    0.913638
    135          1           0      -25.483206    6.685616   -0.464401
    136          1           0      -27.432688   -1.874762    5.771604
    137          1           0      -28.882378   -0.957078    5.467539
    138          1           0      -27.296399   -0.100813    5.407174
    139          1           0      -28.300435   -3.836557    5.751122
    140          1           0      -29.673231   -4.771898    5.246850
    141          1           0      -29.933327   -3.049541    5.156183
    142          1           0      -27.759063   -4.954032   -1.642644
    143          1           0      -25.494847   -4.524972   -3.332934
    144          1           0      -25.797530   -5.488450    0.263257
    145          1           0      -24.769392   -5.404071   -1.166931
    146          1           0      -26.091613   -6.594803   -1.019678
    147          1           0      -27.544345   -4.928081   -4.330570
    148          1           0      -27.062392   -3.237604   -4.707202
    149          1           0      -29.502165   -4.151498   -3.287344
    150          1           0      -29.253822   -3.062787   -4.689534
    151          1           0      -28.955125   -2.423751   -3.132989
    152          1           0      -24.060463    0.041654   -5.864362
    153          1           0      -22.667227   -0.505961   -4.904017
    154          1           0      -22.883368    1.194646   -5.604150
    155          1           0      -24.239277    4.671001   -1.584262
    156          1           0      -19.856812    5.499838   -2.278981
    157          1           0      -19.819448    4.183487   -1.090653
    158          1           0      -20.076481    5.689880   -0.621284
 ---------------------------------------------------------------------

 SCF Done:  E(RCAM-B3LYP) =  -4069.81488357     A.U. after   19 cycles

 Excitation energies and oscillator strengths:

 Excited State   1:      Singlet-A      1.7042 eV  727.50 nm  f=0.3894  <S**2>=0.000
     310 -> 316        0.17575
     312 -> 313        0.68647
     310 <- 316        0.10653
 This state for optimization and/or second-order correction.
 Total Energy, E(TD-HF/TD-DFT) =  -4069.75225369
 Copying the excited state density for this state as the 1-particle RhoCI density.

 Excited State   2:      Singlet-A      1.7837 eV  695.09 nm  f=0.3733  <S**2>=0.000
     309 -> 315       -0.17650
     311 -> 314        0.68529
     309 <- 315       -0.10146

 Excited State   3:      Singlet-A      2.2267 eV  556.81 nm  f=0.1265  <S**2>=0.000
     310 -> 313        0.64633
     312 -> 316       -0.27556

 Excited State   4:      Singlet-A      2.2587 eV  548.93 nm  f=0.1146  <S**2>=0.000
     309 -> 314        0.63968
     311 -> 315        0.28423

 Excited State   5:      Singlet-A      3.2098 eV  386.26 nm  f=0.0000  <S**2>=0.000
     312 -> 314        0.70710

 The electronic state is 1-A.
 Alpha  occ. eigenvalues --  -46.88223 -46.88086 -19.26164 -19.24322 -19.20076
 Alpha  occ. eigenvalues --  -19.19873 -19.19376 -19.19369 -19.19214 -19.18620
 Alpha  occ. eigenvalues --  -14.42261 -14.42252 -14.41752 -14.41442 -14.40330
 Alpha  occ. eigenvalues --  -14.39563 -14.39067 -14.38711 -10.39334 -10.38313
 Alpha  occ. eigenvalues --  -10.36391 -10.35985 -10.35129 -10.34837 -10.32508
 Alpha  occ. eigenvalues --  -10.31967 -10.31607 -10.31365 -10.31261 -10.31259
 Alpha  occ. eigenvalues --  -10.31118 -10.30674 -10.30356 -10.30177 -10.30164
 Alpha  occ. eigenvalues --  -10.30160 -10.29908 -10.29836 -10.29799 -10.29669
 Alpha  occ. eigenvalues --  -10.29644 -10.28891 -10.28854 -10.28698 -10.28644
 Alpha  occ. eigenvalues --  -10.28528 -10.28486 -10.28407 -10.28150 -10.28147
 Alpha  occ. eigenvalues --  -10.28016 -10.27985 -10.27862 -10.27797 -10.27773
 Alpha  occ. eigenvalues --  -10.27672 -10.27669 -10.27655 -10.27602 -10.27599
 Alpha  occ. eigenvalues --  -10.27355 -10.27114 -10.27073 -10.27018 -10.26897
 Alpha  occ. eigenvalues --  -10.26768 -10.26739 -10.26722 -10.26710 -10.26694
 Alpha  occ. eigenvalues --  -10.26536 -10.26486 -10.26325 -10.26262 -10.26239
 Alpha  occ. eigenvalues --  -10.25970 -10.25824 -10.25812 -10.25795 -10.25615
 Alpha  occ. eigenvalues --  -10.25280 -10.25267 -10.25211 -10.25135 -10.24867
 Alpha  occ. eigenvalues --  -10.24689  -3.16753  -3.16688  -1.91660  -1.91589
 Alpha  occ. eigenvalues --   -1.91202  -1.91122  -1.91059  -1.91010  -1.18169
 Alpha  occ. eigenvalues --   -1.15867  -1.12024  -1.11504  -1.09255  -1.09092
 Alpha  occ. eigenvalues --   -1.08340  -1.07424  -1.04162  -1.04078  -1.03326
 Alpha  occ. eigenvalues --   -1.02717  -1.02460  -1.01954  -1.01170  -1.00933
 Alpha  occ. eigenvalues --   -0.92807  -0.91842  -0.89129  -0.88542  -0.88428
 Alpha  occ. eigenvalues --   -0.88139  -0.88035  -0.87762  -0.87213  -0.87085
 Alpha  occ. eigenvalues --   -0.86885  -0.86506  -0.86024  -0.85601  -0.84372
 Alpha  occ. eigenvalues --   -0.83940  -0.83633  -0.83407  -0.82499  -0.82293
 Alpha  occ. eigenvalues --   -0.81207  -0.81031  -0.80915  -0.80712  -0.80093
 Alpha  occ. eigenvalues --   -0.79943  -0.78427  -0.77721  -0.77117  -0.76933
 Alpha  occ. eigenvalues --   -0.76742  -0.76447  -0.75867  -0.75757  -0.74965
 Alpha  occ. eigenvalues --   -0.74712  -0.72967  -0.72238  -0.71294  -0.71190
 Alpha  occ. eigenvalues --   -0.69049  -0.68898  -0.68842  -0.68653  -0.67979
 Alpha  occ. eigenvalues --   -0.67418  -0.67232  -0.66377  -0.65862  -0.65623
 Alpha  occ. eigenvalues --   -0.64795  -0.64580  -0.64557  -0.64486  -0.64345
 Alpha  occ. eigenvalues --   -0.63946  -0.62393  -0.61140  -0.60030  -0.60007
 Alpha  occ. eigenvalues --   -0.59410  -0.59162  -0.58967  -0.58792  -0.58427
 Alpha  occ. eigenvalues --   -0.58019  -0.58007  -0.57803  -0.57261  -0.57000
 Alpha  occ. eigenvalues --   -0.56273  -0.55940  -0.55760  -0.55689  -0.54912
 Alpha  occ. eigenvalues --   -0.54732  -0.54393  -0.54237  -0.53976  -0.53690
 Alpha  occ. eigenvalues --   -0.53376  -0.53236  -0.53203  -0.53132  -0.53033
 Alpha  occ. eigenvalues --   -0.52595  -0.52548  -0.52216  -0.52123  -0.52000
 Alpha  occ. eigenvalues --   -0.51864  -0.51743  -0.51691  -0.51404  -0.51013
 Alpha  occ. eigenvalues --   -0.50963  -0.50909  -0.50624  -0.50583  -0.50139
 Alpha  occ. eigenvalues --   -0.49913  -0.49820  -0.49571  -0.49517  -0.49510
 Alpha  occ. eigenvalues --   -0.49460  -0.49172  -0.48850  -0.48642  -0.48601
 Alpha  occ. eigenvalues --   -0.48538  -0.48337  -0.48061  -0.47999  -0.47954
 Alpha  occ. eigenvalues --   -0.47745  -0.47730  -0.47488  -0.47486  -0.47139
 Alpha  occ. eigenvalues --   -0.46775  -0.46662  -0.46417  -0.46274  -0.46211
 Alpha  occ. eigenvalues --   -0.46178  -0.45992  -0.45733  -0.45581  -0.45521
 Alpha  occ. eigenvalues --   -0.45191  -0.45137  -0.44942  -0.44841  -0.44673
 Alpha  occ. eigenvalues --   -0.44640  -0.44557  -0.44465  -0.44332  -0.43989
 Alpha  occ. eigenvalues --   -0.43926  -0.43762  -0.43610  -0.43562  -0.43419
 Alpha  occ. eigenvalues --   -0.43282  -0.43190  -0.43061  -0.43020  -0.42956
 Alpha  occ. eigenvalues --   -0.42660  -0.42403  -0.42387  -0.42289  -0.41990
 Alpha  occ. eigenvalues --   -0.41931  -0.41756  -0.41502  -0.41324  -0.41169
 Alpha  occ. eigenvalues --   -0.40813  -0.40683  -0.40557  -0.40284  -0.40279
 Alpha  occ. eigenvalues --   -0.40020  -0.39670  -0.39568  -0.39426  -0.39155
 Alpha  occ. eigenvalues --   -0.38679  -0.37686  -0.37656  -0.37467  -0.37168
 Alpha  occ. eigenvalues --   -0.37101  -0.37070  -0.36860  -0.36471  -0.36242
 Alpha  occ. eigenvalues --   -0.36122  -0.35907  -0.34811  -0.34281  -0.34101
 Alpha  occ. eigenvalues --   -0.33838  -0.33076  -0.32672  -0.31652  -0.31650
 Alpha  occ. eigenvalues --   -0.31475  -0.30968  -0.30640  -0.30450  -0.30276
 Alpha  occ. eigenvalues --   -0.30224  -0.29592  -0.28653  -0.24057  -0.23774
 Alpha  occ. eigenvalues --   -0.21308  -0.20983
 Alpha virt. eigenvalues --   -0.08556  -0.08511  -0.01769  -0.01347   0.00051
 Alpha virt. eigenvalues --    0.00554   0.02107   0.02475   0.02555   0.02972
 Alpha virt. eigenvalues --    0.04526   0.04545   0.05404   0.05945   0.06120

 Mulliken charges:
               1
     1  Mg  11.999978
     2  C    6.000016
     3  C    6.000034
     4  C    5.999969
     5  C    5.999967
     6  N    6.999986
     7  C    5.999973
     8  C    6.000012
     9  C    5.999998
    10  C    6.000004
    11  C    6.000001
    12  C    5.999993
    13  C    6.000012
    14  H    0.999969
    15  N    7.000004
    16  C    5.999955
    17  C    6.000039
    18  C    5.999971
    19  C    6.000029
    20  C    6.000001
    21  C    6.000012
    22  O    8.000008
    23  C    6.000001
    24  N    7.000015
    25  C    6.000014
    26  C    5.999990
    27  C    6.000004
    28  C    6.000005
    29  C    6.000007
    30  C    6.000008
    31  C    6.000006
    32  N    7.000003
    33  C    6.000006
    34  C    5.999990
    35  C    6.000021
    36  C    5.999990
    37  C    5.999999
    38  C    5.999985
    39  O    7.999996
    40  C    5.999982
    41  C    6.000005
    42  O    8.000010
    43  O    7.999989
    44  C    6.000000
    45  H    0.999997
    46  H    1.000014
    47  H    1.000000
    48  H    1.000014
    49  H    0.999983
    50  H    1.000001
    51  H    1.000014
    52  H    1.000021
    53  H    0.999979
    54  H    0.999984
    55  H    0.999999
    56  H    1.000022
    57  H    0.999985
    58  H    1.000001
    59  H    1.000034
    60  H    0.999980
    61  H    1.000035
    62  H    1.000018
    63  H    0.999987
    64  H    1.000017
    65  H    1.000016
    66  H    1.000002
    67  H    1.000014
    68  H    0.999974
    69  H    0.999984
    70  H    1.000019
    71  H    0.999982
    72  H    0.999998
    73  H    0.999996
    74  H    1.000009
    75  H    0.999973
    76  H    0.999978
    77  H    1.000016
    78  H    1.000000
    79  H    0.999998
    80  Mg  12.002729
    81  C    5.977049
    82  C    6.017877
    83  C    6.026228
    84  C    5.997320
    85  N    6.993441
    86  C    6.032249
    87  C    5.989877
    88  C    6.008992
    89  C    5.969695
    90  C    6.003758
    91  C    5.995563
    92  C    5.997602
    93  H    1.004414
    94  N    7.008432
    95  C    5.948014
    96  C    5.984744
    97  C    5.982240
    98  C    5.955124
    99  C    6.003427
   100  C    5.987006
   101  O    7.969426
   102  C    6.006306
   103  N    7.010257
   104  C    5.963877
   105  C    6.008948
   106  C    5.988729
   107  C    6.024862
   108  C    6.004522
   109  C    5.992727
   110  C    6.004188
   111  N    6.992013
   112  C    6.037057
   113  C    6.030870
   114  C    6.000210
   115  C    6.036978
   116  C    5.999351
   117  C    6.016753
   118  O    8.028604
   119  C    6.002000
   120  C    6.001805
   121  O    8.009512
   122  O    7.999090
   123  C    5.994495
   124  H    0.988723
   125  H    0.995956
   126  H    1.012554
   127  H    1.000668
   128  H    0.999882
   129  H    1.004046
   130  H    0.994977
   131  H    0.986343
   132  H    1.012640
   133  H    0.995858
   134  H    1.004539
   135  H    0.996430
   136  H    0.982941
   137  H    0.981030
   138  H    0.981499
   139  H    0.991417
   140  H    0.984432
   141  H    0.992343
   142  H    1.001091
   143  H    1.003841
   144  H    1.008618
   145  H    0.987571
   146  H    0.994872
   147  H    1.009782
   148  H    0.993754
   149  H    1.008750
   150  H    0.998757
   151  H    1.001751
   152  H    1.020198
   153  H    1.017249
   154  H    1.014540
   155  H    1.011003
   156  H    1.002781
   157  H    1.003091
   158  H    1.007711
 Sum of Mulliken charges = 624.00000

 Dipole moment (field-independent basis, Debye):
    X=              4.7898    Y=              4.0039    Z=             -9.0289  Tot=             10.9770
 Quadrupole moment (field-independent basis, Debye-Ang):
   XX=           -246.6542   YY=             -2.0362   ZZ=             -0.9874
   XY=           -105.4327   XZ=            234.7295   YZ=              5.7492

 Normal termination of Gaussian 16 at Thu Sep 23 09:27:42 2021.
