 Gaussian 16, Revision A.03,
 Gaussian 16:  ES64L-G16RevA.03 25-Dec-2016

 ---------------------------------------------------
 #p cam-b3lyp/Def2SVP td=(nstates=5) density=(CIS=1)
 ---------------------------------------------------

 --------------------------------
 TDDFT excited states in gaussian
 --------------------------------
 Symbolic Z-matrix:
 Charge =  0 Multiplicity = 1

                         Standard orientation:
 ---------------------------------------------------------------------
 Center     Atomic      Atomic             Coordinates (Angstroms)
 Number     Number       Type             X           Y           Z
 ---------------------------------------------------------------------
      1         12           0       -0.641139   -0.018099   -0.414255
      2          6           0        2.832037    0.059683    0.206533
      3          6           0       -0.558227   -3.492662   -0.117232
      4          6           0       -4.021768    0.058057    0.009926
      5          6           0       -0.558532    3.553510   -0.156102
      6          7           0        0.942442   -1.489788   -0.044226
      7          6           0        2.245287   -1.236369    0.202136
      8          6           0        3.012268   -2.547245    0.572980
      9          6           0        1.959865   -3.641931    0.076171
     10          6           0        0.637854   -2.824244   -0.087440
     11          6           0        2.177062   -4.405903   -1.249681
     12          6           0        3.280302   -2.558969    2.125477
     13          6           0        4.640309   -3.193391    2.528672
     14          1           0        4.611298   -4.107846    3.820408
     15          7           0       -2.159645   -1.554606   -0.294803
     16          6           0       -1.872570   -2.892681   -0.238660
     17          6           0       -3.112142   -3.572036   -0.226860
     18          6           0       -4.164441   -2.614847   -0.119224
     19          6           0       -3.490214   -1.274917   -0.181994
     20          6           0       -3.276577   -5.073506   -0.226896
     21          6           0       -5.601935   -2.893300    0.160623
     22          8           0       -6.007538   -4.020632    0.393759
     23          6           0       -6.631427   -1.891231    0.254596
     24          7           0       -2.067071    1.632585   -0.002191
     25          6           0       -3.442024    1.357903   -0.043240
     26          6           0       -4.232083    2.628941   -0.066961
     27          6           0       -3.150621    3.771833   -0.053632
     28          6           0       -1.852941    2.982527   -0.069352
     29          6           0       -5.139146    2.629771   -1.304093
     30          6           0       -3.399864    4.868065    1.049634
     31          6           0       -3.527963    6.285350    0.579647
     32          7           0        0.833111    1.566662   -0.082756
     33          6           0        0.690288    2.932421   -0.067144
     34          6           0        2.015112    3.589373   -0.022523
     35          6           0        2.850658    2.454348    0.151944
     36          6           0        2.110536    1.294216    0.021445
     37          6           0        2.360558    5.068751    0.044467
     38          6           0        4.200898    2.080064    0.478952
     39          8           0        5.186386    2.791940    0.727759
     40          6           0        4.297377    0.555125    0.516632
     41          6           0        5.335518    0.061805   -0.407493
     42          8           0        6.254689   -0.578165   -0.043972
     43          8           0        5.027771    0.244457   -1.724653
     44          6           0        5.969885   -0.497764   -2.590124
     45          1           0       -0.558436   -4.585035   -0.107423
     46          1           0       -5.110949    0.007240    0.050812
     47          1           0       -0.340012    4.615477   -0.021700
     48          1           0        3.948846   -2.559628    0.015241
     49          1           0        1.579582   -4.306960    0.851384
     50          1           0        2.789800   -3.815448   -1.931822
     51          1           0        1.278806   -4.727281   -1.776990
     52          1           0        2.756614   -5.290034   -0.986245
     53          1           0        2.459479   -3.041999    2.656364
     54          1           0        3.269008   -1.507026    2.410929
     55          1           0        5.281703   -2.326964    2.690931
     56          1           0        4.951917   -3.691201    1.610154
     57          1           0       -4.235099   -5.455006   -0.578971
     58          1           0       -3.121310   -5.343594    0.817285
     59          1           0       -2.453553   -5.654550   -0.643020
     60          1           0       -6.677867   -1.397208   -0.716757
     61          1           0       -6.434620   -1.199168    1.073889
     62          1           0       -7.578168   -2.388937    0.464730
     63          1           0       -4.766379    2.765857    0.872885
     64          1           0       -2.941755    4.280805   -0.994859
     65          1           0       -5.237722    1.647511   -1.766844
     66          1           0       -4.753523    3.282848   -2.086964
     67          1           0       -6.173084    2.781873   -0.995781
     68          1           0       -2.553877    4.765772    1.729308
     69          1           0       -4.355111    4.768725    1.563836
     70          1           0       -2.795374    6.872792    1.132460
     71          1           0       -4.504592    6.706102    0.819667
     72          1           0       -3.474688    6.385153   -0.504510
     73          1           0        2.297697    5.470434    1.056007
     74          1           0        1.785080    5.677211   -0.654308
     75          1           0        3.425114    5.039741   -0.187537
     76          1           0        4.677520    0.236491    1.486381
     77          1           0        5.678894   -0.317956   -3.625389
     78          1           0        5.945550   -1.563189   -2.361681
     79          1           0        6.990528   -0.117092   -2.573217
 ---------------------------------------------------------------------

 SCF Done:  E(RCAM-B3LYP) =  -2034.88042577     A.U. after   19 cycles

 Excitation energies and oscillator strengths:

 Excited State   1:      Singlet-A      1.6804 eV  737.81 nm  f=0.0000  <S**2>=0.000
     155 ->158        -0.17299
     156 ->157         0.68700
     155 <-158        -0.10660
 This state for optimization and/or second-order correction.
 Total Energy, E(TD-HF/TD-DFT) =  -2034.81867093
 Copying the excited state density for this state as the 1-particle RhoCI density.

 Excited State   2:      Singlet-A      2.2017 eV  563.13 nm  f=0.0000  <S**2>=0.000
     155 ->157         0.64192
     156 ->158         0.28131

 Excited State   3:      Singlet-A      3.1756 eV  390.43 nm  f=0.0000  <S**2>=0.000
     152 ->157        -0.10291
     154 ->157         0.67879

 Excited State   4:      Singlet-A      3.3608 eV  368.91 nm  f=0.0000  <S**2>=0.000
     150 ->157        -0.16255
     150 ->159         0.10520
     151 ->157         0.55827
     151 ->159        -0.30978
     151 ->161         0.11492

 Excited State   5:      Singlet-A      3.4019 eV  364.45 nm  f=0.0000  <S**2>=0.000
     152 ->157         0.56728
     153 ->157        -0.25950
     153 ->161        -0.10220
     156 ->158        -0.25123

 The electronic state is 1-A.
 Alpha  occ. eigenvalues --  -46.90856 -19.25132 -19.19937 -19.18864 -19.17340
 Alpha  occ. eigenvalues --  -14.42995 -14.42722 -14.39926 -14.39320 -10.38751
 Alpha  occ. eigenvalues --  -10.34792 -10.33524 -10.32263 -10.32004 -10.31879
 Alpha  occ. eigenvalues --  -10.31842 -10.31083 -10.31008 -10.30203 -10.29878
 Alpha  occ. eigenvalues --  -10.29327 -10.29103 -10.29053 -10.28929 -10.28792
 Alpha  occ. eigenvalues --  -10.28525 -10.28480 -10.28443 -10.28189 -10.28169
 Alpha  occ. eigenvalues --  -10.27768 -10.27560 -10.27499 -10.27060 -10.26987
 Alpha  occ. eigenvalues --  -10.26829 -10.26680 -10.26536 -10.26411 -10.25768
 Alpha  occ. eigenvalues --  -10.25469 -10.25309 -10.25279  -3.19004  -1.93917
 Alpha  occ. eigenvalues --   -1.93439  -1.93299  -1.17993  -1.09572  -1.09061
 Alpha  occ. eigenvalues --   -1.08975  -1.05134  -1.03770  -1.03455  -1.02556
 Alpha  occ. eigenvalues --   -0.92650  -0.89443  -0.89040  -0.88256  -0.88082
 Alpha  occ. eigenvalues --   -0.87035  -0.85844  -0.84902  -0.84675  -0.82734
 Alpha  occ. eigenvalues --   -0.82535  -0.80948  -0.80573  -0.78680  -0.77634
 Alpha  occ. eigenvalues --   -0.76889  -0.76518  -0.75453  -0.73166  -0.72540
 Alpha  occ. eigenvalues --   -0.69394  -0.69286  -0.67980  -0.66920  -0.66372
 Alpha  occ. eigenvalues --   -0.65734  -0.65017  -0.64671  -0.63329  -0.60101
 Alpha  occ. eigenvalues --   -0.60045  -0.59014  -0.58910  -0.58331  -0.57100
 Alpha  occ. eigenvalues --   -0.56531  -0.56102  -0.55578  -0.55156  -0.54575
 Alpha  occ. eigenvalues --   -0.53528  -0.53404  -0.53218  -0.52846  -0.52677
 Alpha  occ. eigenvalues --   -0.52288  -0.51779  -0.51492  -0.51353  -0.50911
 Alpha  occ. eigenvalues --   -0.50068  -0.49878  -0.49586  -0.49290  -0.49060
 Alpha  occ. eigenvalues --   -0.48641  -0.48420  -0.48225  -0.47548  -0.47351
 Alpha  occ. eigenvalues --   -0.46983  -0.46816  -0.46703  -0.46377  -0.46352
 Alpha  occ. eigenvalues --   -0.45779  -0.45158  -0.45110  -0.44876  -0.44704
 Alpha  occ. eigenvalues --   -0.44372  -0.44036  -0.43615  -0.43350  -0.43023
 Alpha  occ. eigenvalues --   -0.42900  -0.42668  -0.42318  -0.41803  -0.41299
 Alpha  occ. eigenvalues --   -0.41047  -0.40813  -0.40154  -0.39654  -0.39256
 Alpha  occ. eigenvalues --   -0.38696  -0.37920  -0.37658  -0.37257  -0.36909
 Alpha  occ. eigenvalues --   -0.36422  -0.34942  -0.34154  -0.33512  -0.31514
 Alpha  occ. eigenvalues --   -0.30994  -0.30411  -0.30028  -0.29219  -0.24529
 Alpha  occ. eigenvalues --   -0.21594
 Alpha virt. eigenvalues --   -0.09403  -0.02273   0.00266   0.01194   0.02409
 Alpha virt. eigenvalues --    0.04670   0.05425   0.06067   0.06626   0.07724
 Alpha virt. eigenvalues --    0.08152   0.08634   0.08923   0.09516   0.09860

 Mulliken charges:
               1
     1  Mg   0.790501
     2  C   -0.046026
     3  C   -0.104724
     4  C   -0.067567
     5  C   -0.091544
     6  N   -0.341319
     7  C   -0.016395
     8  C   -0.041471
     9  C   -0.049960
    10  C    0.109896
    11  C    0.082975
    12  C    0.051340
    13  C   -0.050357
    14  H    0.026455
    15  N   -0.369497
    16  C    0.151371
    17  C   -0.158154
    18  C   -0.028256
    19  C    0.142831
    20  C    0.141705
    21  C   -0.055801
    22  O   -0.219700
    23  C    0.079319
    24  N   -0.350281
    25  C    0.096080
    26  C   -0.008142
    27  C   -0.010262
    28  C    0.086037
    29  C    0.076976
    30  C    0.042064
    31  C   -0.003907
    32  N   -0.283410
    33  C    0.054914
    34  C   -0.181097
    35  C    0.006467
    36  C    0.104010
    37  C    0.107674
    38  C    0.008329
    39  O   -0.201986
    40  C    0.054109
    41  C    0.148150
    42  O   -0.179989
    43  O   -0.336859
    44  C    0.181936
    45  H   -0.018308
    46  H   -0.053600
    47  H   -0.027665
    48  H    0.013809
    49  H    0.011037
    50  H    0.010098
    51  H    0.024787
    52  H    0.017406
    53  H    0.017713
    54  H    0.012852
    55  H    0.042876
    56  H    0.031841
    57  H    0.047203
    58  H    0.015939
    59  H   -0.005131
    60  H    0.029893
    61  H    0.043139
    62  H    0.024703
    63  H    0.025125
    64  H    0.018471
    65  H    0.014803
    66  H    0.019554
    67  H    0.015296
    68  H    0.016986
    69  H    0.016431
    70  H    0.020634
    71  H    0.008628
    72  H    0.012894
    73  H    0.040207
    74  H    0.029307
    75  H    0.041816
    76  H    0.031697
    77  H    0.027478
    78  H    0.035885
    79  H    0.039761
 Sum of Mulliken charges =  -0.00000

 Dipole moment (field-independent basis, Debye):
    X=             -4.8154    Y=              1.7766    Z=             -3.0423  Tot=              5.9666
 Quadrupole moment (field-independent basis, Debye-Ang):
   XX=           -292.2594   YY=           -251.4807   ZZ=           -251.5713
   XY=            -47.9728   XZ=            -11.1489   YZ=              3.8449

 Normal termination of Gaussian 16 at Fri Oct  8 18:17:31 2021.
