 Gaussian 16, Revision A.03,
 Gaussian 16:  ES64L-G16RevA.03 25-Dec-2016

 ----------------------------------------------------------
 #p cam-b3lyp/Def2SVP td=(nstates=5) density=(transition=1)
 ----------------------------------------------------------

 --------------------------------
 TDDFT excited states in gaussian
 --------------------------------
 Symbolic Z-matrix:
 Charge =  0 Multiplicity = 1

                         Standard orientation:
 ---------------------------------------------------------------------
 Center     Atomic      Atomic             Coordinates (Angstroms)
 Number     Number       Type             X           Y           Z
 ---------------------------------------------------------------------
      1         12           0       14.333402   -0.255577   -0.151302
      2          6           0       10.993859   -1.051343   -0.568150
      3          6           0       13.868532    2.492242   -2.348165
      4          6           0       17.445119    0.937416    0.646289
      5          6           0       14.650120   -2.628341    2.338415
      6          7           0       12.640713    0.500834   -1.399889
      7          6           0       11.336818    0.059754   -1.315792
      8          6           0       10.302441    0.977282   -2.069348
      9          6           0       11.290274    1.870657   -2.958295
     10          6           0       12.739320    1.616256   -2.259561
     11          6           0       11.342600    1.643611   -4.517177
     12          6           0        9.428001    1.802475   -1.192239
     13          6           0        7.921185    1.631941   -1.216868
     14          1           0        7.095406    2.878494   -0.860564
     15          7           0       15.539268    1.440156   -0.845185
     16          6           0       15.129390    2.392817   -1.796931
     17          6           0       16.209067    3.284832   -2.077731
     18          6           0       17.246910    2.937123   -1.071897
     19          6           0       16.779055    1.721944   -0.335945
     20          6           0       16.105272    4.491831   -3.015871
     21          6           0       18.543380    3.755993   -0.945021
     22          8           0       18.859866    4.751791   -1.589497
     23          6           0       19.365288    3.533585    0.274940
     24          7           0       15.840959   -0.674140    1.474092
     25          6           0       17.074423   -0.153185    1.421052
     26          6           0       17.769956   -0.551252    2.722022
     27          6           0       16.940170   -1.796604    3.287677
     28          6           0       15.702430   -1.745314    2.285047
     29          6           0       19.234672   -1.024169    2.413276
     30          6           0       16.477339   -1.812670    4.802294
     31          6           0       17.036404   -2.844098    5.770910
     32          7           0       13.089644   -1.668839    0.693364
     33          6           0       13.359654   -2.611678    1.690171
     34          6           0       12.173271   -3.350990    1.996171
     35          6           0       11.178093   -2.786283    1.139845
     36          6           0       11.852237   -1.785639    0.336788
     37          6           0       11.989202   -4.445725    2.999367
     38          6           0        9.845611   -2.845011    0.699112
     39          8           0        8.964018   -3.588905    1.079925
     40          6           0        9.640337   -1.687536   -0.353322
     41          6           0        8.896024   -2.225622   -1.502723
     42          8           0        7.709505   -1.993143   -1.704599
     43          8           0        9.722337   -3.030042   -2.273186
     44          6           0        9.023589   -3.641967   -3.425711
     45          1           0       13.858678    3.339463   -3.036430
     46          1           0       18.455594    1.331853    0.775213
     47          1           0       14.758323   -3.343139    3.156682
     48          1           0        9.682648    0.362990   -2.721572
     49          1           0       11.051919    2.910454   -2.731582
     50          1           0       10.482126    1.027810   -4.778666
     51          1           0       12.260353    1.179217   -4.878211
     52          1           0       11.305600    2.628528   -4.981158
     53          1           0        9.576519    2.838505   -1.500391
     54          1           0        9.695451    1.645535   -0.147831
     55          1           0        7.658496    0.908430   -0.445650
     56          1           0        7.535850    1.336293   -2.192415
     57          1           0       15.161595    4.764344   -3.487899
     58          1           0       16.897646    4.285280   -3.734879
     59          1           0       16.564053    5.292914   -2.437192
     60          1           0       20.146346    2.774530    0.268171
     61          1           0       18.753279    3.428136    1.170850
     62          1           0       19.943205    4.447918    0.414556
     63          1           0       17.797109    0.257517    3.452621
     64          1           0       17.443761   -2.728929    3.034606
     65          1           0       19.888682   -0.484445    3.098149
     66          1           0       19.569344   -0.877588    1.385559
     67          1           0       19.381561   -2.094054    2.562941
     68          1           0       15.394248   -1.916738    4.741484
     69          1           0       16.798709   -0.850921    5.204522
     70          1           0       16.285915   -2.927375    6.557401
     71          1           0       17.945134   -2.446447    6.223313
     72          1           0       17.225808   -3.862791    5.434195
     73          1           0       10.944443   -4.747761    2.921664
     74          1           0       12.269185   -4.041712    3.971769
     75          1           0       12.585417   -5.341501    2.824616
     76          1           0        8.980261   -0.989431    0.162616
     77          1           0        8.599747   -4.604252   -3.138735
     78          1           0        9.753074   -3.668366   -4.235160
     79          1           0        8.227491   -3.001283   -3.803924
     80         12           0      -13.552289    0.823719    0.113535
     81          6           0      -14.426416   -2.364756   -0.670702
     82          6           0      -10.280367    0.406524   -0.898170
     83          6           0      -12.860571    4.008044    1.164709
     84          6           0      -16.819166    1.250262    1.609017
     85          7           0      -12.455118   -0.854303   -0.489545
     86          6           0      -13.077523   -2.040462   -1.004835
     87          6           0      -12.126920   -2.825066   -1.817542
     88          6           0      -10.752333   -2.085315   -1.492757
     89          6           0      -11.138867   -0.742519   -0.913894
     90          6           0       -9.819914   -2.902981   -0.466010
     91          6           0      -12.541035   -3.010963   -3.309697
     92          6           0      -12.377887   -4.395420   -3.849263
     93          1           0      -11.081301   -5.171806   -3.389943
     94          7           0      -11.823764    2.065603    0.063606
     95          6           0      -10.606168    1.649840   -0.386910
     96          6           0       -9.711226    2.750496   -0.277952
     97          6           0      -10.443160    3.885971    0.247586
     98          6           0      -11.841470    3.385780    0.467582
     99          6           0       -8.205324    2.620362   -0.594714
    100          6           0      -10.066584    5.308351    0.522125
    101          8           0      -10.736947    6.188044    1.074225
    102          6           0       -8.647902    5.739351   -0.010798
    103          7           0      -14.662256    2.420161    1.351155
    104          6           0      -14.184923    3.626679    1.529979
    105          6           0      -15.243879    4.602956    2.038046
    106          6           0      -16.503474    3.700456    2.173365
    107          6           0      -15.969675    2.350953    1.697017
    108          6           0      -14.846837    5.324480    3.424638
    109          6           0      -17.648255    4.274113    1.226996
    110          6           0      -17.500891    4.242365   -0.314363
    111          7           0      -15.232060   -0.362277    0.564075
    112          6           0      -16.457894   -0.027836    1.107853
    113          6           0      -17.326611   -1.209516    0.932490
    114          6           0      -16.643065   -2.166173    0.243932
    115          6           0      -15.340300   -1.581164    0.043380
    116          6           0      -18.667251   -1.361093    1.564545
    117          6           0      -16.673545   -3.505875   -0.342390
    118          8           0      -17.554115   -4.349086   -0.374398
    119          6           0      -15.209976   -3.664201   -0.947581
    120          6           0      -14.561261   -4.780444   -0.230063
    121          8           0      -14.391967   -4.907582    0.995149
    122          8           0      -14.195597   -5.655539   -1.232735
    123          6           0      -13.357846   -6.775897   -0.785279
    124          1           0       -9.251444    0.331747   -1.255779
    125          1           0      -12.604509    5.050784    1.366923
    126          1           0      -17.834800    1.386031    1.984858
    127          1           0      -12.143283   -3.817820   -1.366008
    128          1           0      -10.225758   -1.931472   -2.434153
    129          1           0      -10.124047   -3.940983   -0.331266
    130          1           0      -10.000968   -2.466108    0.515960
    131          1           0       -8.813043   -2.713028   -0.835479
    132          1           0      -11.946488   -2.349983   -3.940412
    133          1           0      -13.597564   -2.743567   -3.297569
    134          1           0      -12.274477   -4.421081   -4.933331
    135          1           0      -13.158478   -5.147939   -3.736646
    136          1           0       -7.942471    2.599767   -1.652281
    137          1           0       -7.933548    1.714340   -0.053338
    138          1           0       -7.627994    3.489789   -0.280983
    139          1           0       -7.882139    5.293274    0.623856
    140          1           0       -8.659189    6.819025   -0.158928
    141          1           0       -8.458029    5.437004   -1.040873
    142          1           0      -15.421060    5.351766    1.266408
    143          1           0      -16.903694    3.657876    3.186379
    144          1           0      -14.588766    6.350989    3.161835
    145          1           0      -13.972045    4.842154    3.861959
    146          1           0      -15.591016    5.425235    4.213638
    147          1           0      -17.970250    5.289774    1.456318
    148          1           0      -18.459316    3.577831    1.442714
    149          1           0      -18.300580    3.564052   -0.612158
    150          1           0      -16.511924    3.918316   -0.636026
    151          1           0      -17.648805    5.210620   -0.792537
    152          1           0      -19.203485   -1.970055    0.837379
    153          1           0      -19.161741   -0.406530    1.745480
    154          1           0      -18.555575   -2.059127    2.393201
    155          1           0      -15.473029   -3.986853   -1.954606
    156          1           0      -13.291395   -7.383573   -1.688195
    157          1           0      -13.954914   -7.318935   -0.052661
    158          1           0      -12.426891   -6.503183   -0.287811
 ---------------------------------------------------------------------

 SCF Done:  E(RCAM-B3LYP) =  -4069.79130855     A.U. after   19 cycles

 Excitation energies and oscillator strengths:

 Excited State   1:      Singlet-A      1.6993 eV  729.61 nm  f=0.4020  <S**2>=0.000
     310 -> 316       -0.18619
     312 -> 314        0.68390
     310 <- 316       -0.10898
 This state for optimization and/or second-order correction.
 Total Energy, E(TD-HF/TD-DFT) =  -4069.72885989
 Copying the excited state density for this state as the 1-particle RhoCI density.

 Excited State   2:      Singlet-A      1.7132 eV  723.68 nm  f=0.3643  <S**2>=0.000
     309 -> 315        0.17421
     311 -> 313        0.68618
     309 <- 315        0.10491

 Excited State   3:      Singlet-A      2.1720 eV  570.84 nm  f=0.1606  <S**2>=0.000
     309 -> 313        0.65196
     311 -> 315       -0.25360

 Excited State   4:      Singlet-A      2.2666 eV  547.01 nm  f=0.0453  <S**2>=0.000
     310 -> 314        0.60930
     312 -> 316        0.34921

 Excited State   5:      Singlet-A      2.6822 eV  462.25 nm  f=0.0000  <S**2>=0.000
     312 -> 313        0.70708

 The electronic state is 1-A.
 Alpha  occ. eigenvalues --  -46.90566 -46.89183 -19.25582 -19.25230 -19.20187
 Alpha  occ. eigenvalues --  -19.19936 -19.19490 -19.19430 -19.19186 -19.18392
 Alpha  occ. eigenvalues --  -14.43572 -14.42222 -14.42127 -14.42074 -14.40130
 Alpha  occ. eigenvalues --  -14.39956 -14.39435 -14.39413 -10.39451 -10.39232
 Alpha  occ. eigenvalues --  -10.35636 -10.35350 -10.35344 -10.34281 -10.33196
 Alpha  occ. eigenvalues --  -10.32154 -10.31910 -10.31763 -10.31761 -10.31759
 Alpha  occ. eigenvalues --  -10.31702 -10.31624 -10.30904 -10.30807 -10.30503
 Alpha  occ. eigenvalues --  -10.30269 -10.30208 -10.30111 -10.29913 -10.29826
 Alpha  occ. eigenvalues --  -10.29521 -10.29518 -10.29178 -10.29166 -10.29012
 Alpha  occ. eigenvalues --  -10.28806 -10.28748 -10.28745 -10.28597 -10.28523
 Alpha  occ. eigenvalues --  -10.28379 -10.28374 -10.28338 -10.28280 -10.28264
 Alpha  occ. eigenvalues --  -10.28250 -10.28064 -10.27991 -10.27811 -10.27770
 Alpha  occ. eigenvalues --  -10.27700 -10.27542 -10.27517 -10.27486 -10.27438
 Alpha  occ. eigenvalues --  -10.27414 -10.27325 -10.27304 -10.27285 -10.27097
 Alpha  occ. eigenvalues --  -10.27082 -10.26910 -10.26492 -10.26441 -10.26351
 Alpha  occ. eigenvalues --  -10.26245 -10.26161 -10.26130 -10.25962 -10.25787
 Alpha  occ. eigenvalues --  -10.25774 -10.25513 -10.25485 -10.25443 -10.24994
 Alpha  occ. eigenvalues --  -10.24665  -3.18776  -3.17587  -1.93704  -1.93207
 Alpha  occ. eigenvalues --   -1.93078  -1.92490  -1.92032  -1.91888  -1.15894
 Alpha  occ. eigenvalues --   -1.15644  -1.10135  -1.10133  -1.09860  -1.09537
 Alpha  occ. eigenvalues --   -1.07588  -1.07403  -1.05063  -1.04902  -1.04137
 Alpha  occ. eigenvalues --   -1.03710  -1.02824  -1.02655  -1.01822  -1.01643
 Alpha  occ. eigenvalues --   -0.92677  -0.92309  -0.89588  -0.89475  -0.89033
 Alpha  occ. eigenvalues --   -0.88725  -0.88266  -0.87945  -0.87776  -0.87257
 Alpha  occ. eigenvalues --   -0.87212  -0.86842  -0.86176  -0.85899  -0.84604
 Alpha  occ. eigenvalues --   -0.84575  -0.83920  -0.83308  -0.82985  -0.82357
 Alpha  occ. eigenvalues --   -0.82308  -0.81471  -0.81139  -0.80976  -0.80842
 Alpha  occ. eigenvalues --   -0.79895  -0.78015  -0.77916  -0.77285  -0.77276
 Alpha  occ. eigenvalues --   -0.77137  -0.77077  -0.76315  -0.75736  -0.75606
 Alpha  occ. eigenvalues --   -0.74909  -0.73587  -0.72399  -0.72368  -0.72110
 Alpha  occ. eigenvalues --   -0.69809  -0.69469  -0.69195  -0.69079  -0.68283
 Alpha  occ. eigenvalues --   -0.68083  -0.67365  -0.67227  -0.65708  -0.65564
 Alpha  occ. eigenvalues --   -0.65334  -0.65166  -0.64929  -0.64898  -0.64643
 Alpha  occ. eigenvalues --   -0.64328  -0.63109  -0.62471  -0.60333  -0.60232
 Alpha  occ. eigenvalues --   -0.59836  -0.59546  -0.59351  -0.59153  -0.58850
 Alpha  occ. eigenvalues --   -0.58709  -0.57907  -0.57874  -0.57420  -0.57080
 Alpha  occ. eigenvalues --   -0.56633  -0.56063  -0.55858  -0.55540  -0.55473
 Alpha  occ. eigenvalues --   -0.54999  -0.54903  -0.54808  -0.54359  -0.53929
 Alpha  occ. eigenvalues --   -0.53609  -0.53466  -0.53332  -0.53119  -0.53088
 Alpha  occ. eigenvalues --   -0.52914  -0.52857  -0.52585  -0.52337  -0.52224
 Alpha  occ. eigenvalues --   -0.52186  -0.52054  -0.51921  -0.51867  -0.51438
 Alpha  occ. eigenvalues --   -0.51413  -0.51017  -0.50987  -0.50818  -0.50457
 Alpha  occ. eigenvalues --   -0.50296  -0.49792  -0.49786  -0.49584  -0.49575
 Alpha  occ. eigenvalues --   -0.49268  -0.49221  -0.48957  -0.48850  -0.48722
 Alpha  occ. eigenvalues --   -0.48526  -0.48455  -0.48401  -0.48398  -0.48049
 Alpha  occ. eigenvalues --   -0.48043  -0.47873  -0.47635  -0.47305  -0.47252
 Alpha  occ. eigenvalues --   -0.47169  -0.47090  -0.46789  -0.46778  -0.46675
 Alpha  occ. eigenvalues --   -0.46674  -0.46214  -0.46077  -0.46074  -0.45913
 Alpha  occ. eigenvalues --   -0.45812  -0.45771  -0.45553  -0.45394  -0.45279
 Alpha  occ. eigenvalues --   -0.45125  -0.44761  -0.44710  -0.44602  -0.44469
 Alpha  occ. eigenvalues --   -0.44198  -0.43837  -0.43809  -0.43720  -0.43390
 Alpha  occ. eigenvalues --   -0.43153  -0.43060  -0.42914  -0.42842  -0.42839
 Alpha  occ. eigenvalues --   -0.42705  -0.42508  -0.42323  -0.42236  -0.42072
 Alpha  occ. eigenvalues --   -0.42045  -0.41865  -0.41672  -0.41629  -0.41584
 Alpha  occ. eigenvalues --   -0.41461  -0.41351  -0.40671  -0.40573  -0.40475
 Alpha  occ. eigenvalues --   -0.40046  -0.39793  -0.39732  -0.39561  -0.39443
 Alpha  occ. eigenvalues --   -0.38421  -0.37900  -0.37809  -0.37492  -0.37425
 Alpha  occ. eigenvalues --   -0.37310  -0.37077  -0.36886  -0.36654  -0.36327
 Alpha  occ. eigenvalues --   -0.36191  -0.35990  -0.34598  -0.34589  -0.34399
 Alpha  occ. eigenvalues --   -0.34142  -0.33414  -0.33411  -0.31844  -0.31295
 Alpha  occ. eigenvalues --   -0.31152  -0.31044  -0.30914  -0.30617  -0.30312
 Alpha  occ. eigenvalues --   -0.30272  -0.29812  -0.29658  -0.24695  -0.24341
 Alpha  occ. eigenvalues --   -0.22234  -0.20887
 Alpha virt. eigenvalues --   -0.09806  -0.08416  -0.02416  -0.02287  -0.00173
 Alpha virt. eigenvalues --   -0.00059   0.02015   0.02135   0.02240   0.02259
 Alpha virt. eigenvalues --    0.04428   0.04806   0.05014   0.05169   0.05512

 Mulliken charges:
               1
     1  Mg  12.000116
     2  C    6.000424
     3  C    5.999540
     4  C    5.999432
     5  C    6.000354
     6  N    7.000168
     7  C    5.999274
     8  C    6.000090
     9  C    5.999804
    10  C    6.000922
    11  C    5.999916
    12  C    6.000179
    13  C    6.000497
    14  H    0.998879
    15  N    6.999639
    16  C    6.001211
    17  C    6.000362
    18  C    6.000420
    19  C    6.001022
    20  C    5.999895
    21  C    6.000340
    22  O    8.000604
    23  C    5.999728
    24  N    6.999986
    25  C    6.000860
    26  C    5.999684
    27  C    6.000156
    28  C    5.999281
    29  C    5.999871
    30  C    6.000051
    31  C    5.999991
    32  N    7.000128
    33  C    5.998900
    34  C    5.999595
    35  C    5.999733
    36  C    5.999289
    37  C    5.999998
    38  C    5.999578
    39  O    7.999052
    40  C    5.999840
    41  C    5.999949
    42  O    7.999362
    43  O    8.000209
    44  C    6.000112
    45  H    1.000185
    46  H    1.000218
    47  H    0.999912
    48  H    0.999975
    49  H    0.999892
    50  H    1.000209
    51  H    1.000234
    52  H    0.999971
    53  H    0.999648
    54  H    1.000166
    55  H    1.000088
    56  H    0.999810
    57  H    1.000344
    58  H    1.000557
    59  H    1.000382
    60  H    1.000494
    61  H    1.000207
    62  H    1.000413
    63  H    1.000099
    64  H    1.000138
    65  H    1.000151
    66  H    0.999952
    67  H    1.000353
    68  H    1.000074
    69  H    0.999767
    70  H    1.000017
    71  H    0.999958
    72  H    1.000125
    73  H    0.999680
    74  H    0.999601
    75  H    0.999735
    76  H    0.999493
    77  H    1.000103
    78  H    1.000018
    79  H    0.999589
    80  Mg  12.002699
    81  C    6.028019
    82  C    5.972813
    83  C    5.990302
    84  C    6.021714
    85  N    7.003212
    86  C    5.959418
    87  C    6.013554
    88  C    5.988460
    89  C    6.037877
    90  C    5.998341
    91  C    6.002472
    92  C    6.004212
    93  H    0.990815
    94  N    6.986622
    95  C    6.045425
    96  C    6.020142
    97  C    6.019223
    98  C    6.032317
    99  C    5.998902
   100  C    6.010922
   101  O    8.030556
   102  C    5.994918
   103  N    7.002735
   104  C    6.030186
   105  C    5.988889
   106  C    6.012194
   107  C    5.965934
   108  C    5.998593
   109  C    6.002572
   110  C    6.005214
   111  N    7.006856
   112  C    5.947601
   113  C    5.974522
   114  C    5.995254
   115  C    5.961630
   116  C    6.003172
   117  C    5.983662
   118  O    7.972580
   119  C    5.997199
   120  C    5.996771
   121  O    7.996237
   122  O    7.998201
   123  C    6.002091
   124  H    1.007077
   125  H    1.006922
   126  H    0.991169
   127  H    0.998253
   128  H    1.001584
   129  H    1.015087
   130  H    1.000587
   131  H    0.999390
   132  H    0.986833
   133  H    1.005449
   134  H    0.996181
   135  H    1.003369
   136  H    1.021205
   137  H    1.015529
   138  H    1.014162
   139  H    1.008977
   140  H    1.014711
   141  H    1.007934
   142  H    1.001269
   143  H    0.997462
   144  H    0.998420
   145  H    0.997136
   146  H    1.010517
   147  H    0.989633
   148  H    1.004776
   149  H    1.005910
   150  H    0.990515
   151  H    0.992743
   152  H    0.983513
   153  H    0.980336
   154  H    0.978570
   155  H    0.992604
   156  H    0.995496
   157  H    0.998671
   158  H    0.992982
 Sum of Mulliken charges = 624.00000

 Dipole moment (field-independent basis, Debye):
    X=              8.8490    Y=              6.7959    Z=             -0.5100  Tot=             11.1691
 Quadrupole moment (field-independent basis, Debye-Ang):
   XX=           -226.8078   YY=              9.9603   ZZ=             -1.3723
   XY=            -78.5716   XZ=              7.6731   YZ=              0.7877

 Normal termination of Gaussian 16 at Thu Sep 23 02:19:48 2021.
