 Gaussian 16, Revision A.03,
 Gaussian 16:  ES64L-G16RevA.03 25-Dec-2016

 -----------------------------------
 #p cam-b3lyp/Def2SVP td=(nstates=5)
 -----------------------------------

 --------------------------------
 TDDFT excited states in gaussian
 --------------------------------
 Symbolic Z-matrix:
 Charge =  0 Multiplicity = 1

                         Standard orientation:
 ---------------------------------------------------------------------
 Center     Atomic      Atomic             Coordinates (Angstroms)
 Number     Number       Type             X           Y           Z
 ---------------------------------------------------------------------
      1         12           0       -8.585984   -0.399584   -0.271185
      2          6           0       -6.931653    2.660996    0.592322
      3          6           0      -10.770917    1.327690   -2.010199
      4          6           0      -10.391657   -3.178788   -0.272522
      5          6           0       -6.234468   -2.026015    2.042651
      6          7           0       -8.782423    1.749865   -0.692571
      7          6           0       -8.033265    2.848710   -0.226903
      8          6           0       -8.551964    4.240446   -0.752411
      9          6           0       -9.802907    3.686925   -1.674574
     10          6           0       -9.813343    2.172835   -1.489031
     11          6           0      -11.196193    4.315274   -1.240540
     12          6           0       -7.494432    5.126757   -1.498089
     13          6           0       -8.059845    6.254810   -2.352758
     14          1           0       -7.729360    7.671342   -1.847983
     15          7           0      -10.301948   -0.881388   -1.127202
     16          6           0      -11.127260   -0.063862   -1.863018
     17          6           0      -12.278919   -0.768431   -2.385615
     18          6           0      -12.129885   -2.113058   -1.860839
     19          6           0      -10.833905   -2.105905   -1.093126
     20          6           0      -13.291365   -0.238951   -3.288377
     21          6           0      -13.008280   -3.337647   -2.049738
     22          8           0      -12.722989   -4.435798   -1.661934
     23          6           0      -14.339647   -3.063296   -2.697151
     24          7           0       -8.380572   -2.319892    0.796688
     25          6           0       -9.279315   -3.309924    0.566038
     26          6           0       -8.868172   -4.615315    1.298176
     27          6           0       -7.473755   -4.233678    1.906033
     28          6           0       -7.310260   -2.775287    1.523471
     29          6           0       -9.848067   -5.201996    2.370654
     30          6           0       -6.246904   -5.073820    1.403819
     31          6           0       -6.156070   -6.472568    2.053016
     32          7           0       -6.957392    0.118763    1.062899
     33          6           0       -6.090112   -0.618103    1.836113
     34          6           0       -5.098213    0.237711    2.354284
     35          6           0       -5.378271    1.497092    1.976040
     36          6           0       -6.562095    1.423079    1.181130
     37          6           0       -3.912510   -0.311359    3.136950
     38          6           0       -5.057818    2.926274    2.046924
     39          8           0       -4.178114    3.503298    2.632397
     40          6           0       -6.106919    3.732409    1.142244
     41          6           0       -6.962311    4.537808    2.067447
     42          8           0       -7.975802    4.266211    2.670860
     43          8           0       -6.372550    5.786130    2.089790
     44          6           0       -7.024379    6.824043    2.923516
     45          1           0      -11.572974    1.817771   -2.565847
     46          1           0      -11.100788   -4.006055   -0.190915
     47          1           0       -5.558683   -2.673484    2.606198
     48          1           0       -9.006064    4.762601    0.089920
     49          1           0       -9.623788    4.001155   -2.703078
     50          1           0      -11.751889    4.609848   -2.130646
     51          1           0      -11.206411    5.143149   -0.532085
     52          1           0      -11.839234    3.546437   -0.813285
     53          1           0       -6.958159    4.351051   -2.046257
     54          1           0       -6.689519    5.575106   -0.915267
     55          1           0       -9.144564    6.159818   -2.393605
     56          1           0       -7.564661    6.236841   -3.323224
     57          1           0      -13.084159   -0.854180   -4.163939
     58          1           0      -13.163341    0.833235   -3.437927
     59          1           0      -14.338825   -0.387840   -3.026940
     60          1           0      -14.258200   -3.228207   -3.771437
     61          1           0      -14.868904   -2.212967   -2.266142
     62          1           0      -15.003773   -3.759780   -2.186120
     63          1           0       -8.574687   -5.301583    0.503259
     64          1           0       -7.558907   -4.200984    2.992437
     65          1           0       -9.450775   -5.310758    3.380244
     66          1           0      -10.009892   -6.237080    2.070624
     67          1           0      -10.791230   -4.667555    2.484252
     68          1           0       -5.325474   -4.549205    1.654004
     69          1           0       -6.353374   -5.101395    0.318489
     70          1           0       -6.707582   -6.492313    2.993187
     71          1           0       -5.091767   -6.675714    2.171134
     72          1           0       -6.613294   -7.268744    1.464760
     73          1           0       -3.047147    0.346359    3.054623
     74          1           0       -3.692395   -1.317161    2.779018
     75          1           0       -4.189892   -0.478087    4.178033
     76          1           0       -5.605775    4.351670    0.397908
     77          1           0       -6.208680    7.371613    3.395478
     78          1           0       -7.693595    6.430703    3.688574
     79          1           0       -7.526574    7.388448    2.137189
     80         12           0        8.104571   -0.938442   -0.397049
     81          6           0        9.988697    2.136009   -0.071176
     82          6           0        5.462874    0.895794   -0.089811
     83          6           0        6.590436   -3.865654   -0.434061
     84          6           0       11.155087   -2.852591    0.092889
     85          7           0        7.792987    1.331672   -0.231879
     86          6           0        8.649826    2.405475   -0.106886
     87          6           0        7.878686    3.665544    0.055728
     88          6           0        6.485522    3.179091    0.531209
     89          6           0        6.572360    1.698400    0.091882
     90          6           0        6.257821    3.288134    2.054874
     91          6           0        7.730106    4.372620   -1.325900
     92          6           0        7.962695    5.933113   -1.345131
     93          1           0        8.300895    6.665458   -2.704292
     94          7           0        6.167421   -1.398188   -0.319103
     95          6           0        5.198142   -0.522396   -0.305871
     96          6           0        3.940662   -1.237603   -0.414981
     97          6           0        4.320920   -2.582175   -0.636829
     98          6           0        5.743272   -2.651609   -0.438465
     99          6           0        2.600929   -0.480632   -0.460962
    100          6           0        3.400373   -3.728950   -0.949090
    101          8           0        3.839070   -4.831797   -1.085617
    102          6           0        1.950855   -3.456437   -1.186822
    103          7           0        8.824466   -3.099798    0.097942
    104          6           0        7.940037   -4.056509   -0.176146
    105          6           0        8.577647   -5.390290   -0.288309
    106          6           0       10.051054   -5.039282    0.091521
    107          6           0       10.064269   -3.533612    0.114029
    108          6           0        7.930487   -6.584173    0.501676
    109          6           0       11.070728   -5.684678   -0.926137
    110          6           0       11.916087   -6.915072   -0.493774
    111          7           0       10.078314   -0.559270   -0.068778
    112          6           0       11.224983   -1.378123    0.034560
    113          6           0       12.427036   -0.526925    0.151106
    114          6           0       11.972354    0.783697    0.093066
    115          6           0       10.590613    0.752570    0.009868
    116          6           0       13.858057   -1.039130    0.444215
    117          6           0       12.466461    2.197915    0.121592
    118          8           0       13.564225    2.701106    0.164932
    119          6           0       11.167859    3.147514    0.189668
    120          6           0       11.281399    4.257819   -0.683111
    121          8           0       10.845654    4.230163   -1.842595
    122          8           0       11.947409    5.376275   -0.191698
    123          6           0       11.923692    6.641128   -0.988598
    124          1           0        4.495243    1.398526   -0.043317
    125          1           0        6.094154   -4.835218   -0.510950
    126          1           0       12.081091   -3.412771    0.231348
    127          1           0        8.298754    4.255113    0.871041
    128          1           0        5.620830    3.677708    0.093705
    129          1           0        5.412791    3.943231    2.268781
    130          1           0        7.170377    3.703108    2.481811
    131          1           0        6.098618    2.335316    2.560527
    132          1           0        6.701004    4.175429   -1.626736
    133          1           0        8.398318    3.841350   -2.003347
    134          1           0        8.733301    6.158965   -0.608569
    135          1           0        7.007600    6.309576   -0.976908
    136          1           0        2.156688   -0.628457   -1.446144
    137          1           0        2.642160    0.578828   -0.210428
    138          1           0        1.871846   -0.970231    0.184028
    139          1           0        1.783727   -2.812803   -2.050081
    140          1           0        1.425967   -2.885957   -0.420647
    141          1           0        1.453666   -4.396800   -1.426082
    142          1           0        8.560445   -5.674140   -1.340569
    143          1           0       10.234292   -5.330138    1.126121
    144          1           0        7.004641   -6.199502    0.928124
    145          1           0        8.557070   -7.102255    1.228540
    146          1           0        7.702119   -7.379608   -0.207913
    147          1           0       11.809730   -4.934045   -1.207686
    148          1           0       10.514335   -5.757731   -1.860576
    149          1           0       11.897376   -7.670901   -1.278763
    150          1           0       11.525605   -7.312568    0.443196
    151          1           0       12.960214   -6.633446   -0.352258
    152          1           0       13.960171   -2.018814   -0.021730
    153          1           0       13.959341   -1.219325    1.514688
    154          1           0       14.622490   -0.355176    0.074773
    155          1           0       11.071242    3.506350    1.213942
    156          1           0       10.906565    7.022462   -1.089272
    157          1           0       12.538162    6.561187   -1.884531
    158          1           0       12.327582    7.419463   -0.341289
 ---------------------------------------------------------------------

 SCF Done:  E(RCAM-B3LYP) =  -4069.79037007     A.U. after   19 cycles

 Excitation energies and oscillator strengths:

 Excited State   1:      Singlet-A      1.6935 eV  732.10 nm  f=0.5767  <S**2>=0.000
     309 -> 315       -0.17192
     311 -> 313       -0.16341
     312 -> 314        0.66714
     309 <- 315       -0.10452
 This state for optimization and/or second-order correction.
 Total Energy, E(TD-HF/TD-DFT) =  -4069.72813344
 Copying the excited state density for this state as the 1-particle RhoCI density.

 Excited State   2:      Singlet-A      1.7407 eV  712.27 nm  f=0.2334  <S**2>=0.000
     310 -> 316        0.15949
     311 -> 313        0.66926
     312 -> 314        0.16148

 Excited State   3:      Singlet-A      2.1718 eV  570.87 nm  f=0.1964  <S**2>=0.000
     310 -> 313        0.67297
     311 -> 316       -0.20111

 Excited State   4:      Singlet-A      2.2112 eV  560.70 nm  f=0.1564  <S**2>=0.000
     309 -> 314        0.64950
     312 -> 315        0.26423

 Excited State   5:      Singlet-A      2.7354 eV  453.26 nm  f=0.0000  <S**2>=0.000
     312 -> 313        0.70681

 The electronic state is 1-A.
 Alpha  occ. eigenvalues --  -46.89353 -46.88813 -19.24083 -19.23891 -19.20161
 Alpha  occ. eigenvalues --  -19.19559 -19.19394 -19.19205 -19.19155 -19.18448
 Alpha  occ. eigenvalues --  -14.42431 -14.41670 -14.41557 -14.40083 -14.39864
 Alpha  occ. eigenvalues --  -14.39736 -14.39685 -14.39101 -10.39219 -10.38436
 Alpha  occ. eigenvalues --  -10.35874 -10.35551 -10.35078 -10.34974 -10.31543
 Alpha  occ. eigenvalues --  -10.31431 -10.31140 -10.31115 -10.31061 -10.30921
 Alpha  occ. eigenvalues --  -10.30610 -10.30503 -10.30444 -10.30352 -10.30328
 Alpha  occ. eigenvalues --  -10.29947 -10.29941 -10.29751 -10.29596 -10.29327
 Alpha  occ. eigenvalues --  -10.29281 -10.29228 -10.29131 -10.29086 -10.29005
 Alpha  occ. eigenvalues --  -10.28839 -10.28730 -10.28623 -10.28159 -10.28050
 Alpha  occ. eigenvalues --  -10.28014 -10.27967 -10.27922 -10.27874 -10.27790
 Alpha  occ. eigenvalues --  -10.27419 -10.27197 -10.27187 -10.27175 -10.27065
 Alpha  occ. eigenvalues --  -10.27055 -10.27030 -10.27019 -10.27013 -10.27007
 Alpha  occ. eigenvalues --  -10.26978 -10.26913 -10.26744 -10.26461 -10.26359
 Alpha  occ. eigenvalues --  -10.26318 -10.26195 -10.26121 -10.26064 -10.25946
 Alpha  occ. eigenvalues --  -10.25940 -10.25887 -10.25867 -10.25784 -10.25737
 Alpha  occ. eigenvalues --  -10.25660 -10.25655 -10.25489 -10.25355 -10.25015
 Alpha  occ. eigenvalues --  -10.24969  -3.17877  -3.17356  -1.92764  -1.92339
 Alpha  occ. eigenvalues --   -1.92252  -1.92176  -1.91792  -1.91680  -1.15946
 Alpha  occ. eigenvalues --   -1.14103  -1.12116  -1.11570  -1.11081  -1.10768
 Alpha  occ. eigenvalues --   -1.07706  -1.06322  -1.05574  -1.04871  -1.04789
 Alpha  occ. eigenvalues --   -1.04050  -1.03544  -1.02737  -1.01832  -1.00897
 Alpha  occ. eigenvalues --   -0.93268  -0.91168  -0.89153  -0.89139  -0.88786
 Alpha  occ. eigenvalues --   -0.88465  -0.88351  -0.87927  -0.87707  -0.87539
 Alpha  occ. eigenvalues --   -0.87389  -0.87079  -0.86285  -0.85108  -0.84246
 Alpha  occ. eigenvalues --   -0.84126  -0.83411  -0.82977  -0.82389  -0.82254
 Alpha  occ. eigenvalues --   -0.82062  -0.81947  -0.80949  -0.80869  -0.80320
 Alpha  occ. eigenvalues --   -0.80315  -0.78663  -0.78338  -0.77188  -0.77044
 Alpha  occ. eigenvalues --   -0.76900  -0.76619  -0.76112  -0.75773  -0.75318
 Alpha  occ. eigenvalues --   -0.75046  -0.73031  -0.72686  -0.71550  -0.71011
 Alpha  occ. eigenvalues --   -0.69862  -0.69130  -0.68960  -0.68714  -0.67964
 Alpha  occ. eigenvalues --   -0.67853  -0.67233  -0.67184  -0.66002  -0.65553
 Alpha  occ. eigenvalues --   -0.65275  -0.64886  -0.64839  -0.64646  -0.64131
 Alpha  occ. eigenvalues --   -0.64129  -0.61702  -0.61355  -0.60960  -0.60306
 Alpha  occ. eigenvalues --   -0.59997  -0.59715  -0.59063  -0.58974  -0.58584
 Alpha  occ. eigenvalues --   -0.58072  -0.57974  -0.57485  -0.57121  -0.57094
 Alpha  occ. eigenvalues --   -0.56471  -0.56364  -0.56009  -0.55662  -0.55414
 Alpha  occ. eigenvalues --   -0.55228  -0.54679  -0.54511  -0.54334  -0.53932
 Alpha  occ. eigenvalues --   -0.53891  -0.53765  -0.53301  -0.52954  -0.52890
 Alpha  occ. eigenvalues --   -0.52619  -0.52555  -0.52344  -0.52174  -0.51895
 Alpha  occ. eigenvalues --   -0.51849  -0.51744  -0.51551  -0.51251  -0.51250
 Alpha  occ. eigenvalues --   -0.50770  -0.50470  -0.50407  -0.50170  -0.50025
 Alpha  occ. eigenvalues --   -0.50010  -0.49913  -0.49770  -0.49699  -0.49613
 Alpha  occ. eigenvalues --   -0.49481  -0.49389  -0.49208  -0.49077  -0.48724
 Alpha  occ. eigenvalues --   -0.48649  -0.48632  -0.48200  -0.48192  -0.48037
 Alpha  occ. eigenvalues --   -0.47979  -0.47832  -0.47679  -0.47477  -0.47377
 Alpha  occ. eigenvalues --   -0.47270  -0.46976  -0.46578  -0.46342  -0.46162
 Alpha  occ. eigenvalues --   -0.46131  -0.45987  -0.45688  -0.45665  -0.45550
 Alpha  occ. eigenvalues --   -0.45445  -0.45436  -0.45321  -0.45294  -0.45084
 Alpha  occ. eigenvalues --   -0.44950  -0.44838  -0.44706  -0.44462  -0.44384
 Alpha  occ. eigenvalues --   -0.44228  -0.44034  -0.43933  -0.43690  -0.43396
 Alpha  occ. eigenvalues --   -0.43344  -0.43226  -0.42986  -0.42891  -0.42788
 Alpha  occ. eigenvalues --   -0.42665  -0.42603  -0.42318  -0.42137  -0.42041
 Alpha  occ. eigenvalues --   -0.41846  -0.41782  -0.41329  -0.41199  -0.41178
 Alpha  occ. eigenvalues --   -0.40995  -0.40956  -0.40683  -0.40548  -0.40285
 Alpha  occ. eigenvalues --   -0.40108  -0.39795  -0.39773  -0.39549  -0.39016
 Alpha  occ. eigenvalues --   -0.38308  -0.38238  -0.37992  -0.37595  -0.37242
 Alpha  occ. eigenvalues --   -0.36937  -0.36770  -0.36578  -0.36424  -0.35969
 Alpha  occ. eigenvalues --   -0.35966  -0.35645  -0.34879  -0.34177  -0.33512
 Alpha  occ. eigenvalues --   -0.32970  -0.32835  -0.32521  -0.31776  -0.31547
 Alpha  occ. eigenvalues --   -0.31447  -0.31053  -0.31013  -0.30848  -0.30656
 Alpha  occ. eigenvalues --   -0.30353  -0.29988  -0.29593  -0.23829  -0.23444
 Alpha  occ. eigenvalues --   -0.21533  -0.21203
 Alpha virt. eigenvalues --   -0.08979  -0.08778  -0.01365  -0.00265   0.00634
 Alpha virt. eigenvalues --    0.01019   0.02204   0.02400   0.02429   0.02742
 Alpha virt. eigenvalues --    0.04621   0.04726   0.05259   0.05605   0.06143

 Mulliken charges:
               1
     1  Mg   0.839867
     2  C   -0.024052
     3  C   -0.059877
     4  C   -0.059243
     5  C   -0.088915
     6  N   -0.312946
     7  C   -0.052984
     8  C    0.013422
     9  C   -0.070366
    10  C    0.085068
    11  C    0.032696
    12  C    0.022391
    13  C   -0.067229
    14  H    0.013444
    15  N   -0.403622
    16  C    0.093917
    17  C   -0.114131
    18  C   -0.089307
    19  C    0.139581
    20  C    0.129654
    21  C   -0.007605
    22  O   -0.174653
    23  C    0.036823
    24  N   -0.268534
    25  C    0.008378
    26  C    0.022357
    27  C   -0.064197
    28  C   -0.003354
    29  C    0.067614
    30  C    0.013019
    31  C    0.024858
    32  N   -0.315886
    33  C    0.150713
    34  C   -0.227642
    35  C    0.062771
    36  C    0.099510
    37  C    0.138366
    38  C    0.033602
    39  O   -0.136985
    40  C   -0.039290
    41  C    0.217586
    42  O   -0.202991
    43  O   -0.357117
    44  C    0.167046
    45  H   -0.051740
    46  H   -0.001310
    47  H   -0.022114
    48  H    0.024861
    49  H    0.022340
    50  H    0.009906
    51  H    0.029006
    52  H    0.021928
    53  H    0.008894
    54  H    0.036866
    55  H    0.040460
    56  H    0.040340
    57  H    0.035510
    58  H    0.015979
    59  H    0.025978
    60  H    0.055704
    61  H    0.027510
    62  H    0.015448
    63  H    0.012269
    64  H    0.008047
    65  H    0.012770
    66  H    0.018066
    67  H    0.030059
    68  H    0.003822
    69  H    0.007904
    70  H    0.011643
    71  H    0.020565
    72  H    0.016396
    73  H    0.032076
    74  H    0.006315
    75  H    0.022674
    76  H    0.051043
    77  H    0.045478
    78  H    0.056326
    79  H    0.037227
    80  Mg   0.836396
    81  C   -0.017241
    82  C   -0.042818
    83  C   -0.045500
    84  C   -0.101944
    85  N   -0.239109
    86  C   -0.040089
    87  C   -0.024344
    88  C   -0.084672
    89  C    0.050069
    90  C    0.081659
    91  C    0.071387
    92  C   -0.043331
    93  H    0.033674
    94  N   -0.366942
    95  C    0.065330
    96  C   -0.128666
    97  C   -0.030364
    98  C    0.105131
    99  C    0.110371
   100  C    0.001925
   101  O   -0.168477
   102  C    0.040467
   103  N   -0.199881
   104  C   -0.011411
   105  C   -0.045161
   106  C    0.011817
   107  C    0.027186
   108  C    0.070721
   109  C    0.014286
   110  C    0.026962
   111  N   -0.397654
   112  C    0.109359
   113  C   -0.209879
   114  C   -0.008140
   115  C    0.122742
   116  C    0.119325
   117  C    0.086462
   118  O   -0.138279
   119  C   -0.010379
   120  C    0.199214
   121  O   -0.246487
   122  O   -0.357441
   123  C    0.195842
   124  H   -0.049607
   125  H   -0.004721
   126  H   -0.024735
   127  H   -0.002983
   128  H    0.010370
   129  H    0.020996
   130  H    0.006124
   131  H    0.023375
   132  H    0.001233
   133  H    0.049799
   134  H    0.026175
   135  H    0.014622
   136  H    0.025958
   137  H    0.031607
   138  H    0.020471
   139  H    0.028450
   140  H    0.022449
   141  H    0.028309
   142  H    0.020045
   143  H    0.004714
   144  H    0.028938
   145  H    0.015364
   146  H    0.009244
   147  H   -0.002235
   148  H   -0.009556
   149  H    0.017695
   150  H    0.014404
   151  H    0.016645
   152  H    0.008300
   153  H    0.029859
   154  H    0.038187
   155  H    0.050350
   156  H    0.028805
   157  H    0.055242
   158  H    0.023992
 Sum of Mulliken charges =  -0.00000

 Dipole moment (field-independent basis, Debye):
    X=             -7.2376    Y=              0.4952    Z=             -1.7906  Tot=              7.4722
 Quadrupole moment (field-independent basis, Debye-Ang):
   XX=           -555.1295   YY=           -487.3205   ZZ=           -511.8985
   XY=            -48.7734   XZ=             40.4493   YZ=            -12.8532

 Normal termination of Gaussian 16 at Wed Sep 15 07:28:53 2021.
