 Gaussian 16, Revision A.03,
 Gaussian 16:  ES64L-G16RevA.03 25-Dec-2016

 ----------------------------------------------------------
 #p cam-b3lyp/Def2SVP td=(nstates=5) density=(transition=1)
 ----------------------------------------------------------

 --------------------------------
 TDDFT excited states in gaussian
 --------------------------------
 Symbolic Z-matrix:
 Charge =  0 Multiplicity = 1

                         Standard orientation:
 ---------------------------------------------------------------------
 Center     Atomic      Atomic             Coordinates (Angstroms)
 Number     Number       Type             X           Y           Z
 ---------------------------------------------------------------------
      1         12           0      -30.095568   -0.068235    0.420845
      2          6           0      -27.573530   -1.229578   -1.716455
      3          6           0      -31.376157    1.818509   -2.287712
      4          6           0      -32.338408    1.342113    2.544537
      5          6           0      -28.327799   -1.353519    3.093683
      6          7           0      -29.611214    0.090610   -1.736025
      7          6           0      -28.619020   -0.646730   -2.388618
      8          6           0      -28.893104   -0.621913   -3.935528
      9          6           0      -30.021509    0.408739   -4.057151
     10          6           0      -30.341170    0.851733   -2.586768
     11          6           0      -29.568446    1.606449   -4.934909
     12          6           0      -29.218831   -2.037980   -4.394499
     13          6           0      -28.894889   -2.415982   -5.830593
     14          1           0      -28.556944   -1.283611   -6.826545
     15          7           0      -31.661770    1.365675    0.210235
     16          6           0      -32.004748    2.042570   -0.975619
     17          6           0      -33.089527    2.977729   -0.734513
     18          6           0      -33.474788    2.843239    0.657291
     19          6           0      -32.466234    1.834974    1.199727
     20          6           0      -33.799127    3.780799   -1.832141
     21          6           0      -34.584813    3.507172    1.449298
     22          8           0      -34.750259    3.232542    2.630361
     23          6           0      -35.585853    4.320629    0.722685
     24          7           0      -30.314563   -0.090852    2.541617
     25          6           0      -31.377892    0.494521    3.159743
     26          6           0      -31.388836    0.106405    4.661501
     27          6           0      -30.127761   -0.824064    4.845533
     28          6           0      -29.580289   -0.875583    3.395681
     29          6           0      -31.365402    1.369232    5.541180
     30          6           0      -30.441969   -2.260780    5.340745
     31          6           0      -30.127776   -2.357252    6.830473
     32          7           0      -28.254301   -1.005888    0.749765
     33          6           0      -27.606807   -1.417631    1.866546
     34          6           0      -26.237210   -1.817665    1.461649
     35          6           0      -26.207831   -1.866002    0.098655
     36          6           0      -27.456784   -1.313457   -0.283980
     37          6           0      -25.211289   -2.280698    2.482346
     38          6           0      -25.437752   -2.229098   -1.098461
     39          8           0      -24.301374   -2.679357   -1.180638
     40          6           0      -26.342958   -1.905289   -2.271288
     41          6           0      -25.524245   -1.096130   -3.187854
     42          8           0      -25.207329    0.099868   -3.134106
     43          8           0      -25.052166   -1.939155   -4.172995
     44          6           0      -24.159510   -1.359224   -5.152778
     45          1           0      -31.789567    2.320655   -3.164608
     46          1           0      -33.157996    1.757138    3.134922
     47          1           0      -27.790376   -1.651344    3.996502
     48          1           0      -27.934047   -0.249075   -4.297144
     49          1           0      -30.797613   -0.070745   -4.653609
     50          1           0      -29.438229    2.546280   -4.398114
     51          1           0      -30.431162    1.875488   -5.543710
     52          1           0      -28.633379    1.404424   -5.456981
     53          1           0      -30.273490   -2.161462   -4.146561
     54          1           0      -28.732225   -2.744767   -3.723396
     55          1           0      -29.712792   -3.018457   -6.223446
     56          1           0      -28.042433   -3.080277   -5.684411
     57          1           0      -33.318526    3.716113   -2.808512
     58          1           0      -33.834323    4.835377   -1.555532
     59          1           0      -34.845629    3.479507   -1.859795
     60          1           0      -36.146262    3.665366    0.055382
     61          1           0      -35.132674    5.219675    0.305086
     62          1           0      -36.359019    4.701745    1.389890
     63          1           0      -32.336115   -0.393054    4.863441
     64          1           0      -29.443462   -0.251047    5.472587
     65          1           0      -30.546138    1.451953    6.254781
     66          1           0      -32.283204    1.201108    6.104222
     67          1           0      -31.285597    2.305546    4.989582
     68          1           0      -29.705669   -2.963333    4.949979
     69          1           0      -31.470454   -2.573419    5.159262
     70          1           0      -31.007806   -2.847974    7.245933
     71          1           0      -30.127002   -1.399949    7.351131
     72          1           0      -29.223431   -2.911092    7.084043
     73          1           0      -25.465666   -2.079931    3.523383
     74          1           0      -24.222197   -1.861209    2.302552
     75          1           0      -25.204509   -3.371244    2.485137
     76          1           0      -26.651109   -2.848801   -2.720591
     77          1           0      -23.371308   -0.836383   -4.610438
     78          1           0      -24.648283   -0.651281   -5.822478
     79          1           0      -23.579105   -2.202382   -5.525825
     80         12           0       30.082837    0.389765   -0.440827
     81          6           0       27.186946   -1.607730    0.244908
     82          6           0       28.047554    3.229185    0.119877
     83          6           0       32.871133    2.252210   -0.310465
     84          6           0       31.990273   -2.482511   -0.282409
     85          7           0       27.849094    0.794026    0.112979
     86          6           0       26.955650   -0.211949    0.353708
     87          6           0       25.697172    0.363654    0.983599
     88          6           0       25.940861    1.893188    0.642240
     89          6           0       27.364300    2.050911    0.264137
     90          6           0       25.033351    2.535360   -0.460160
     91          6           0       25.590548   -0.084191    2.476652
     92          6           0       24.206553   -0.600244    3.048514
     93          1           0       23.524046    0.162843    4.197971
     94          7           0       30.427010    2.387922   -0.334804
     95          6           0       29.475810    3.419885   -0.119751
     96          6           0       30.122821    4.718818   -0.137197
     97          6           0       31.539420    4.412818   -0.256248
     98          6           0       31.638159    2.966434   -0.314206
     99          6           0       29.372498    5.962377    0.101013
    100          6           0       32.623866    5.502050   -0.326271
    101          8           0       32.230202    6.694671   -0.169587
    102          6           0       34.127818    5.255176   -0.570136
    103          7           0       32.205623    0.009373   -0.045317
    104          6           0       33.152999    0.910795   -0.219225
    105          6           0       34.479744    0.243512   -0.050946
    106          6           0       34.151428   -1.272482   -0.106560
    107          6           0       32.654432   -1.275602   -0.057839
    108          6           0       35.686826    0.624005   -1.010874
    109          6           0       34.810267   -2.164857    1.067548
    110          6           0       35.852746   -3.242182    0.680176
    111          7           0       29.713505   -1.610572   -0.297395
    112          6           0       30.562785   -2.650650   -0.246916
    113          6           0       29.871962   -3.881813   -0.124916
    114          6           0       28.534426   -3.508117    0.024781
    115          6           0       28.477929   -2.093023   -0.042905
    116          6           0       30.361875   -5.273941   -0.139592
    117          6           0       27.246436   -4.085513    0.256643
    118          8           0       26.963793   -5.248371    0.439458
    119          6           0       26.256280   -2.772900    0.465302
    120          6           0       25.181734   -2.794951   -0.534257
    121          8           0       25.321496   -3.059898   -1.735002
    122          8           0       24.023756   -2.438029    0.123172
    123          6           0       22.805397   -2.395971   -0.683756
    124          1           0       27.472670    4.142954    0.277902
    125          1           0       33.806584    2.796348   -0.166960
    126          1           0       32.517181   -3.423461   -0.455047
    127          1           0       24.868349    0.050672    0.348102
    128          1           0       25.838103    2.287299    1.653971
    129          1           0       25.693785    2.939389   -1.228754
    130          1           0       24.425408    3.368744   -0.108748
    131          1           0       24.385752    1.843500   -0.999586
    132          1           0       25.862365    0.854113    2.959671
    133          1           0       26.329254   -0.812917    2.809616
    134          1           0       24.399004   -1.631635    3.343401
    135          1           0       23.531051   -0.753631    2.207474
    136          1           0       28.822004    5.813300    1.030198
    137          1           0       28.617640    6.095227   -0.673720
    138          1           0       29.920577    6.904255    0.065464
    139          1           0       34.544163    4.804993    0.331178
    140          1           0       34.478706    6.184333   -1.017980
    141          1           0       34.120339    4.518938   -1.374584
    142          1           0       34.846199    0.528052    0.934608
    143          1           0       34.399985   -1.514045   -1.140063
    144          1           0       36.576600    0.445657   -0.406537
    145          1           0       35.569612    1.663343   -1.317297
    146          1           0       35.649457   -0.076963   -1.844931
    147          1           0       33.947775   -2.614694    1.559059
    148          1           0       35.193751   -1.477728    1.821686
    149          1           0       35.643690   -4.212491    1.128641
    150          1           0       36.839462   -2.896204    0.989198
    151          1           0       35.968686   -3.372684   -0.395917
    152          1           0       29.560760   -5.981849   -0.349777
    153          1           0       30.705726   -5.314962    0.894100
    154          1           0       31.311501   -5.289843   -0.674287
    155          1           0       25.932933   -2.681778    1.501624
    156          1           0       22.661315   -3.318942   -1.245879
    157          1           0       22.838956   -1.538386   -1.357325
    158          1           0       21.950092   -2.287828   -0.016735
 ---------------------------------------------------------------------

 SCF Done:  E(RCAM-B3LYP) =  -4069.78738717     A.U. after   19 cycles

 Excitation energies and oscillator strengths:

 Excited State   1:      Singlet-A      1.6782 eV  738.80 nm  f=0.3932  <S**2>=0.000
     310 -> 316       -0.17297
     312 -> 314        0.68710
     310 <- 316       -0.10454
 This state for optimization and/or second-order correction.
 Total Energy, E(TD-HF/TD-DFT) =  -4069.72571480
 Copying the excited state density for this state as the 1-particle RhoCI density.

 Excited State   2:      Singlet-A      1.6989 eV  729.78 nm  f=0.3924  <S**2>=0.000
     309 -> 315       -0.18530
     311 -> 313        0.68535
     309 <- 315       -0.11148

 Excited State   3:      Singlet-A      2.1968 eV  564.39 nm  f=0.1209  <S**2>=0.000
     310 -> 314        0.64517
     312 -> 316        0.27390

 Excited State   4:      Singlet-A      2.2522 eV  550.50 nm  f=0.1328  <S**2>=0.000
     309 -> 313        0.64094
     311 -> 315        0.28918

 Excited State   5:      Singlet-A      3.1110 eV  398.53 nm  f=0.0000  <S**2>=0.000
     312 -> 313        0.70711

 The electronic state is 1-A.
 Alpha  occ. eigenvalues --  -46.89113 -46.88899 -19.26267 -19.24451 -19.20552
 Alpha  occ. eigenvalues --  -19.19789 -19.19733 -19.19292 -19.19201 -19.18126
 Alpha  occ. eigenvalues --  -14.42185 -14.41926 -14.41736 -14.41394 -14.40115
 Alpha  occ. eigenvalues --  -14.39926 -14.39819 -14.39198 -10.40089 -10.39357
 Alpha  occ. eigenvalues --  -10.35475 -10.35441 -10.35399 -10.35239 -10.32444
 Alpha  occ. eigenvalues --  -10.31988 -10.31201 -10.31183 -10.31151 -10.30987
 Alpha  occ. eigenvalues --  -10.30964 -10.30768 -10.30645 -10.30630 -10.30393
 Alpha  occ. eigenvalues --  -10.30321 -10.30303 -10.30080 -10.29750 -10.29533
 Alpha  occ. eigenvalues --  -10.29341 -10.29075 -10.29051 -10.28939 -10.28725
 Alpha  occ. eigenvalues --  -10.28588 -10.28555 -10.28399 -10.28166 -10.28094
 Alpha  occ. eigenvalues --  -10.28041 -10.27772 -10.27770 -10.27765 -10.27664
 Alpha  occ. eigenvalues --  -10.27618 -10.27609 -10.27592 -10.27585 -10.27559
 Alpha  occ. eigenvalues --  -10.27512 -10.27481 -10.27463 -10.27446 -10.27393
 Alpha  occ. eigenvalues --  -10.27226 -10.27191 -10.26990 -10.26790 -10.26780
 Alpha  occ. eigenvalues --  -10.26670 -10.26522 -10.26490 -10.26429 -10.26397
 Alpha  occ. eigenvalues --  -10.26287 -10.26228 -10.26223 -10.26069 -10.25523
 Alpha  occ. eigenvalues --  -10.25503 -10.25257 -10.25041 -10.25003 -10.24769
 Alpha  occ. eigenvalues --  -10.24555  -3.17510  -3.17454  -1.92424  -1.92344
 Alpha  occ. eigenvalues --   -1.91925  -1.91898  -1.91842  -1.91771  -1.16537
 Alpha  occ. eigenvalues --   -1.15788  -1.10814  -1.10454  -1.10005  -1.08162
 Alpha  occ. eigenvalues --   -1.07235  -1.06860  -1.05445  -1.04719  -1.04317
 Alpha  occ. eigenvalues --   -1.03735  -1.02783  -1.02633  -1.02333  -1.01622
 Alpha  occ. eigenvalues --   -0.93365  -0.93174  -0.89320  -0.89264  -0.88777
 Alpha  occ. eigenvalues --   -0.88278  -0.88125  -0.87965  -0.87961  -0.87468
 Alpha  occ. eigenvalues --   -0.87103  -0.86850  -0.86000  -0.85593  -0.84629
 Alpha  occ. eigenvalues --   -0.84305  -0.83878  -0.83852  -0.82723  -0.82722
 Alpha  occ. eigenvalues --   -0.82379  -0.82011  -0.81359  -0.80891  -0.80479
 Alpha  occ. eigenvalues --   -0.80016  -0.78216  -0.78093  -0.77640  -0.77256
 Alpha  occ. eigenvalues --   -0.76872  -0.76809  -0.76292  -0.75953  -0.75338
 Alpha  occ. eigenvalues --   -0.74532  -0.73190  -0.72531  -0.72207  -0.71002
 Alpha  occ. eigenvalues --   -0.69807  -0.69381  -0.69057  -0.68485  -0.68476
 Alpha  occ. eigenvalues --   -0.67920  -0.67067  -0.66744  -0.66149  -0.65628
 Alpha  occ. eigenvalues --   -0.65420  -0.65112  -0.64913  -0.64759  -0.64629
 Alpha  occ. eigenvalues --   -0.63892  -0.62953  -0.62123  -0.60138  -0.60119
 Alpha  occ. eigenvalues --   -0.59897  -0.59642  -0.59540  -0.59089  -0.58911
 Alpha  occ. eigenvalues --   -0.58789  -0.58425  -0.58346  -0.57634  -0.57588
 Alpha  occ. eigenvalues --   -0.56233  -0.55977  -0.55882  -0.55762  -0.55642
 Alpha  occ. eigenvalues --   -0.55083  -0.54854  -0.54769  -0.54498  -0.53687
 Alpha  occ. eigenvalues --   -0.53627  -0.53594  -0.53410  -0.53313  -0.53286
 Alpha  occ. eigenvalues --   -0.52930  -0.52905  -0.52813  -0.52628  -0.52090
 Alpha  occ. eigenvalues --   -0.51884  -0.51760  -0.51717  -0.51408  -0.51371
 Alpha  occ. eigenvalues --   -0.51222  -0.50767  -0.50574  -0.50332  -0.50328
 Alpha  occ. eigenvalues --   -0.50023  -0.49965  -0.49823  -0.49614  -0.49560
 Alpha  occ. eigenvalues --   -0.49402  -0.49301  -0.49246  -0.49019  -0.48780
 Alpha  occ. eigenvalues --   -0.48641  -0.48457  -0.48160  -0.47931  -0.47856
 Alpha  occ. eigenvalues --   -0.47737  -0.47647  -0.47585  -0.47444  -0.47393
 Alpha  occ. eigenvalues --   -0.47126  -0.47025  -0.46728  -0.46639  -0.46446
 Alpha  occ. eigenvalues --   -0.46393  -0.46119  -0.46028  -0.45927  -0.45881
 Alpha  occ. eigenvalues --   -0.45615  -0.45368  -0.45228  -0.44985  -0.44975
 Alpha  occ. eigenvalues --   -0.44730  -0.44531  -0.44445  -0.44386  -0.44214
 Alpha  occ. eigenvalues --   -0.43769  -0.43649  -0.43589  -0.43550  -0.43394
 Alpha  occ. eigenvalues --   -0.43269  -0.43172  -0.43078  -0.43033  -0.42939
 Alpha  occ. eigenvalues --   -0.42800  -0.42798  -0.42615  -0.42358  -0.42317
 Alpha  occ. eigenvalues --   -0.41874  -0.41524  -0.41518  -0.41239  -0.41221
 Alpha  occ. eigenvalues --   -0.41097  -0.41065  -0.40846  -0.40431  -0.40326
 Alpha  occ. eigenvalues --   -0.40222  -0.39971  -0.38924  -0.38918  -0.38738
 Alpha  occ. eigenvalues --   -0.38461  -0.38240  -0.38018  -0.37956  -0.37753
 Alpha  occ. eigenvalues --   -0.37714  -0.37630  -0.36443  -0.36439  -0.36304
 Alpha  occ. eigenvalues --   -0.35844  -0.35841  -0.35181  -0.34359  -0.34104
 Alpha  occ. eigenvalues --   -0.34083  -0.33009  -0.32614  -0.31571  -0.31453
 Alpha  occ. eigenvalues --   -0.31323  -0.31270  -0.31117  -0.30326  -0.30272
 Alpha  occ. eigenvalues --   -0.30102  -0.29980  -0.29362  -0.24162  -0.23799
 Alpha  occ. eigenvalues --   -0.21304  -0.20932
 Alpha virt. eigenvalues --   -0.08920  -0.08665  -0.01724  -0.01459   0.00189
 Alpha virt. eigenvalues --    0.00290   0.01827   0.02306   0.02433   0.02513
 Alpha virt. eigenvalues --    0.04257   0.05018   0.05140   0.05208   0.05838

 Mulliken charges:
               1
     1  Mg  11.999572
     2  C    6.029251
     3  C    5.987345
     4  C    5.970288
     5  C    6.011587
     6  N    7.014887
     7  C    5.961796
     8  C    6.005825
     9  C    5.987237
    10  C    6.032705
    11  C    5.997761
    12  C    6.004702
    13  C    6.000019
    14  H    0.992772
    15  N    6.990628
    16  C    6.045779
    17  C    6.017424
    18  C    6.019873
    19  C    6.036331
    20  C    5.996011
    21  C    6.014138
    22  O    8.030913
    23  C    5.991501
    24  N    6.992715
    25  C    6.037840
    26  C    5.991309
    27  C    6.012547
    28  C    5.970349
    29  C    5.997306
    30  C    6.004862
    31  C    6.001996
    32  N    7.004344
    33  C    5.958595
    34  C    5.970377
    35  C    5.997625
    36  C    5.959397
    37  C    6.004809
    38  C    5.981966
    39  O    7.972006
    40  C    5.998913
    41  C    5.996554
    42  O    7.992248
    43  O    7.999447
    44  C    6.001712
    45  H    1.013451
    46  H    1.001371
    47  H    0.988132
    48  H    1.002754
    49  H    1.007335
    50  H    0.998833
    51  H    0.999306
    52  H    1.014132
    53  H    0.989692
    54  H    1.008150
    55  H    0.996518
    56  H    1.004515
    57  H    1.018018
    58  H    1.018835
    59  H    1.018413
    60  H    1.007688
    61  H    1.007929
    62  H    1.016030
    63  H    0.998833
    64  H    0.995897
    65  H    1.009624
    66  H    1.000364
    67  H    0.994870
    68  H    1.005137
    69  H    0.989670
    70  H    0.994069
    71  H    0.994057
    72  H    1.001425
    73  H    0.980276
    74  H    0.979982
    75  H    0.977563
    76  H    0.992492
    77  H    0.999360
    78  H    0.992862
    79  H    0.997156
    80  Mg  11.999998
    81  C    5.999790
    82  C    6.000232
    83  C    6.000205
    84  C    5.999780
    85  N    7.000029
    86  C    6.000260
    87  C    5.999955
    88  C    6.000050
    89  C    5.999786
    90  C    6.000024
    91  C    5.999927
    92  C    5.999975
    93  H    1.000122
    94  N    7.000020
    95  C    5.999553
    96  C    5.999784
    97  C    5.999937
    98  C    5.999668
    99  C    6.000114
   100  C    5.999864
   101  O    7.999799
   102  C    5.999990
   103  N    6.999995
   104  C    5.999714
   105  C    6.000106
   106  C    5.999902
   107  C    6.000274
   108  C    6.000010
   109  C    5.999984
   110  C    5.999993
   111  N    7.000025
   112  C    6.000328
   113  C    6.000230
   114  C    5.999990
   115  C    6.000333
   116  C    5.999966
   117  C    6.000189
   118  O    8.000243
   119  C    6.000031
   120  C    6.000048
   121  O    8.000040
   122  O    8.000017
   123  C    5.999963
   124  H    0.999925
   125  H    0.999896
   126  H    1.000044
   127  H    1.000028
   128  H    0.999980
   129  H    1.000025
   130  H    0.999998
   131  H    0.999918
   132  H    1.000101
   133  H    0.999943
   134  H    0.999982
   135  H    1.000024
   136  H    0.999824
   137  H    0.999819
   138  H    0.999849
   139  H    0.999903
   140  H    0.999874
   141  H    0.999934
   142  H    0.999969
   143  H    1.000019
   144  H    0.999929
   145  H    1.000055
   146  H    0.999928
   147  H    0.999963
   148  H    1.000069
   149  H    0.999984
   150  H    1.000028
   151  H    1.000005
   152  H    1.000135
   153  H    1.000169
   154  H    1.000158
   155  H    1.000105
   156  H    1.000040
   157  H    1.000051
   158  H    1.000086
 Sum of Mulliken charges = 624.00000

 Dipole moment (field-independent basis, Debye):
    X=             -8.9878    Y=              6.3008    Z=             -1.7613  Tot=             11.1168
 Quadrupole moment (field-independent basis, Debye-Ang):
   XX=            531.3962   YY=              6.4435   ZZ=             -3.8455
   XY=           -198.5181   XZ=             50.0687   YZ=              1.8511

 Normal termination of Gaussian 16 at Wed Sep 22 21:04:27 2021.
