 Gaussian 16, Revision A.03,
 Gaussian 16:  ES64L-G16RevA.03 25-Dec-2016

 -----------------------------------
 #p cam-b3lyp/Def2SVP td=(nstates=5)
 -----------------------------------

 --------------------------------
 TDDFT excited states in gaussian
 --------------------------------
 Symbolic Z-matrix:
 Charge =  0 Multiplicity = 1

                         Standard orientation:
 ---------------------------------------------------------------------
 Center     Atomic      Atomic             Coordinates (Angstroms)
 Number     Number       Type             X           Y           Z
 ---------------------------------------------------------------------
      1         12           0      -20.227494    0.600093    0.372957
      2          6           0      -19.426816   -2.114124   -1.557717
      3          6           0      -21.019681   -1.424813    2.916883
      4          6           0      -21.205847    3.351246    2.057337
      5          6           0      -19.852902    2.689432   -2.578927
      6          7           0      -20.469559   -1.597360    0.529432
      7          6           0      -19.982791   -2.508432   -0.321782
      8          6           0      -20.115292   -3.993774    0.296194
      9          6           0      -20.629096   -3.639516    1.741700
     10          6           0      -20.769238   -2.103974    1.758022
     11          6           0      -21.884447   -4.427650    2.163468
     12          6           0      -18.784514   -4.798305    0.287648
     13          6           0      -18.690877   -6.086145    1.169473
     14          1           0      -18.802178   -7.480234    0.443237
     15          7           0      -21.059286    0.913988    2.234288
     16          6           0      -21.213033   -0.006867    3.162921
     17          6           0      -21.709815    0.631648    4.372339
     18          6           0      -21.891033    2.029072    4.145100
     19          6           0      -21.371949    2.153509    2.765307
     20          6           0      -22.144973   -0.090808    5.636596
     21          6           0      -22.494318    3.112666    5.032765
     22          8           0      -22.835339    4.195916    4.566607
     23          6           0      -22.669305    2.833131    6.484444
     24          7           0      -20.533168    2.719810   -0.208172
     25          6           0      -20.890264    3.636122    0.683833
     26          6           0      -20.797345    5.062232    0.116312
     27          6           0      -20.173187    4.786168   -1.249090
     28          6           0      -20.225447    3.307688   -1.354454
     29          6           0      -22.079532    5.906773    0.073827
     30          6           0      -18.872586    5.509880   -1.489982
     31          6           0      -18.868687    6.559273   -2.658223
     32          7           0      -19.706594    0.390883   -1.592861
     33          6           0      -19.508097    1.317614   -2.670708
     34          6           0      -18.970334    0.654022   -3.837975
     35          6           0      -18.926330   -0.693257   -3.383108
     36          6           0      -19.381298   -0.783716   -2.061595
     37          6           0      -18.428279    1.188125   -5.116730
     38          6           0      -18.382297   -1.959614   -3.804159
     39          8           0      -17.670292   -2.323161   -4.752176
     40          6           0      -18.763624   -2.976911   -2.757949
     41          6           0      -19.867531   -3.885904   -3.341909
     42          8           0      -20.850669   -3.544826   -4.017284
     43          8           0      -19.580927   -5.167211   -2.974957
     44          6           0      -20.495495   -6.250649   -3.456282
     45          1           0      -21.191049   -1.959678    3.853382
     46          1           0      -21.684493    4.251097    2.449290
     47          1           0      -19.631086    3.396731   -3.380085
     48          1           0      -20.899206   -4.453532   -0.304545
     49          1           0      -19.821810   -3.863896    2.438833
     50          1           0      -21.728018   -4.741294    3.195008
     51          1           0      -22.011213   -5.337493    1.576666
     52          1           0      -22.778432   -3.809476    2.080399
     53          1           0      -18.058343   -4.146212    0.772959
     54          1           0      -18.539245   -5.101227   -0.730219
     55          1           0      -19.570487   -6.089843    1.814012
     56          1           0      -17.733852   -6.082796    1.690055
     57          1           0      -22.006588   -1.168215    5.546625
     58          1           0      -23.199777    0.107223    5.825494
     59          1           0      -21.591607    0.250962    6.510363
     60          1           0      -21.707577    2.440247    6.815514
     61          1           0      -23.419848    2.144112    6.870599
     62          1           0      -22.908643    3.726324    7.060519
     63          1           0      -20.088279    5.614594    0.731988
     64          1           0      -20.856868    5.181777   -1.999996
     65          1           0      -21.743491    6.907225    0.345232
     66          1           0      -22.842367    5.480198    0.724984
     67          1           0      -22.601632    5.884329   -0.882683
     68          1           0      -18.199300    4.720435   -1.822479
     69          1           0      -18.496131    6.036201   -0.613319
     70          1           0      -19.844151    6.578367   -3.144963
     71          1           0      -18.132417    6.223966   -3.389333
     72          1           0      -18.534068    7.560678   -2.387073
     73          1           0      -18.339666    2.272847   -5.062588
     74          1           0      -19.210386    1.008324   -5.853447
     75          1           0      -17.466377    0.688440   -5.240206
     76          1           0      -17.840036   -3.525403   -2.571933
     77          1           0      -21.559830   -6.045918   -3.338068
     78          1           0      -20.284578   -7.235326   -3.040427
     79          1           0      -20.348060   -6.292222   -4.535330
     80         12           0       20.707379    0.552731   -0.167783
     81          6           0       18.271419   -1.992180   -0.059434
     82          6           0       22.961725   -1.793758    0.996923
     83          6           0       23.143243    2.943819   -0.105708
     84          6           0       18.346850    2.801843   -0.966954
     85          7           0       20.628359   -1.680266    0.376585
     86          6           0       19.565767   -2.561647    0.217630
     87          6           0       20.036406   -3.992891    0.381360
     88          6           0       21.442206   -3.842310    1.068530
     89          6           0       21.688000   -2.377804    0.782970
     90          6           0       21.511354   -4.265721    2.588134
     91          6           0       20.186975   -4.737257   -0.953707
     92          6           0       19.801157   -6.220097   -0.927275
     93          1           0       20.707216   -7.207775   -0.140750
     94          7           0       22.773756    0.564746    0.278960
     95          6           0       23.437553   -0.507324    0.769402
     96          6           0       24.768464   -0.108292    1.093979
     97          6           0       24.960679    1.250202    0.664348
     98          6           0       23.607512    1.643911    0.313618
     99          6           0       25.754887   -1.051065    1.725433
    100          6           0       26.182515    2.168402    0.699610
    101          8           0       26.189702    3.276202    0.118854
    102          6           0       27.435345    1.837273    1.502626
    103          7           0       20.753188    2.539071   -0.574440
    104          6           0       21.854111    3.376428   -0.421461
    105          6           0       21.435287    4.784919   -0.692686
    106          6           0       19.905540    4.814714   -1.049403
    107          6           0       19.618919    3.310804   -0.910508
    108          6           0       21.891055    5.818201    0.381144
    109          6           0       19.559594    5.346795   -2.457012
    110          6           0       19.166022    6.836541   -2.471664
    111          7           0       18.746188    0.501070   -0.416805
    112          6           0       17.845791    1.487338   -0.817153
    113          6           0       16.446881    0.953439   -1.011538
    114          6           0       16.628945   -0.398355   -0.677407
    115          6           0       18.009992   -0.637949   -0.384585
    116          6           0       15.224214    1.738971   -1.449510
    117          6           0       15.888181   -1.645358   -0.560699
    118          8           0       14.690585   -1.890891   -0.710785
    119          6           0       16.991530   -2.748618   -0.267704
    120          6           0       16.482444   -3.510492    0.971718
    121          8           0       15.944405   -3.025981    1.945856
    122          8           0       16.586027   -4.878091    0.724788
    123          6           0       16.119843   -5.697356    1.843682
    124          1           0       23.664046   -2.577381    1.288047
    125          1           0       23.841394    3.782889   -0.129142
    126          1           0       17.627104    3.611000   -1.104760
    127          1           0       19.413963   -4.603652    1.034836
    128          1           0       22.233560   -4.444896    0.622636
    129          1           0       20.607433   -4.724224    2.990166
    130          1           0       21.703435   -3.470329    3.307845
    131          1           0       22.270956   -5.032584    2.739967
    132          1           0       21.207825   -4.674201   -1.329820
    133          1           0       19.526974   -4.310693   -1.709314
    134          1           0       19.650002   -6.618997   -1.930241
    135          1           0       18.804224   -6.361345   -0.510330
    136          1           0       25.170699   -1.462735    2.548583
    137          1           0       26.651325   -0.622595    2.173435
    138          1           0       26.071908   -1.876154    1.088013
    139          1           0       27.178973    1.558250    2.524778
    140          1           0       27.992481    2.772201    1.444337
    141          1           0       27.969508    0.992892    1.066993
    142          1           0       22.063558    5.142549   -1.509020
    143          1           0       19.269625    5.320925   -0.321992
    144          1           0       22.390246    5.267672    1.178828
    145          1           0       21.008850    6.304305    0.796841
    146          1           0       22.579875    6.469597   -0.157771
    147          1           0       18.827688    4.664723   -2.889102
    148          1           0       20.442353    5.353334   -3.096756
    149          1           0       19.594743    7.339684   -1.604755
    150          1           0       18.103990    7.062315   -2.373892
    151          1           0       19.607532    7.290645   -3.359267
    152          1           0       15.348397    1.961541   -2.509439
    153          1           0       15.075814    2.696775   -0.951215
    154          1           0       14.375716    1.074053   -1.288934
    155          1           0       17.170441   -3.462565   -1.071455
    156          1           0       16.886298   -5.948781    2.577400
    157          1           0       15.713991   -6.586018    1.360494
    158          1           0       15.337329   -5.310470    2.496419
 ---------------------------------------------------------------------

 SCF Done:  E(RCAM-B3LYP) =  -4069.84396603     A.U. after   19 cycles

 Excitation energies and oscillator strengths:

 Excited State   1:      Singlet-A      1.7014 eV  728.72 nm  f=0.3789  <S**2>=0.000
     309 -> 315        0.18648
     311 -> 313        0.68367
     309 <- 315        0.10953
 This state for optimization and/or second-order correction.
 Total Energy, E(TD-HF/TD-DFT) =  -4069.78144048
 Copying the excited state density for this state as the 1-particle RhoCI density.

 Excited State   2:      Singlet-A      1.7216 eV  720.18 nm  f=0.4001  <S**2>=0.000
     310 -> 316       -0.17575
     312 -> 314        0.68364
     310 <- 316       -0.10316

 Excited State   3:      Singlet-A      2.2323 eV  555.40 nm  f=0.0984  <S**2>=0.000
     309 -> 313        0.63577
     311 -> 315       -0.29946

 Excited State   4:      Singlet-A      2.2690 eV  546.43 nm  f=0.1131  <S**2>=0.000
     310 -> 314        0.63909
     312 -> 316        0.28651

 Excited State   5:      Singlet-A      3.1749 eV  390.52 nm  f=0.0000  <S**2>=0.000
     312 -> 313        0.70710

 The electronic state is 1-A.
 Alpha  occ. eigenvalues --  -46.89154 -46.87645 -19.25761 -19.25590 -19.20409
 Alpha  occ. eigenvalues --  -19.19506 -19.19418 -19.19204 -19.19094 -19.17641
 Alpha  occ. eigenvalues --  -14.42672 -14.42034 -14.41696 -14.41274 -14.40053
 Alpha  occ. eigenvalues --  -14.39892 -14.39479 -14.39243 -10.39683 -10.39520
 Alpha  occ. eigenvalues --  -10.36064 -10.35844 -10.35076 -10.33307 -10.32147
 Alpha  occ. eigenvalues --  -10.31647 -10.31476 -10.31436 -10.30934 -10.30871
 Alpha  occ. eigenvalues --  -10.30742 -10.30725 -10.30455 -10.30349 -10.30323
 Alpha  occ. eigenvalues --  -10.30276 -10.30274 -10.29987 -10.29951 -10.29582
 Alpha  occ. eigenvalues --  -10.29314 -10.29218 -10.29101 -10.28770 -10.28741
 Alpha  occ. eigenvalues --  -10.28736 -10.28710 -10.28626 -10.28556 -10.28548
 Alpha  occ. eigenvalues --  -10.28375 -10.28351 -10.28062 -10.28030 -10.27955
 Alpha  occ. eigenvalues --  -10.27853 -10.27737 -10.27544 -10.27505 -10.27458
 Alpha  occ. eigenvalues --  -10.27368 -10.27200 -10.27064 -10.27044 -10.26994
 Alpha  occ. eigenvalues --  -10.26991 -10.26717 -10.26673 -10.26600 -10.26495
 Alpha  occ. eigenvalues --  -10.26459 -10.26423 -10.26401 -10.26333 -10.26223
 Alpha  occ. eigenvalues --  -10.26208 -10.26192 -10.26148 -10.26006 -10.25987
 Alpha  occ. eigenvalues --  -10.25691 -10.25679 -10.25660 -10.25631 -10.25559
 Alpha  occ. eigenvalues --  -10.24363  -3.17678  -3.16429  -1.92570  -1.92127
 Alpha  occ. eigenvalues --   -1.91992  -1.91326  -1.90860  -1.90773  -1.16300
 Alpha  occ. eigenvalues --   -1.15524  -1.10355  -1.09229  -1.08927  -1.08173
 Alpha  occ. eigenvalues --   -1.07931  -1.06503  -1.05695  -1.04713  -1.04350
 Alpha  occ. eigenvalues --   -1.03841  -1.03665  -1.03072  -1.02921  -1.01455
 Alpha  occ. eigenvalues --   -0.92572  -0.91235  -0.89885  -0.89432  -0.89019
 Alpha  occ. eigenvalues --   -0.88694  -0.88295  -0.88136  -0.87518  -0.87482
 Alpha  occ. eigenvalues --   -0.87121  -0.87013  -0.86967  -0.86145  -0.84414
 Alpha  occ. eigenvalues --   -0.84155  -0.83547  -0.83299  -0.82327  -0.82299
 Alpha  occ. eigenvalues --   -0.82131  -0.81728  -0.81073  -0.80986  -0.80085
 Alpha  occ. eigenvalues --   -0.80005  -0.78501  -0.78454  -0.77523  -0.77466
 Alpha  occ. eigenvalues --   -0.77287  -0.76704  -0.76152  -0.76063  -0.75317
 Alpha  occ. eigenvalues --   -0.75059  -0.72680  -0.72599  -0.71662  -0.71650
 Alpha  occ. eigenvalues --   -0.69409  -0.69384  -0.69077  -0.68816  -0.68186
 Alpha  occ. eigenvalues --   -0.67675  -0.67542  -0.67316  -0.65811  -0.65787
 Alpha  occ. eigenvalues --   -0.65504  -0.64854  -0.64491  -0.64427  -0.64163
 Alpha  occ. eigenvalues --   -0.63909  -0.62601  -0.62576  -0.60696  -0.60373
 Alpha  occ. eigenvalues --   -0.60152  -0.59623  -0.58935  -0.58846  -0.58604
 Alpha  occ. eigenvalues --   -0.58499  -0.57953  -0.57749  -0.57499  -0.57403
 Alpha  occ. eigenvalues --   -0.56276  -0.56021  -0.55626  -0.55451  -0.55114
 Alpha  occ. eigenvalues --   -0.55109  -0.54693  -0.54506  -0.54158  -0.53804
 Alpha  occ. eigenvalues --   -0.53707  -0.53496  -0.53366  -0.53136  -0.52879
 Alpha  occ. eigenvalues --   -0.52768  -0.52567  -0.52539  -0.52151  -0.52130
 Alpha  occ. eigenvalues --   -0.51854  -0.51751  -0.51649  -0.51224  -0.51153
 Alpha  occ. eigenvalues --   -0.51080  -0.50672  -0.50485  -0.50449  -0.50216
 Alpha  occ. eigenvalues --   -0.50043  -0.49934  -0.49795  -0.49756  -0.49659
 Alpha  occ. eigenvalues --   -0.49368  -0.49333  -0.49070  -0.49009  -0.48935
 Alpha  occ. eigenvalues --   -0.48903  -0.48536  -0.48495  -0.48242  -0.48133
 Alpha  occ. eigenvalues --   -0.48086  -0.47759  -0.47624  -0.47620  -0.47402
 Alpha  occ. eigenvalues --   -0.47267  -0.46854  -0.46754  -0.46661  -0.46526
 Alpha  occ. eigenvalues --   -0.46349  -0.46276  -0.46107  -0.45934  -0.45905
 Alpha  occ. eigenvalues --   -0.45516  -0.44950  -0.44921  -0.44663  -0.44625
 Alpha  occ. eigenvalues --   -0.44532  -0.44485  -0.44372  -0.44355  -0.44344
 Alpha  occ. eigenvalues --   -0.44097  -0.43975  -0.43828  -0.43590  -0.43559
 Alpha  occ. eigenvalues --   -0.43496  -0.43188  -0.43014  -0.42887  -0.42725
 Alpha  occ. eigenvalues --   -0.42685  -0.42358  -0.42174  -0.41985  -0.41954
 Alpha  occ. eigenvalues --   -0.41938  -0.41803  -0.41751  -0.41609  -0.41495
 Alpha  occ. eigenvalues --   -0.41230  -0.41061  -0.41052  -0.40805  -0.40449
 Alpha  occ. eigenvalues --   -0.40392  -0.40244  -0.39690  -0.39244  -0.39056
 Alpha  occ. eigenvalues --   -0.38710  -0.38312  -0.38233  -0.37933  -0.37835
 Alpha  occ. eigenvalues --   -0.37265  -0.37018  -0.36874  -0.36646  -0.36637
 Alpha  occ. eigenvalues --   -0.36170  -0.35923  -0.35158  -0.34955  -0.34253
 Alpha  occ. eigenvalues --   -0.33969  -0.33325  -0.32854  -0.31936  -0.31520
 Alpha  occ. eigenvalues --   -0.31075  -0.30975  -0.30941  -0.30558  -0.30555
 Alpha  occ. eigenvalues --   -0.29998  -0.29935  -0.29635  -0.23951  -0.23881
 Alpha  occ. eigenvalues --   -0.21077  -0.21073
 Alpha virt. eigenvalues --   -0.08573  -0.08519  -0.01781  -0.01739  -0.00003
 Alpha virt. eigenvalues --    0.00608   0.01747   0.01931   0.02584   0.03737
 Alpha virt. eigenvalues --    0.04754   0.04934   0.05029   0.05606   0.05711

 Mulliken charges:
               1
     1  Mg   0.832127
     2  C   -0.058937
     3  C   -0.068403
     4  C   -0.048441
     5  C   -0.064230
     6  N   -0.282698
     7  C   -0.070720
     8  C    0.037187
     9  C   -0.103331
    10  C    0.096676
    11  C    0.074355
    12  C    0.030387
    13  C   -0.078903
    14  H   -0.000482
    15  N   -0.351750
    16  C    0.093657
    17  C   -0.163052
    18  C   -0.023585
    19  C    0.114210
    20  C    0.115772
    21  C    0.042795
    22  O   -0.195772
    23  C    0.027081
    24  N   -0.202738
    25  C   -0.029795
    26  C   -0.063748
    27  C   -0.010481
    28  C   -0.014905
    29  C    0.083997
    30  C    0.049310
    31  C   -0.014703
    32  N   -0.364378
    33  C    0.117935
    34  C   -0.165055
    35  C   -0.033233
    36  C    0.166923
    37  C    0.154759
    38  C    0.031428
    39  O   -0.204096
    40  C    0.011475
    41  C    0.227298
    42  O   -0.237214
    43  O   -0.334626
    44  C    0.179441
    45  H   -0.045401
    46  H    0.005795
    47  H   -0.021657
    48  H    0.012712
    49  H    0.012094
    50  H    0.012167
    51  H    0.020261
    52  H    0.026647
    53  H    0.007794
    54  H    0.051212
    55  H    0.027663
    56  H    0.042526
    57  H    0.007529
    58  H    0.029920
    59  H    0.019381
    60  H    0.028822
    61  H    0.041965
    62  H    0.025795
    63  H    0.012615
    64  H   -0.000609
    65  H    0.024215
    66  H    0.022887
    67  H    0.008008
    68  H    0.006292
    69  H    0.012180
    70  H    0.013238
    71  H    0.012294
    72  H    0.019501
    73  H   -0.002859
    74  H    0.041529
    75  H    0.058708
    76  H    0.040310
    77  H    0.041130
    78  H    0.045320
    79  H    0.038482
    80  Mg   0.856917
    81  C   -0.058767
    82  C   -0.109478
    83  C   -0.071381
    84  C   -0.087081
    85  N   -0.241857
    86  C   -0.014016
    87  C    0.014359
    88  C   -0.051397
    89  C   -0.006685
    90  C    0.052940
    91  C    0.064885
    92  C   -0.070549
    93  H    0.002360
    94  N   -0.342936
    95  C    0.211700
    96  C   -0.159425
    97  C   -0.006387
    98  C    0.104286
    99  C    0.108373
   100  C    0.005858
   101  O   -0.228240
   102  C    0.038028
   103  N   -0.379028
   104  C    0.084276
   105  C   -0.051043
   106  C   -0.001747
   107  C    0.029954
   108  C    0.063123
   109  C    0.045014
   110  C   -0.000572
   111  N   -0.392730
   112  C    0.133050
   113  C   -0.159674
   114  C   -0.023304
   115  C    0.156282
   116  C    0.124932
   117  C    0.083862
   118  O   -0.172868
   119  C   -0.034168
   120  C    0.197917
   121  O   -0.193154
   122  O   -0.339667
   123  C    0.167160
   124  H   -0.033792
   125  H   -0.010980
   126  H   -0.037301
   127  H    0.007770
   128  H    0.014693
   129  H    0.013043
   130  H    0.020431
   131  H    0.012816
   132  H    0.016739
   133  H    0.012014
   134  H    0.024820
   135  H    0.028571
   136  H    0.024976
   137  H    0.003806
   138  H    0.034963
   139  H    0.040271
   140  H    0.037955
   141  H    0.041728
   142  H    0.016585
   143  H    0.017667
   144  H    0.022102
   145  H    0.012459
   146  H    0.021710
   147  H    0.012901
   148  H    0.003415
   149  H    0.004419
   150  H    0.019152
   151  H    0.018479
   152  H    0.027709
   153  H    0.025997
   154  H    0.042302
   155  H    0.042779
   156  H    0.025718
   157  H    0.037258
   158  H    0.047701
 Sum of Mulliken charges =  -0.00000

 Dipole moment (field-independent basis, Debye):
    X=              3.9347    Y=             -1.3876    Z=              5.6364  Tot=              7.0126
 Quadrupole moment (field-independent basis, Debye-Ang):
   XX=           -401.4789   YY=           -463.6446   ZZ=           -513.1703
   XY=            -39.5411   XZ=            -73.2185   YZ=            -34.7500

 Normal termination of Gaussian 16 at Wed Sep 15 08:03:10 2021.
