 Gaussian 16, Revision A.03,
 Gaussian 16:  ES64L-G16RevA.03 25-Dec-2016

 -----------------------------------
 #p cam-b3lyp/Def2SVP td=(nstates=5)
 -----------------------------------

 --------------------------------
 TDDFT excited states in gaussian
 --------------------------------
 Symbolic Z-matrix:
 Charge =  0 Multiplicity = 1

                         Standard orientation:
 ---------------------------------------------------------------------
 Center     Atomic      Atomic             Coordinates (Angstroms)
 Number     Number       Type             X           Y           Z
 ---------------------------------------------------------------------
      1         12           0       19.653241    0.407447    0.505221
      2          6           0       17.211444   -1.530869   -1.259824
      3          6           0       20.343508    1.943627   -2.594336
      4          6           0       22.367745    1.729413    1.765396
      5          6           0       19.059206   -1.459033    3.284761
      6          7           0       18.811192    0.236663   -1.643083
      7          6           0       17.769601   -0.547413   -2.011333
      8          6           0       17.377872   -0.195668   -3.437047
      9          6           0       18.322733    0.936631   -3.929287
     10          6           0       19.191688    1.086085   -2.665657
     11          6           0       19.135442    0.564619   -5.294260
     12          6           0       15.866004    0.276345   -3.560685
     13          6           0       15.038896   -0.362461   -4.676823
     14          1           0       15.705080   -0.776734   -6.049930
     15          7           0       21.192665    1.634254   -0.328351
     16          6           0       21.253645    2.140837   -1.541619
     17          6           0       22.456461    2.920880   -1.620449
     18          6           0       23.042508    3.036680   -0.334464
     19          6           0       22.237836    2.101457    0.407153
     20          6           0       22.819911    3.755997   -2.847089
     21          6           0       24.130267    3.915400    0.263047
     22          8           0       24.527282    3.792602    1.407301
     23          6           0       24.661051    5.006540   -0.625560
     24          7           0       20.762790   -0.111482    2.147323
     25          6           0       21.771476    0.756923    2.568657
     26          6           0       22.138869    0.582140    4.067315
     27          6           0       20.933797   -0.327813    4.515804
     28          6           0       20.180623   -0.665552    3.229185
     29          6           0       23.538042   -0.031888    4.219770
     30          6           0       19.901488    0.411674    5.491905
     31          6           0       19.910064    0.052905    6.940082
     32          7           0       18.355445   -1.062430    0.983257
     33          6           0       18.255059   -1.756480    2.169663
     34          6           0       17.300106   -2.859516    2.101625
     35          6           0       16.840358   -2.813885    0.737173
     36          6           0       17.592045   -1.806390    0.087711
     37          6           0       16.824130   -3.627011    3.281598
     38          6           0       15.884321   -3.356817   -0.215590
     39          8           0       15.036330   -4.243281   -0.006023
     40          6           0       16.105714   -2.545048   -1.615382
     41          6           0       16.513869   -3.560397   -2.573308
     42          8           0       17.468815   -4.289277   -2.415960
     43          8           0       15.711979   -3.574922   -3.644629
     44          6           0       15.878410   -4.565640   -4.753923
     45          1           0       20.549149    2.503698   -3.508838
     46          1           0       22.964538    2.408030    2.379463
     47          1           0       18.845232   -1.973401    4.223673
     48          1           0       17.557594   -1.082689   -4.044516
     49          1           0       17.770161    1.825858   -4.233146
     50          1           0       18.616650   -0.212889   -5.855090
     51          1           0       20.120605    0.246593   -4.952082
     52          1           0       19.251105    1.458290   -5.907293
     53          1           0       15.721649    1.354189   -3.621029
     54          1           0       15.331151    0.002342   -2.651394
     55          1           0       14.179403    0.253357   -4.942503
     56          1           0       14.608339   -1.234101   -4.183896
     57          1           0       22.530562    4.804557   -2.775144
     58          1           0       22.480066    3.284492   -3.769694
     59          1           0       23.905384    3.707960   -2.930936
     60          1           0       23.910180    5.529861   -1.218298
     61          1           0       25.418293    4.686616   -1.339970
     62          1           0       24.988429    5.839033   -0.002704
     63          1           0       22.124651    1.572845    4.520811
     64          1           0       21.346167   -1.201525    5.020633
     65          1           0       24.115633   -0.075236    3.296504
     66          1           0       23.488740   -1.063306    4.567065
     67          1           0       24.100238    0.537840    4.960392
     68          1           0       18.851844    0.291042    5.224017
     69          1           0       19.983377    1.496886    5.443381
     70          1           0       20.201152    0.914486    7.539594
     71          1           0       20.659091   -0.737581    6.990452
     72          1           0       18.919178   -0.269926    7.259353
     73          1           0       15.777202   -3.909262    3.175652
     74          1           0       17.073717   -3.026091    4.155876
     75          1           0       17.421104   -4.539233    3.319582
     76          1           0       15.184709   -2.077950   -1.961590
     77          1           0       15.946072   -5.569527   -4.334305
     78          1           0       16.779363   -4.389500   -5.342110
     79          1           0       15.119507   -4.484380   -5.531613
     80         12           0      -19.498600   -0.586755   -0.425823
     81          6           0      -19.020613    2.870996    0.309824
     82          6           0      -16.408968   -1.041870    0.696244
     83          6           0      -20.161552   -3.886276   -0.117342
     84          6           0      -22.970631    0.196400   -0.604331
     85          7           0      -17.920151    0.726149    0.264414
     86          6           0      -17.884166    2.129462    0.414189
     87          6           0      -16.506201    2.656963    0.924391
     88          6           0      -15.680493    1.340410    0.978222
     89          6           0      -16.693495    0.263964    0.534315
     90          6           0      -14.439225    1.537964    0.092251
     91          6           0      -16.482059    3.438763    2.308243
     92          6           0      -16.106211    4.915064    2.255364
     93          1           0      -14.919510    5.377321    3.125380
     94          7           0      -18.454467   -2.231542    0.094423
     95          6           0      -17.137618   -2.199262    0.552823
     96          6           0      -16.636095   -3.504927    0.705674
     97          6           0      -17.631739   -4.391867    0.339841
     98          6           0      -18.801651   -3.571594    0.099368
     99          6           0      -15.200729   -3.963205    1.160194
    100          6           0      -17.425662   -5.887734    0.292850
    101          8           0      -16.370309   -6.426145    0.449369
    102          6           0      -18.714435   -6.749329   -0.131889
    103          7           0      -21.304149   -1.699826   -0.294728
    104          6           0      -21.290509   -3.065342   -0.209635
    105          6           0      -22.794315   -3.531835   -0.041543
    106          6           0      -23.688016   -2.310675   -0.315198
    107          6           0      -22.598366   -1.174646   -0.397033
    108          6           0      -23.153124   -4.789450   -0.780899
    109          6           0      -24.588015   -2.059986    0.888384
    110          6           0      -25.857924   -1.286372    0.652096
    111          7           0      -20.749706    1.201130   -0.445724
    112          6           0      -22.112528    1.344056   -0.552975
    113          6           0      -22.462397    2.717952   -0.563290
    114          6           0      -21.274759    3.439361   -0.296268
    115          6           0      -20.291422    2.425764   -0.117255
    116          6           0      -23.815191    3.301550   -0.653384
    117          6           0      -20.611162    4.729586   -0.065254
    118          8           0      -21.089580    5.868991   -0.145223
    119          6           0      -19.109269    4.436148    0.315353
    120          6           0      -18.255590    4.888144   -0.750760
    121          8           0      -18.165195    4.247325   -1.824610
    122          8           0      -17.702810    6.051969   -0.356067
    123          6           0      -16.621849    6.645931   -1.189585
    124          1           0      -15.382992   -1.224942    1.023363
    125          1           0      -20.325939   -4.965183   -0.077074
    126          1           0      -24.004058    0.504344   -0.774629
    127          1           0      -16.069356    3.322454    0.179882
    128          1           0      -15.359885    1.068368    1.983401
    129          1           0      -13.957999    0.564288    0.004840
    130          1           0      -13.698536    2.247479    0.460883
    131          1           0      -14.695404    1.881438   -0.910625
    132          1           0      -15.648032    2.987531    2.845770
    133          1           0      -17.417330    3.278931    2.844842
    134          1           0      -16.997266    5.484744    2.521376
    135          1           0      -15.819229    5.174175    1.235635
    136          1           0      -15.362975   -4.654012    1.987829
    137          1           0      -14.594046   -3.125021    1.502602
    138          1           0      -14.563909   -4.377807    0.378786
    139          1           0      -18.360981   -7.775516   -0.227894
    140          1           0      -19.021923   -6.281021   -1.067199
    141          1           0      -19.392541   -6.561421    0.700501
    142          1           0      -22.855952   -3.786053    1.017192
    143          1           0      -24.316806   -2.350028   -1.204625
    144          1           0      -24.210280   -4.742823   -1.040910
    145          1           0      -22.937966   -5.609108   -0.095067
    146          1           0      -22.517683   -5.005187   -1.639044
    147          1           0      -24.070558   -1.573773    1.715896
    148          1           0      -24.880868   -2.986268    1.382650
    149          1           0      -26.086337   -1.157901   -0.405776
    150          1           0      -25.736325   -0.302810    1.106337
    151          1           0      -26.678395   -1.704100    1.235480
    152          1           0      -24.497096    2.655216   -1.206888
    153          1           0      -23.687134    4.252530   -1.171002
    154          1           0      -24.164261    3.380658    0.376430
    155          1           0      -18.810285    4.790615    1.301804
    156          1           0      -16.822774    7.706417   -1.030761
    157          1           0      -16.647552    6.338892   -2.234717
    158          1           0      -15.645487    6.533827   -0.716947
 ---------------------------------------------------------------------

 SCF Done:  E(RCAM-B3LYP) =  -4069.80530074     A.U. after   18 cycles

 Excitation energies and oscillator strengths:

 Excited State   1:      Singlet-A      1.6834 eV  736.49 nm  f=0.4012  <S**2>=0.000
     310 -> 316       -0.17289
     312 -> 314        0.68685
     310 <- 316       -0.10713
 This state for optimization and/or second-order correction.
 Total Energy, E(TD-HF/TD-DFT) =  -4069.74343562
 Copying the excited state density for this state as the 1-particle RhoCI density.

 Excited State   2:      Singlet-A      1.7226 eV  719.75 nm  f=0.3897  <S**2>=0.000
     309 -> 315        0.17106
     311 -> 313        0.68730
     309 <- 315        0.10384

 Excited State   3:      Singlet-A      2.1994 eV  563.73 nm  f=0.1326  <S**2>=0.000
     310 -> 314        0.65025
     312 -> 316        0.26298

 Excited State   4:      Singlet-A      2.2584 eV  548.99 nm  f=0.1172  <S**2>=0.000
     309 -> 313        0.63725
     311 -> 315       -0.28975

 Excited State   5:      Singlet-A      3.0859 eV  401.77 nm  f=0.0000  <S**2>=0.000
     312 -> 313        0.70710

 The electronic state is 1-A.
 Alpha  occ. eigenvalues --  -46.88636 -46.88513 -19.26514 -19.25277 -19.19663
 Alpha  occ. eigenvalues --  -19.19645 -19.19545 -19.19028 -19.18737 -19.18533
 Alpha  occ. eigenvalues --  -14.42536 -14.42184 -14.41895 -14.41728 -14.39507
 Alpha  occ. eigenvalues --  -14.39390 -14.39103 -14.38471 -10.39513 -10.38516
 Alpha  occ. eigenvalues --  -10.35802 -10.35476 -10.35476 -10.35394 -10.32850
 Alpha  occ. eigenvalues --  -10.32554 -10.31639 -10.31496 -10.31348 -10.30991
 Alpha  occ. eigenvalues --  -10.30759 -10.30602 -10.30534 -10.30479 -10.30285
 Alpha  occ. eigenvalues --  -10.29665 -10.29619 -10.29600 -10.29195 -10.29041
 Alpha  occ. eigenvalues --  -10.29015 -10.28765 -10.28688 -10.28581 -10.28342
 Alpha  occ. eigenvalues --  -10.28224 -10.28214 -10.28197 -10.28140 -10.28035
 Alpha  occ. eigenvalues --  -10.28025 -10.27959 -10.27950 -10.27813 -10.27779
 Alpha  occ. eigenvalues --  -10.27743 -10.27633 -10.27621 -10.27314 -10.27187
 Alpha  occ. eigenvalues --  -10.27113 -10.27102 -10.27090 -10.27024 -10.26923
 Alpha  occ. eigenvalues --  -10.26838 -10.26675 -10.26587 -10.26444 -10.26442
 Alpha  occ. eigenvalues --  -10.26357 -10.26255 -10.26242 -10.26083 -10.26073
 Alpha  occ. eigenvalues --  -10.26001 -10.25844 -10.25823 -10.25756 -10.25593
 Alpha  occ. eigenvalues --  -10.25584 -10.25478 -10.25440 -10.25168 -10.25038
 Alpha  occ. eigenvalues --  -10.24838  -3.17264  -3.17110  -1.92130  -1.91988
 Alpha  occ. eigenvalues --   -1.91725  -1.91575  -1.91546  -1.91437  -1.16650
 Alpha  occ. eigenvalues --   -1.16575  -1.11980  -1.10860  -1.08669  -1.08454
 Alpha  occ. eigenvalues --   -1.07402  -1.07384  -1.04665  -1.04120  -1.03526
 Alpha  occ. eigenvalues --   -1.03182  -1.03160  -1.02838  -1.01901  -1.01747
 Alpha  occ. eigenvalues --   -0.92215  -0.92179  -0.89668  -0.89350  -0.88712
 Alpha  occ. eigenvalues --   -0.88652  -0.88280  -0.88114  -0.87334  -0.87124
 Alpha  occ. eigenvalues --   -0.87037  -0.86645  -0.86508  -0.86423  -0.84820
 Alpha  occ. eigenvalues --   -0.84244  -0.84241  -0.84140  -0.83299  -0.82681
 Alpha  occ. eigenvalues --   -0.81913  -0.81849  -0.81303  -0.81137  -0.80713
 Alpha  occ. eigenvalues --   -0.80313  -0.78281  -0.77731  -0.77691  -0.77379
 Alpha  occ. eigenvalues --   -0.76883  -0.76686  -0.76295  -0.76261  -0.75131
 Alpha  occ. eigenvalues --   -0.74858  -0.72755  -0.72502  -0.71725  -0.71432
 Alpha  occ. eigenvalues --   -0.69260  -0.68767  -0.68619  -0.67817  -0.67759
 Alpha  occ. eigenvalues --   -0.67667  -0.67245  -0.66992  -0.65701  -0.65605
 Alpha  occ. eigenvalues --   -0.65574  -0.65178  -0.65000  -0.64640  -0.64564
 Alpha  occ. eigenvalues --   -0.64517  -0.62439  -0.62243  -0.60518  -0.60147
 Alpha  occ. eigenvalues --   -0.59636  -0.59434  -0.59246  -0.58834  -0.58523
 Alpha  occ. eigenvalues --   -0.58507  -0.58215  -0.58059  -0.57488  -0.57148
 Alpha  occ. eigenvalues --   -0.56413  -0.56100  -0.56048  -0.55774  -0.55180
 Alpha  occ. eigenvalues --   -0.54976  -0.54696  -0.54382  -0.54282  -0.53818
 Alpha  occ. eigenvalues --   -0.53518  -0.53333  -0.53170  -0.53007  -0.52932
 Alpha  occ. eigenvalues --   -0.52877  -0.52636  -0.52478  -0.52405  -0.52378
 Alpha  occ. eigenvalues --   -0.52111  -0.51683  -0.51481  -0.51303  -0.51239
 Alpha  occ. eigenvalues --   -0.51207  -0.50605  -0.50579  -0.50544  -0.50351
 Alpha  occ. eigenvalues --   -0.50159  -0.50088  -0.49989  -0.49966  -0.49868
 Alpha  occ. eigenvalues --   -0.49280  -0.49175  -0.49044  -0.48925  -0.48772
 Alpha  occ. eigenvalues --   -0.48584  -0.48428  -0.48415  -0.48259  -0.48160
 Alpha  occ. eigenvalues --   -0.48064  -0.47735  -0.47520  -0.47483  -0.47446
 Alpha  occ. eigenvalues --   -0.46959  -0.46760  -0.46620  -0.46420  -0.46296
 Alpha  occ. eigenvalues --   -0.46210  -0.46134  -0.46089  -0.45907  -0.45615
 Alpha  occ. eigenvalues --   -0.45322  -0.45308  -0.45155  -0.45117  -0.44924
 Alpha  occ. eigenvalues --   -0.44735  -0.44527  -0.44320  -0.44253  -0.44125
 Alpha  occ. eigenvalues --   -0.43840  -0.43712  -0.43610  -0.43468  -0.43315
 Alpha  occ. eigenvalues --   -0.43289  -0.43084  -0.43035  -0.42799  -0.42775
 Alpha  occ. eigenvalues --   -0.42626  -0.42561  -0.42489  -0.42308  -0.41937
 Alpha  occ. eigenvalues --   -0.41859  -0.41662  -0.41641  -0.41532  -0.41431
 Alpha  occ. eigenvalues --   -0.41306  -0.41026  -0.40588  -0.40567  -0.40308
 Alpha  occ. eigenvalues --   -0.40214  -0.40113  -0.39736  -0.39342  -0.39160
 Alpha  occ. eigenvalues --   -0.38409  -0.38389  -0.38225  -0.37937  -0.37608
 Alpha  occ. eigenvalues --   -0.37221  -0.36990  -0.36705  -0.36568  -0.36238
 Alpha  occ. eigenvalues --   -0.36166  -0.36003  -0.34471  -0.34343  -0.34167
 Alpha  occ. eigenvalues --   -0.33778  -0.33027  -0.32934  -0.31791  -0.31710
 Alpha  occ. eigenvalues --   -0.31255  -0.30892  -0.30759  -0.30756  -0.30554
 Alpha  occ. eigenvalues --   -0.30103  -0.29410  -0.28931  -0.24273  -0.23848
 Alpha  occ. eigenvalues --   -0.21253  -0.20977
 Alpha virt. eigenvalues --   -0.08754  -0.08735  -0.01700  -0.01134   0.00100
 Alpha virt. eigenvalues --    0.00566   0.01766   0.02060   0.02181   0.02736
 Alpha virt. eigenvalues --    0.04551   0.04746   0.04750   0.05505   0.05635

 Mulliken charges:
               1
     1  Mg   0.829333
     2  C   -0.027432
     3  C   -0.081361
     4  C   -0.048344
     5  C   -0.097994
     6  N   -0.248705
     7  C   -0.030257
     8  C    0.007212
     9  C   -0.059266
    10  C    0.026558
    11  C    0.039530
    12  C    0.031815
    13  C   -0.059018
    14  H    0.004068
    15  N   -0.302831
    16  C    0.146122
    17  C   -0.168986
    18  C   -0.020035
    19  C    0.093318
    20  C    0.099914
    21  C    0.033802
    22  O   -0.186980
    23  C    0.024091
    24  N   -0.332242
    25  C   -0.001086
    26  C   -0.024811
    27  C   -0.002648
    28  C    0.080318
    29  C    0.078530
    30  C   -0.015176
    31  C    0.023913
    32  N   -0.395371
    33  C    0.148613
    34  C   -0.178805
    35  C    0.024803
    36  C    0.119045
    37  C    0.137501
    38  C    0.044578
    39  O   -0.191614
    40  C    0.008858
    41  C    0.183323
    42  O   -0.215296
    43  O   -0.324738
    44  C    0.186190
    45  H   -0.034539
    46  H   -0.001827
    47  H   -0.023795
    48  H    0.020294
    49  H    0.020892
    50  H    0.027658
    51  H    0.024007
    52  H    0.016037
    53  H    0.005659
    54  H    0.004806
    55  H    0.020142
    56  H    0.032999
    57  H    0.044409
    58  H    0.015532
    59  H    0.008545
    60  H    0.015404
    61  H    0.052155
    62  H    0.023560
    63  H    0.017643
    64  H    0.012718
    65  H    0.031341
    66  H    0.004864
    67  H    0.019362
    68  H    0.006143
    69  H   -0.004178
    70  H    0.014272
    71  H    0.005133
    72  H    0.017074
    73  H    0.042113
    74  H    0.016882
    75  H    0.031375
    76  H    0.029661
    77  H    0.052795
    78  H    0.029869
    79  H    0.042549
    80  Mg   0.849639
    81  C   -0.035851
    82  C   -0.127576
    83  C   -0.088478
    84  C   -0.059166
    85  N   -0.306900
    86  C   -0.024942
    87  C   -0.012998
    88  C   -0.067181
    89  C    0.093617
    90  C    0.060695
    91  C    0.056382
    92  C   -0.082535
    93  H    0.016185
    94  N   -0.421934
    95  C    0.201590
    96  C   -0.158745
    97  C   -0.012256
    98  C    0.124728
    99  C    0.150606
   100  C   -0.039986
   101  O   -0.163429
   102  C    0.032930
   103  N   -0.321046
   104  C    0.081234
   105  C   -0.032055
   106  C   -0.024566
   107  C    0.083660
   108  C    0.078927
   109  C   -0.005224
   110  C    0.032840
   111  N   -0.303158
   112  C    0.079960
   113  C   -0.204856
   114  C    0.040292
   115  C    0.083692
   116  C    0.124727
   117  C    0.054353
   118  O   -0.186685
   119  C   -0.001716
   120  C    0.227723
   121  O   -0.252773
   122  O   -0.319994
   123  C    0.163788
   124  H   -0.039005
   125  H   -0.061705
   126  H   -0.037191
   127  H    0.007669
   128  H    0.019321
   129  H    0.005411
   130  H    0.019865
   131  H    0.021135
   132  H    0.017045
   133  H    0.023304
   134  H    0.047041
   135  H    0.015722
   136  H    0.039314
   137  H   -0.011712
   138  H    0.039011
   139  H    0.031002
   140  H    0.046606
   141  H    0.048734
   142  H    0.020563
   143  H    0.012696
   144  H    0.018353
   145  H    0.010042
   146  H    0.016845
   147  H    0.005625
   148  H   -0.002414
   149  H    0.015926
   150  H    0.008824
   151  H    0.008740
   152  H    0.009165
   153  H    0.043160
   154  H    0.037465
   155  H    0.028162
   156  H    0.043838
   157  H    0.067945
   158  H    0.039982
 Sum of Mulliken charges =  -0.00000

 Dipole moment (field-independent basis, Debye):
    X=              0.2988    Y=              3.1377    Z=             -0.8908  Tot=              3.2753
 Quadrupole moment (field-independent basis, Debye-Ang):
   XX=           -534.9113   YY=           -544.9000   ZZ=           -476.0664
   XY=            145.6678   XZ=            -50.0211   YZ=             -3.2731

 Normal termination of Gaussian 16 at Wed Sep 15 07:34:27 2021.
