 Gaussian 16, Revision A.03,
 Gaussian 16:  ES64L-G16RevA.03 25-Dec-2016

 -----------------------------------
 #p cam-b3lyp/Def2SVP td=(nstates=5)
 -----------------------------------

 --------------------------------
 TDDFT excited states in gaussian
 --------------------------------
 Symbolic Z-matrix:
 Charge =  0 Multiplicity = 1

                         Standard orientation:
 ---------------------------------------------------------------------
 Center     Atomic      Atomic             Coordinates (Angstroms)
 Number     Number       Type             X           Y           Z
 ---------------------------------------------------------------------
      1         12           0      -27.335470   -0.854187    0.060895
      2          6           0      -28.036823    2.629762    0.637445
      3          6           0      -24.653163    0.162432   -1.789932
      4          6           0      -26.868978   -4.082797   -0.720082
      5          6           0      -30.309187   -1.595649    1.530044
      6          7           0      -26.402193    1.266883   -0.475495
      7          6           0      -26.882155    2.475987   -0.063020
      8          6           0      -25.882591    3.498376   -0.451519
      9          6           0      -24.859458    2.750815   -1.350809
     10          6           0      -25.304438    1.264090   -1.286660
     11          6           0      -24.886515    3.273801   -2.822274
     12          6           0      -25.233751    4.250088    0.683686
     13          6           0      -24.379841    5.469068    0.374063
     14          1           0      -24.660177    6.689643    1.145774
     15          7           0      -25.907933   -1.818332   -0.987385
     16          6           0      -24.905340   -1.203541   -1.787151
     17          6           0      -24.051021   -2.292368   -2.297257
     18          6           0      -24.750898   -3.471614   -2.055486
     19          6           0      -25.950967   -3.142542   -1.265106
     20          6           0      -22.791915   -1.998488   -3.085790
     21          6           0      -24.381993   -4.927139   -2.415038
     22          8           0      -25.176784   -5.883921   -2.355066
     23          6           0      -22.988295   -5.179004   -2.824325
     24          7           0      -28.464917   -2.631032    0.298559
     25          6           0      -28.107694   -3.844770   -0.067964
     26          6           0      -29.163903   -4.930301    0.277159
     27          6           0      -30.095419   -4.136256    1.195566
     28          6           0      -29.576778   -2.725071    1.039713
     29          6           0      -29.883078   -5.463262   -1.007797
     30          6           0      -30.158641   -4.567365    2.643505
     31          6           0      -31.554446   -4.610927    3.290379
     32          7           0      -28.797027    0.265366    0.980744
     33          6           0      -29.961245   -0.204878    1.547958
     34          6           0      -30.747703    0.901904    2.171478
     35          6           0      -29.979952    1.978691    1.776044
     36          6           0      -28.862217    1.583559    1.031173
     37          6           0      -31.925536    0.809219    3.087512
     38          6           0      -29.929677    3.430615    1.864707
     39          8           0      -30.699439    4.170141    2.467428
     40          6           0      -28.664517    3.933896    1.132634
     41          6           0      -29.098424    4.970625    0.231278
     42          8           0      -29.690185    4.818492   -0.864531
     43          8           0      -28.627556    6.180355    0.642742
     44          6           0      -28.717839    7.305207   -0.262387
     45          1           0      -23.744326    0.467199   -2.312498
     46          1           0      -26.812168   -5.102145   -1.107186
     47          1           0      -31.328676   -1.910374    1.761698
     48          1           0      -26.468777    4.185998   -1.059750
     49          1           0      -23.835248    2.857790   -0.993104
     50          1           0      -23.993938    3.580950   -3.368227
     51          1           0      -25.531160    4.151471   -2.777822
     52          1           0      -25.446280    2.653650   -3.522916
     53          1           0      -24.521782    3.620391    1.217510
     54          1           0      -25.919407    4.400853    1.517041
     55          1           0      -24.486810    5.758435   -0.670295
     56          1           0      -23.390572    5.228823    0.762721
     57          1           0      -22.686843   -2.586351   -3.997406
     58          1           0      -21.871792   -2.123963   -2.515419
     59          1           0      -22.726994   -0.986464   -3.486167
     60          1           0      -22.326099   -4.742325   -2.076588
     61          1           0      -22.921868   -4.630520   -3.763283
     62          1           0      -22.846295   -6.258085   -2.777787
     63          1           0      -28.625598   -5.716423    0.807734
     64          1           0      -31.138258   -4.076831    0.885337
     65          1           0      -30.930849   -5.165398   -1.033883
     66          1           0      -29.893674   -6.552947   -1.032330
     67          1           0      -29.349344   -5.010513   -1.843548
     68          1           0      -29.514013   -3.957763    3.275905
     69          1           0      -29.555942   -5.474566    2.671644
     70          1           0      -31.511030   -5.365717    4.074956
     71          1           0      -32.359349   -4.727004    2.563943
     72          1           0      -31.632393   -3.596986    3.682177
     73          1           0      -31.682800    0.929704    4.143453
     74          1           0      -32.438833   -0.107834    2.799712
     75          1           0      -32.686637    1.519642    2.762445
     76          1           0      -28.107009    4.471518    1.899555
     77          1           0      -29.065248    7.055365   -1.265231
     78          1           0      -27.780899    7.861287   -0.278869
     79          1           0      -29.423102    8.057955    0.090827
     80         12           0       28.315191    0.634358    0.380126
     81          6           0       24.946877    0.645247   -0.739159
     82          6           0       27.089729    0.026580    3.588859
     83          6           0       31.312127   -0.520849    1.101252
     84          6           0       29.246182    0.952761   -3.146324
     85          7           0       26.187239    0.115100    1.267823
     86          6           0       25.021783    0.455517    0.663718
     87          6           0       23.904502    0.455727    1.691600
     88          6           0       24.601772    0.837722    2.997401
     89          6           0       26.056267    0.242930    2.631792
     90          6           0       24.728280    2.320663    3.351270
     91          6           0       23.147499   -0.943054    1.657013
     92          6           0       21.677809   -0.788244    1.688200
     93          1           0       20.876285   -1.762447    2.573331
     94          7           0       29.142061   -0.210797    2.124943
     95          6           0       28.480591   -0.296066    3.375215
     96          6           0       29.445472   -0.816968    4.310542
     97          6           0       30.717795   -0.917693    3.687742
     98          6           0       30.461914   -0.575521    2.243334
     99          6           0       29.047700   -1.116896    5.752330
    100          6           0       31.962187   -1.407950    4.315986
    101          8           0       31.932956   -1.756174    5.489874
    102          6           0       33.281918   -1.624356    3.651136
    103          7           0       30.050167    0.176577   -0.955601
    104          6           0       31.187958   -0.093203   -0.285215
    105          6           0       32.398953   -0.063831   -1.235201
    106          6           0       31.782533    0.567291   -2.607020
    107          6           0       30.277442    0.622104   -2.237938
    108          6           0       33.693592    0.650145   -0.637104
    109          6           0       32.106033   -0.220804   -3.914822
    110          6           0       31.013448   -1.199351   -4.465782
    111          7           0       27.382510    0.774007   -1.493495
    112          6           0       27.901732    0.963398   -2.805898
    113          6           0       26.742617    1.302016   -3.741614
    114          6           0       25.625017    1.125863   -2.941508
    115          6           0       26.068926    0.829360   -1.603163
    116          6           0       26.684478    1.683678   -5.233317
    117          6           0       24.199175    1.209613   -2.917857
    118          8           0       23.405641    1.560127   -3.792807
    119          6           0       23.794503    0.754472   -1.561270
    120          6           0       23.176022   -0.636083   -1.832257
    121          8           0       23.774587   -1.691201   -2.030790
    122          8           0       21.764995   -0.463816   -1.887069
    123          6           0       20.972440   -1.569800   -2.243432
    124          1           0       26.773919   -0.071648    4.629692
    125          1           0       32.309231   -0.752214    1.481092
    126          1           0       29.430168    1.205121   -4.192048
    127          1           0       23.175153    1.250468    1.535670
    128          1           0       24.249362    0.440594    3.948654
    129          1           0       24.028307    2.961889    2.816353
    130          1           0       25.769689    2.643128    3.364840
    131          1           0       24.393729    2.336637    4.389187
    132          1           0       23.425239   -1.509505    2.545952
    133          1           0       23.491396   -1.618972    0.874017
    134          1           0       21.426055   -0.889548    0.633128
    135          1           0       21.448601    0.219767    2.033532
    136          1           0       29.420057   -0.375117    6.458613
    137          1           0       29.357734   -2.132227    5.995118
    138          1           0       27.962493   -1.105903    5.854874
    139          1           0       33.690676   -0.649910    3.382664
    140          1           0       33.270151   -2.260232    2.765063
    141          1           0       34.043319   -1.937964    4.364260
    142          1           0       32.588392   -1.121375   -1.417852
    143          1           0       32.094565    1.608691   -2.678321
    144          1           0       33.682983    0.632881    0.452620
    145          1           0       33.971867    1.638535   -1.004742
    146          1           0       34.504555    0.094674   -1.110755
    147          1           0       33.038978   -0.779300   -3.843151
    148          1           0       32.215934    0.583695   -4.641608
    149          1           0       31.716942   -1.912696   -4.895763
    150          1           0       30.344550   -0.836068   -5.246282
    151          1           0       30.493204   -1.626874   -3.608406
    152          1           0       26.205842    2.652691   -5.370446
    153          1           0       25.933326    0.948784   -5.521228
    154          1           0       27.667084    1.485857   -5.661078
    155          1           0       23.020327    1.415952   -1.172264
    156          1           0       19.900996   -1.368901   -2.279441
    157          1           0       21.140666   -2.343796   -1.495675
    158          1           0       21.327433   -1.861059   -3.232398
 ---------------------------------------------------------------------

 SCF Done:  E(RCAM-B3LYP) =  -4069.77290324     A.U. after   17 cycles

 Excitation energies and oscillator strengths:

 Excited State   1:      Singlet-A      1.6842 eV  736.15 nm  f=0.3545  <S**2>=0.000
     310 -> 315       -0.19737
     311 -> 313        0.68019
     310 <- 315       -0.11216
 This state for optimization and/or second-order correction.
 Total Energy, E(TD-HF/TD-DFT) =  -4069.71100883
 Copying the excited state density for this state as the 1-particle RhoCI density.

 Excited State   2:      Singlet-A      1.7540 eV  706.87 nm  f=0.3793  <S**2>=0.000
     309 -> 316       -0.19893
     312 -> 314        0.68126
     309 <- 316       -0.11271

 Excited State   3:      Singlet-A      2.1915 eV  565.74 nm  f=0.0563  <S**2>=0.000
     310 -> 313        0.61453
     311 -> 315        0.33942

 Excited State   4:      Singlet-A      2.3187 eV  534.70 nm  f=0.0718  <S**2>=0.000
     309 -> 314        0.61706
     312 -> 316        0.33877

 Excited State   5:      Singlet-A      3.1947 eV  388.10 nm  f=0.0000  <S**2>=0.000
     312 -> 313        0.70710

 The electronic state is 1-A.
 Alpha  occ. eigenvalues --  -46.91332 -46.88509 -19.25172 -19.24745 -19.21437
 Alpha  occ. eigenvalues --  -19.19038 -19.18945 -19.18846 -19.18617 -19.17603
 Alpha  occ. eigenvalues --  -14.42438 -14.41975 -14.41915 -14.41111 -14.40275
 Alpha  occ. eigenvalues --  -14.39793 -14.39774 -14.39608 -10.40627 -10.39149
 Alpha  occ. eigenvalues --  -10.35257 -10.34594 -10.34460 -10.34156 -10.31861
 Alpha  occ. eigenvalues --  -10.31459 -10.31435 -10.31339 -10.31226 -10.31089
 Alpha  occ. eigenvalues --  -10.31006 -10.30862 -10.30759 -10.30615 -10.30569
 Alpha  occ. eigenvalues --  -10.30484 -10.30414 -10.30402 -10.30113 -10.30091
 Alpha  occ. eigenvalues --  -10.29499 -10.29424 -10.29043 -10.28810 -10.28610
 Alpha  occ. eigenvalues --  -10.28551 -10.28446 -10.28410 -10.28407 -10.28237
 Alpha  occ. eigenvalues --  -10.28178 -10.28128 -10.28020 -10.28000 -10.27961
 Alpha  occ. eigenvalues --  -10.27941 -10.27695 -10.27638 -10.27612 -10.27587
 Alpha  occ. eigenvalues --  -10.27545 -10.27387 -10.27335 -10.27231 -10.27195
 Alpha  occ. eigenvalues --  -10.27136 -10.27125 -10.27087 -10.26975 -10.26927
 Alpha  occ. eigenvalues --  -10.26810 -10.26395 -10.26293 -10.26268 -10.26225
 Alpha  occ. eigenvalues --  -10.26102 -10.25993 -10.25943 -10.25929 -10.25799
 Alpha  occ. eigenvalues --  -10.25774 -10.25704 -10.25697 -10.25303 -10.25009
 Alpha  occ. eigenvalues --  -10.24614  -3.19532  -3.17115  -1.94374  -1.94040
 Alpha  occ. eigenvalues --   -1.93788  -1.92024  -1.91562  -1.91428  -1.16120
 Alpha  occ. eigenvalues --   -1.15855  -1.09633  -1.09483  -1.09387  -1.09070
 Alpha  occ. eigenvalues --   -1.08686  -1.05966  -1.05776  -1.04587  -1.04233
 Alpha  occ. eigenvalues --   -1.03481  -1.03084  -1.02868  -1.02190  -1.01307
 Alpha  occ. eigenvalues --   -0.94411  -0.93172  -0.90101  -0.89325  -0.89204
 Alpha  occ. eigenvalues --   -0.88752  -0.88485  -0.87831  -0.87598  -0.87298
 Alpha  occ. eigenvalues --   -0.87089  -0.86880  -0.86633  -0.85603  -0.84810
 Alpha  occ. eigenvalues --   -0.84682  -0.84074  -0.83692  -0.82942  -0.82734
 Alpha  occ. eigenvalues --   -0.82613  -0.81672  -0.81251  -0.80888  -0.80887
 Alpha  occ. eigenvalues --   -0.80304  -0.78676  -0.78067  -0.77728  -0.77450
 Alpha  occ. eigenvalues --   -0.77302  -0.76909  -0.76582  -0.76035  -0.75255
 Alpha  occ. eigenvalues --   -0.75236  -0.72998  -0.72778  -0.71962  -0.71871
 Alpha  occ. eigenvalues --   -0.69946  -0.69553  -0.69271  -0.68744  -0.68093
 Alpha  occ. eigenvalues --   -0.67350  -0.66899  -0.66539  -0.66429  -0.65418
 Alpha  occ. eigenvalues --   -0.65374  -0.65116  -0.64999  -0.64743  -0.64575
 Alpha  occ. eigenvalues --   -0.64567  -0.62550  -0.62245  -0.60417  -0.59962
 Alpha  occ. eigenvalues --   -0.59912  -0.59799  -0.59497  -0.59302  -0.58933
 Alpha  occ. eigenvalues --   -0.58784  -0.58403  -0.58291  -0.57619  -0.57066
 Alpha  occ. eigenvalues --   -0.56474  -0.56231  -0.55989  -0.55758  -0.55670
 Alpha  occ. eigenvalues --   -0.55525  -0.54979  -0.54590  -0.54446  -0.54038
 Alpha  occ. eigenvalues --   -0.53900  -0.53708  -0.53495  -0.53421  -0.53176
 Alpha  occ. eigenvalues --   -0.53065  -0.52975  -0.52672  -0.52211  -0.51991
 Alpha  occ. eigenvalues --   -0.51980  -0.51888  -0.51699  -0.51696  -0.51422
 Alpha  occ. eigenvalues --   -0.51336  -0.51217  -0.50797  -0.50583  -0.50493
 Alpha  occ. eigenvalues --   -0.50300  -0.50212  -0.49997  -0.49938  -0.49659
 Alpha  occ. eigenvalues --   -0.49434  -0.49257  -0.49085  -0.48978  -0.48648
 Alpha  occ. eigenvalues --   -0.48506  -0.48389  -0.48349  -0.48293  -0.47966
 Alpha  occ. eigenvalues --   -0.47808  -0.47788  -0.47499  -0.47370  -0.47241
 Alpha  occ. eigenvalues --   -0.47196  -0.47012  -0.46879  -0.46547  -0.46238
 Alpha  occ. eigenvalues --   -0.46122  -0.46050  -0.45974  -0.45932  -0.45897
 Alpha  occ. eigenvalues --   -0.45579  -0.45465  -0.45331  -0.45175  -0.45147
 Alpha  occ. eigenvalues --   -0.45061  -0.44599  -0.44534  -0.44477  -0.44167
 Alpha  occ. eigenvalues --   -0.43968  -0.43868  -0.43823  -0.43714  -0.43505
 Alpha  occ. eigenvalues --   -0.43425  -0.43335  -0.43157  -0.43032  -0.42506
 Alpha  occ. eigenvalues --   -0.42441  -0.42360  -0.42070  -0.42050  -0.41760
 Alpha  occ. eigenvalues --   -0.41689  -0.41630  -0.41571  -0.41326  -0.41242
 Alpha  occ. eigenvalues --   -0.41075  -0.41043  -0.41007  -0.40875  -0.40455
 Alpha  occ. eigenvalues --   -0.40128  -0.40114  -0.39941  -0.39199  -0.38821
 Alpha  occ. eigenvalues --   -0.38590  -0.38296  -0.37954  -0.37919  -0.37666
 Alpha  occ. eigenvalues --   -0.37048  -0.36547  -0.36356  -0.36074  -0.36009
 Alpha  occ. eigenvalues --   -0.35802  -0.35650  -0.35248  -0.34246  -0.33821
 Alpha  occ. eigenvalues --   -0.33541  -0.33376  -0.33015  -0.31572  -0.31494
 Alpha  occ. eigenvalues --   -0.31052  -0.30839  -0.30596  -0.30596  -0.30548
 Alpha  occ. eigenvalues --   -0.30269  -0.30243  -0.29507  -0.24080  -0.24079
 Alpha  occ. eigenvalues --   -0.21067  -0.20919
 Alpha virt. eigenvalues --   -0.08560  -0.08156  -0.02644  -0.01799  -0.00634
 Alpha virt. eigenvalues --    0.00104   0.00742   0.02140   0.02513   0.03012
 Alpha virt. eigenvalues --    0.04550   0.04675   0.05136   0.05515   0.05863

 Mulliken charges:
               1
     1  Mg   0.834413
     2  C    0.024665
     3  C   -0.055704
     4  C   -0.051635
     5  C   -0.106239
     6  N   -0.264119
     7  C   -0.113547
     8  C    0.060345
     9  C   -0.062143
    10  C    0.034801
    11  C    0.055110
    12  C    0.051957
    13  C   -0.062159
    14  H    0.017763
    15  N   -0.433224
    16  C    0.175010
    17  C   -0.115161
    18  C   -0.045472
    19  C    0.143485
    20  C    0.083559
    21  C    0.007298
    22  O   -0.223193
    23  C    0.070554
    24  N   -0.254233
    25  C   -0.036995
    26  C   -0.004012
    27  C   -0.057320
    28  C    0.011917
    29  C    0.079539
    30  C    0.047624
    31  C    0.022746
    32  N   -0.327806
    33  C    0.125498
    34  C   -0.201392
    35  C    0.044232
    36  C    0.113387
    37  C    0.151097
    38  C   -0.008642
    39  O   -0.172841
    40  C    0.036403
    41  C    0.195471
    42  O   -0.253665
    43  O   -0.318325
    44  C    0.171994
    45  H   -0.038309
    46  H    0.004204
    47  H   -0.019197
    48  H    0.008457
    49  H    0.010557
    50  H    0.018378
    51  H   -0.002279
    52  H    0.013813
    53  H   -0.010884
    54  H    0.002152
    55  H    0.034898
    56  H    0.034195
    57  H    0.018588
    58  H    0.030373
    59  H    0.016783
    60  H    0.031160
    61  H    0.040931
    62  H    0.035934
    63  H    0.017079
    64  H    0.006256
    65  H    0.011855
    66  H    0.025620
    67  H    0.033364
    68  H   -0.002034
    69  H   -0.015552
    70  H    0.028553
    71  H    0.017474
    72  H    0.021553
    73  H    0.054880
    74  H   -0.004389
    75  H    0.025635
    76  H    0.050966
    77  H    0.049995
    78  H    0.029559
    79  H    0.028388
    80  Mg   0.808497
    81  C    0.026512
    82  C   -0.060750
    83  C   -0.021868
    84  C   -0.054806
    85  N   -0.238510
    86  C   -0.066707
    87  C   -0.007327
    88  C   -0.085887
    89  C    0.025289
    90  C    0.085426
    91  C    0.072657
    92  C   -0.063544
    93  H    0.018138
    94  N   -0.411436
    95  C    0.127361
    96  C   -0.147929
    97  C    0.024194
    98  C    0.084047
    99  C    0.141734
   100  C   -0.053930
   101  O   -0.216877
   102  C    0.078833
   103  N   -0.260293
   104  C    0.038680
   105  C   -0.046170
   106  C    0.025410
   107  C   -0.014255
   108  C    0.052458
   109  C    0.002703
   110  C    0.007450
   111  N   -0.333215
   112  C    0.096731
   113  C   -0.206550
   114  C    0.019520
   115  C    0.125908
   116  C    0.134638
   117  C    0.005926
   118  O   -0.180172
   119  C    0.016424
   120  C    0.215298
   121  O   -0.202548
   122  O   -0.345891
   123  C    0.186840
   124  H   -0.020651
   125  H   -0.066423
   126  H   -0.026108
   127  H   -0.009654
   128  H    0.002546
   129  H    0.020023
   130  H    0.025908
   131  H    0.005821
   132  H    0.007757
   133  H    0.031967
   134  H    0.024939
   135  H    0.024288
   136  H    0.034555
   137  H    0.037894
   138  H   -0.012210
   139  H    0.019239
   140  H    0.050499
   141  H    0.019685
   142  H    0.023831
   143  H    0.010346
   144  H    0.032476
   145  H    0.011792
   146  H    0.010060
   147  H    0.015647
   148  H    0.005377
   149  H    0.012281
   150  H    0.025458
   151  H    0.040065
   152  H    0.049509
   153  H    0.045720
   154  H    0.017041
   155  H    0.029876
   156  H    0.038683
   157  H    0.024809
   158  H    0.034947
 Sum of Mulliken charges =  -0.00000

 Dipole moment (field-independent basis, Debye):
    X=              6.3227    Y=              1.8106    Z=             -1.1889  Tot=              6.6835
 Quadrupole moment (field-independent basis, Debye-Ang):
   XX=           -607.6157   YY=           -521.6826   ZZ=           -528.2003
   XY=            163.8308   XZ=            -74.6424   YZ=             -5.6928

 Normal termination of Gaussian 16 at Thu Sep 16 00:21:00 2021.
