 Gaussian 16, Revision A.03,
 Gaussian 16:  ES64L-G16RevA.03 25-Dec-2016

 -----------------------------------
 #p cam-b3lyp/Def2SVP td=(nstates=5)
 -----------------------------------

 --------------------------------
 TDDFT excited states in gaussian
 --------------------------------
 Symbolic Z-matrix:
 Charge =  0 Multiplicity = 1

                         Standard orientation:
 ---------------------------------------------------------------------
 Center     Atomic      Atomic             Coordinates (Angstroms)
 Number     Number       Type             X           Y           Z
 ---------------------------------------------------------------------
      1         12           0      -21.242739    0.090235   -0.463628
      2          6           0      -17.871791   -0.874567   -0.063312
      3          6           0      -22.214486   -3.127427    0.469135
      4          6           0      -24.360420    1.333295    0.127342
      5          6           0      -20.021911    3.431917   -0.879079
      6          7           0      -20.165935   -1.740236    0.084449
      7          6           0      -18.829987   -1.891076    0.206158
      8          6           0      -18.473331   -3.304641    0.770793
      9          6           0      -19.863616   -4.059095    0.545818
     10          6           0      -20.874294   -2.890897    0.307205
     11          6           0      -20.046602   -5.051386   -0.624903
     12          6           0      -18.048881   -3.157930    2.280942
     13          6           0      -16.918165   -4.129940    2.718380
     14          1           0      -17.084887   -4.768456    4.157183
     15          7           0      -23.140963   -0.826177    0.024139
     16          6           0      -23.281057   -2.157922    0.311952
     17          6           0      -24.660993   -2.383855    0.519149
     18          6           0      -25.343105   -1.130990    0.505602
     19          6           0      -24.296281   -0.112803    0.157194
     20          6           0      -25.284339   -3.729128    0.807477
     21          6           0      -26.754490   -0.876334    0.912272
     22          8           0      -27.462366   -1.757328    1.373256
     23          6           0      -27.402632    0.408735    0.875703
     24          7           0      -22.026718    2.159503   -0.286591
     25          6           0      -23.414147    2.346536   -0.198909
     26          6           0      -23.765817    3.785361   -0.414329
     27          6           0      -22.387659    4.498856   -0.674221
     28          6           0      -21.411326    3.336726   -0.615442
     29          6           0      -24.760932    3.887210   -1.577358
     30          6           0      -22.156419    5.776049    0.218163
     31          6           0      -21.888359    7.064256   -0.499235
     32          7           0      -19.320316    1.137313   -0.515524
     33          6           0      -19.027401    2.459035   -0.746160
     34          6           0      -17.567655    2.645138   -0.898611
     35          6           0      -17.113643    1.341990   -0.563146
     36          6           0      -18.188381    0.482342   -0.434074
     37          6           0      -16.772874    3.921233   -1.127272
     38          6           0      -15.919621    0.603524   -0.248265
     39          8           0      -14.739832    0.983986   -0.191653
     40          6           0      -16.299880   -0.842947    0.066837
     41          6           0      -15.578637   -1.787950   -0.806024
     42          8           0      -14.870017   -2.627293   -0.381824
     43          8           0      -15.960687   -1.725238   -2.114873
     44          6           0      -15.401033   -2.861502   -2.878549
     45          1           0      -22.554217   -4.143645    0.681875
     46          1           0      -25.399193    1.648446    0.237798
     47          1           0      -19.469427    4.371222   -0.956906
     48          1           0      -17.656573   -3.710444    0.173603
     49          1           0      -20.342255   -4.431973    1.451192
     50          1           0      -19.361414   -4.809278   -1.438106
     51          1           0      -21.053762   -5.140506   -1.032199
     52          1           0      -19.745817   -6.023023   -0.234497
     53          1           0      -18.913953   -3.255816    2.937431
     54          1           0      -17.699281   -2.128980    2.366004
     55          1           0      -16.024571   -3.506665    2.680594
     56          1           0      -16.883106   -4.840745    1.892476
     57          1           0      -26.347323   -3.826885    0.586629
     58          1           0      -25.104219   -3.866590    1.873325
     59          1           0      -24.736054   -4.605299    0.461288
     60          1           0      -27.402032    0.730782   -0.166423
     61          1           0      -26.908673    1.118668    1.539725
     62          1           0      -28.427278    0.287664    1.227312
     63          1           0      -24.121094    4.236060    0.512049
     64          1           0      -22.138140    4.756135   -1.703848
     65          1           0      -25.212467    2.931095   -1.843158
     66          1           0      -24.281846    4.245996   -2.488319
     67          1           0      -25.654124    4.415622   -1.245382
     68          1           0      -21.313488    5.511562    0.856621
     69          1           0      -23.030542    6.076977    0.794461
     70          1           0      -20.951644    7.459468   -0.107126
     71          1           0      -22.651419    7.813465   -0.287407
     72          1           0      -21.929352    6.968566   -1.584296
     73          1           0      -16.592739    4.475851   -0.206152
     74          1           0      -17.204920    4.565905   -1.893705
     75          1           0      -15.803799    3.509559   -1.408990
     76          1           0      -15.931150   -1.110910    1.056121
     77          1           0      -15.736342   -2.762385   -3.911276
     78          1           0      -15.730442   -3.810186   -2.454997
     79          1           0      -14.317535   -2.837771   -2.989810
     80         12           0       20.470981    0.771863   -0.221122
     81          6           0       20.316138   -2.659189   -0.586278
     82          6           0       17.303086    0.675478    1.122557
     83          6           0       20.841943    4.062187    0.692857
     84          6           0       23.679035    0.769890   -1.469953
     85          7           0       19.075695   -0.811248    0.397391
     86          6           0       19.222368   -2.143888    0.066266
     87          6           0       18.013964   -2.972619    0.493792
     88          6           0       16.938529   -1.845195    0.718469
     89          6           0       17.822118   -0.608692    0.795408
     90          6           0       15.729906   -1.767171   -0.320459
     91          6           0       18.227943   -3.942257    1.699594
     92          6           0       17.662576   -5.336649    1.530489
     93          1           0       16.470729   -5.586461    2.441476
     94          7           0       19.241764    2.121254    0.771942
     95          6           0       17.996014    1.908272    1.210616
     96          6           0       17.421755    3.130384    1.746236
     97          6           0       18.342759    4.162565    1.680533
     98          6           0       19.567613    3.479755    1.078999
     99          6           0       15.960462    3.181495    2.402040
    100          6           0       18.111173    5.662294    2.067406
    101          8           0       17.002442    5.991932    2.575998
    102          6           0       19.167055    6.687135    1.901773
    103          7           0       22.175939    2.216085   -0.144084
    104          6           0       22.023619    3.497724    0.097946
    105          6           0       23.181769    4.332999   -0.406474
    106          6           0       24.205902    3.335390   -1.046401
    107          6           0       23.305999    2.010357   -0.972061
    108          6           0       22.908617    5.674684   -1.158455
    109          6           0       25.606929    3.119727   -0.404156
    110          6           0       26.597534    2.471679   -1.349209
    111          7           0       21.778738   -0.678167   -0.897368
    112          6           0       23.061609   -0.526328   -1.472562
    113          6           0       23.484988   -1.814191   -1.950700
    114          6           0       22.427518   -2.711419   -1.663551
    115          6           0       21.471565   -1.950042   -0.996889
    116          6           0       24.694030   -2.102465   -2.828165
    117          6           0       22.046300   -4.026365   -1.820721
    118          8           0       22.574517   -5.031010   -2.212820
    119          6           0       20.670170   -4.111761   -0.977062
    120          6           0       21.089193   -4.757561    0.342753
    121          8           0       21.618826   -4.185698    1.276050
    122          8           0       20.766706   -6.101779    0.248709
    123          6           0       21.184052   -6.937308    1.370028
    124          1           0       16.241216    0.742655    1.367612
    125          1           0       20.886455    5.109413    0.998096
    126          1           0       24.619077    0.639749   -2.010150
    127          1           0       17.686627   -3.542430   -0.375361
    128          1           0       16.607678   -1.935011    1.753793
    129          1           0       15.426190   -0.724964   -0.222779
    130          1           0       14.837285   -2.311501   -0.011187
    131          1           0       15.948930   -2.042369   -1.352064
    132          1           0       17.723688   -3.430533    2.519581
    133          1           0       19.228773   -3.983830    2.128879
    134          1           0       18.467893   -6.039732    1.744405
    135          1           0       17.309451   -5.524027    0.516249
    136          1           0       15.438005    2.225056    2.448342
    137          1           0       15.324554    3.885654    1.864455
    138          1           0       15.975973    3.433183    3.461565
    139          1           0       19.450653    6.750575    0.851701
    140          1           0       19.975403    6.551154    2.620352
    141          1           0       18.635771    7.630247    2.023585
    142          1           0       23.850067    4.722232    0.361901
    143          1           0       24.252531    3.424295   -2.132025
    144          1           0       21.853700    5.898483   -0.993932
    145          1           0       23.226027    5.668274   -2.201833
    146          1           0       23.442799    6.532986   -0.750686
    147          1           0       25.433316    2.552829    0.510395
    148          1           0       25.907309    4.115858   -0.079366
    149          1           0       27.588601    2.845472   -1.090771
    150          1           0       26.439824    2.682537   -2.407591
    151          1           0       26.647090    1.404460   -1.132981
    152          1           0       24.710920   -3.112082   -3.238738
    153          1           0       25.585593   -1.903712   -2.234840
    154          1           0       24.738468   -1.419811   -3.676833
    155          1           0       19.882915   -4.603767   -1.549084
    156          1           0       22.272847   -6.969131    1.413436
    157          1           0       20.750644   -7.935360    1.315420
    158          1           0       20.870622   -6.472298    2.304283
 ---------------------------------------------------------------------

 SCF Done:  E(RCAM-B3LYP) =  -4069.78500539     A.U. after   18 cycles

 Excitation energies and oscillator strengths:

 Excited State   1:      Singlet-A      1.6804 eV  737.82 nm  f=0.4102  <S**2>=0.000
     309 -> 315       -0.17287
     311 -> 313        0.68702
     309 <- 315       -0.10657
 This state for optimization and/or second-order correction.
 Total Energy, E(TD-HF/TD-DFT) =  -4069.72325139
 Copying the excited state density for this state as the 1-particle RhoCI density.

 Excited State   2:      Singlet-A      1.8654 eV  664.64 nm  f=0.3713  <S**2>=0.000
     310 -> 316        0.14280
     312 -> 314        0.68807

 Excited State   3:      Singlet-A      2.2017 eV  563.14 nm  f=0.1133  <S**2>=0.000
     309 -> 313        0.64204
     311 -> 315        0.28114

 Excited State   4:      Singlet-A      2.2638 eV  547.68 nm  f=0.1278  <S**2>=0.000
     310 -> 314        0.64676
     312 -> 316       -0.24681
     312 -> 317       -0.10324

 Excited State   5:      Singlet-A      3.0564 eV  405.65 nm  f=0.0000  <S**2>=0.000
     312 -> 313        0.70709

 The electronic state is 1-A.
 Alpha  occ. eigenvalues --  -46.90862 -46.89375 -19.25139 -19.24494 -19.20197
 Alpha  occ. eigenvalues --  -19.19944 -19.19849 -19.18870 -19.17694 -19.17345
 Alpha  occ. eigenvalues --  -14.43000 -14.42728 -14.42286 -14.42022 -14.40525
 Alpha  occ. eigenvalues --  -14.39932 -14.39326 -14.38463 -10.39064 -10.38757
 Alpha  occ. eigenvalues --  -10.37003 -10.34799 -10.33529 -10.33375 -10.33050
 Alpha  occ. eigenvalues --  -10.32393 -10.32269 -10.32010 -10.31885 -10.31849
 Alpha  occ. eigenvalues --  -10.31694 -10.31120 -10.31089 -10.31054 -10.31014
 Alpha  occ. eigenvalues --  -10.30330 -10.30208 -10.29884 -10.29777 -10.29768
 Alpha  occ. eigenvalues --  -10.29333 -10.29138 -10.29108 -10.29058 -10.28934
 Alpha  occ. eigenvalues --  -10.28797 -10.28532 -10.28486 -10.28449 -10.28384
 Alpha  occ. eigenvalues --  -10.28365 -10.28322 -10.28268 -10.28195 -10.28174
 Alpha  occ. eigenvalues --  -10.28041 -10.28033 -10.27774 -10.27566 -10.27505
 Alpha  occ. eigenvalues --  -10.27487 -10.27396 -10.27207 -10.27165 -10.27122
 Alpha  occ. eigenvalues --  -10.27067 -10.26993 -10.26929 -10.26911 -10.26897
 Alpha  occ. eigenvalues --  -10.26836 -10.26834 -10.26757 -10.26726 -10.26685
 Alpha  occ. eigenvalues --  -10.26542 -10.26418 -10.26417 -10.25914 -10.25782
 Alpha  occ. eigenvalues --  -10.25774 -10.25475 -10.25314 -10.25284 -10.25272
 Alpha  occ. eigenvalues --  -10.23076  -3.19009  -3.17814  -1.93923  -1.93445
 Alpha  occ. eigenvalues --   -1.93305  -1.92697  -1.92275  -1.92117  -1.18000
 Alpha  occ. eigenvalues --   -1.15437  -1.09776  -1.09577  -1.09118  -1.09068
 Alpha  occ. eigenvalues --   -1.08982  -1.07881  -1.05140  -1.04559  -1.03816
 Alpha  occ. eigenvalues --   -1.03776  -1.03461  -1.03167  -1.02562  -1.02523
 Alpha  occ. eigenvalues --   -0.92656  -0.91537  -0.89449  -0.89159  -0.89046
 Alpha  occ. eigenvalues --   -0.88468  -0.88262  -0.88088  -0.87944  -0.87041
 Alpha  occ. eigenvalues --   -0.87032  -0.86606  -0.85849  -0.85800  -0.84908
 Alpha  occ. eigenvalues --   -0.84681  -0.84480  -0.83611  -0.83180  -0.82739
 Alpha  occ. eigenvalues --   -0.82540  -0.82033  -0.80954  -0.80683  -0.80579
 Alpha  occ. eigenvalues --   -0.80195  -0.78686  -0.77640  -0.77618  -0.77138
 Alpha  occ. eigenvalues --   -0.76895  -0.76712  -0.76523  -0.75458  -0.75304
 Alpha  occ. eigenvalues --   -0.75118  -0.73172  -0.72546  -0.72369  -0.71669
 Alpha  occ. eigenvalues --   -0.69702  -0.69400  -0.69292  -0.69089  -0.67985
 Alpha  occ. eigenvalues --   -0.67879  -0.67329  -0.66926  -0.66378  -0.65740
 Alpha  occ. eigenvalues --   -0.65587  -0.65457  -0.65023  -0.64677  -0.64653
 Alpha  occ. eigenvalues --   -0.64017  -0.63336  -0.61679  -0.60107  -0.60051
 Alpha  occ. eigenvalues --   -0.59946  -0.59447  -0.59020  -0.59002  -0.58915
 Alpha  occ. eigenvalues --   -0.58437  -0.58337  -0.57817  -0.57365  -0.57106
 Alpha  occ. eigenvalues --   -0.56537  -0.56413  -0.56109  -0.55583  -0.55465
 Alpha  occ. eigenvalues --   -0.55163  -0.55016  -0.54581  -0.54161  -0.53899
 Alpha  occ. eigenvalues --   -0.53704  -0.53534  -0.53410  -0.53310  -0.53224
 Alpha  occ. eigenvalues --   -0.53134  -0.52852  -0.52691  -0.52683  -0.52293
 Alpha  occ. eigenvalues --   -0.51987  -0.51785  -0.51567  -0.51498  -0.51360
 Alpha  occ. eigenvalues --   -0.51005  -0.50917  -0.50777  -0.50503  -0.50128
 Alpha  occ. eigenvalues --   -0.50073  -0.49982  -0.49884  -0.49786  -0.49592
 Alpha  occ. eigenvalues --   -0.49425  -0.49295  -0.49066  -0.49004  -0.48681
 Alpha  occ. eigenvalues --   -0.48647  -0.48516  -0.48425  -0.48232  -0.48197
 Alpha  occ. eigenvalues --   -0.47560  -0.47554  -0.47357  -0.47337  -0.47152
 Alpha  occ. eigenvalues --   -0.46989  -0.46821  -0.46709  -0.46520  -0.46382
 Alpha  occ. eigenvalues --   -0.46358  -0.46163  -0.46107  -0.45935  -0.45785
 Alpha  occ. eigenvalues --   -0.45193  -0.45167  -0.45164  -0.45116  -0.45020
 Alpha  occ. eigenvalues --   -0.44882  -0.44855  -0.44710  -0.44639  -0.44378
 Alpha  occ. eigenvalues --   -0.44252  -0.44041  -0.43918  -0.43621  -0.43562
 Alpha  occ. eigenvalues --   -0.43388  -0.43356  -0.43058  -0.43029  -0.42906
 Alpha  occ. eigenvalues --   -0.42681  -0.42673  -0.42529  -0.42450  -0.42324
 Alpha  occ. eigenvalues --   -0.42153  -0.42014  -0.41809  -0.41575  -0.41304
 Alpha  occ. eigenvalues --   -0.41053  -0.40818  -0.40747  -0.40386  -0.40160
 Alpha  occ. eigenvalues --   -0.40132  -0.39838  -0.39659  -0.39261  -0.39248
 Alpha  occ. eigenvalues --   -0.38945  -0.38702  -0.38033  -0.37925  -0.37665
 Alpha  occ. eigenvalues --   -0.37311  -0.37263  -0.36915  -0.36461  -0.36428
 Alpha  occ. eigenvalues --   -0.36302  -0.35309  -0.34949  -0.34393  -0.34263
 Alpha  occ. eigenvalues --   -0.34160  -0.33518  -0.33054  -0.32414  -0.31854
 Alpha  occ. eigenvalues --   -0.31519  -0.31000  -0.30831  -0.30417  -0.30033
 Alpha  occ. eigenvalues --   -0.29635  -0.29225  -0.29076  -0.24535  -0.24041
 Alpha  occ. eigenvalues --   -0.21600  -0.21460
 Alpha virt. eigenvalues --   -0.09409  -0.08423  -0.02278  -0.01765   0.00143
 Alpha virt. eigenvalues --    0.00260   0.01188   0.01830   0.02019   0.02403
 Alpha virt. eigenvalues --    0.04665   0.05203   0.05420   0.05861   0.06061

 Mulliken charges:
               1
     1  Mg   0.801189
     2  C    0.004416
     3  C   -0.071555
     4  C   -0.019776
     5  C   -0.048245
     6  N   -0.286883
     7  C   -0.055421
     8  C   -0.042450
     9  C   -0.052352
    10  C    0.058059
    11  C    0.080545
    12  C    0.048741
    13  C   -0.050672
    14  H    0.026245
    15  N   -0.365251
    16  C    0.114140
    17  C   -0.149639
    18  C   -0.022440
    19  C    0.090970
    20  C    0.140524
    21  C   -0.050230
    22  O   -0.214547
    23  C    0.079030
    24  N   -0.287386
    25  C    0.025745
    26  C   -0.009797
    27  C   -0.012914
    28  C    0.028431
    29  C    0.074428
    30  C    0.039541
    31  C   -0.004092
    32  N   -0.281379
    33  C    0.026148
    34  C   -0.155012
    35  C    0.014928
    36  C    0.076302
    37  C    0.107435
    38  C    0.020269
    39  O   -0.190088
    40  C    0.052737
    41  C    0.149206
    42  O   -0.180130
    43  O   -0.336490
    44  C    0.181937
    45  H   -0.017966
    46  H   -0.053329
    47  H   -0.027254
    48  H    0.012521
    49  H    0.009884
    50  H    0.010232
    51  H    0.025070
    52  H    0.017226
    53  H    0.017879
    54  H    0.012949
    55  H    0.042880
    56  H    0.031783
    57  H    0.047190
    58  H    0.015842
    59  H   -0.004951
    60  H    0.029973
    61  H    0.043490
    62  H    0.024778
    63  H    0.021294
    64  H    0.015153
    65  H    0.014944
    66  H    0.018909
    67  H    0.014612
    68  H    0.016980
    69  H    0.015951
    70  H    0.020658
    71  H    0.008646
    72  H    0.012710
    73  H    0.041375
    74  H    0.029836
    75  H    0.041862
    76  H    0.031437
    77  H    0.027482
    78  H    0.035974
    79  H    0.039761
    80  Mg   0.828931
    81  C   -0.030287
    82  C   -0.118184
    83  C   -0.096034
    84  C   -0.030508
    85  N   -0.261080
    86  C   -0.046084
    87  C   -0.037676
    88  C   -0.022704
    89  C    0.032236
    90  C    0.082806
    91  C    0.069544
    92  C   -0.053137
    93  H    0.008558
    94  N   -0.381672
    95  C    0.167555
    96  C   -0.137014
    97  C   -0.024688
    98  C    0.115552
    99  C    0.116981
   100  C    0.007378
   101  O   -0.226519
   102  C    0.070463
   103  N   -0.264383
   104  C    0.101600
   105  C   -0.027363
   106  C   -0.054114
   107  C    0.007692
   108  C    0.065024
   109  C    0.060314
   110  C    0.025646
   111  N   -0.347639
   112  C    0.034465
   113  C   -0.140339
   114  C    0.052357
   115  C    0.114915
   116  C    0.104375
   117  C   -0.012358
   118  O   -0.157353
   119  C   -0.046234
   120  C    0.232178
   121  O   -0.211959
   122  O   -0.335425
   123  C    0.185509
   124  H   -0.025925
   125  H   -0.042750
   126  H   -0.041148
   127  H   -0.000710
   128  H    0.006152
   129  H    0.004955
   130  H    0.021712
   131  H    0.031770
   132  H   -0.003998
   133  H    0.028878
   134  H    0.025627
   135  H    0.027226
   136  H   -0.002780
   137  H    0.041127
   138  H    0.035908
   139  H    0.040785
   140  H    0.068719
   141  H    0.028197
   142  H    0.010210
   143  H    0.006665
   144  H    0.011364
   145  H    0.019342
   146  H    0.006904
   147  H    0.016839
   148  H    0.001320
   149  H    0.007746
   150  H    0.022090
   151  H    0.031329
   152  H    0.034175
   153  H    0.016106
   154  H    0.019379
   155  H    0.024855
   156  H    0.038201
   157  H    0.041674
   158  H    0.026733
 Sum of Mulliken charges =  -0.00000

 Dipole moment (field-independent basis, Debye):
    X=             -3.0608    Y=              6.9212    Z=             -3.6549  Tot=              8.4042
 Quadrupole moment (field-independent basis, Debye-Ang):
   XX=           -471.0432   YY=           -485.1991   ZZ=           -514.1864
   XY=             41.7225   XZ=             57.5018   YZ=            -15.5236

 Normal termination of Gaussian 16 at Wed Sep  1 02:09:06 2021.
