 Gaussian 16, Revision A.03,
 Gaussian 16:  ES64L-G16RevA.03 25-Dec-2016

 ----------------------------------------------------------
 #p cam-b3lyp/Def2SVP td=(nstates=5) density=(transition=1)
 ----------------------------------------------------------

 --------------------------------
 TDDFT excited states in gaussian
 --------------------------------
 Symbolic Z-matrix:
 Charge =  0 Multiplicity = 1

                         Standard orientation:
 ---------------------------------------------------------------------
 Center     Atomic      Atomic             Coordinates (Angstroms)
 Number     Number       Type             X           Y           Z
 ---------------------------------------------------------------------
      1         12           0        0.675385    0.073582   -0.171528
      2          6           0       -2.762374    0.019087    0.334634
      3          6           0        0.776172   -3.264947    0.268446
      4          6           0        4.041163    0.241458    0.115681
      5          6           0        0.596074    3.595294    0.209260
      6          7           0       -0.865818   -1.356938    0.156676
      7          6           0       -2.239614   -1.255424    0.186790
      8          6           0       -2.883667   -2.651802    0.407730
      9          6           0       -1.658555   -3.474347    0.913392
     10          6           0       -0.490293   -2.704532    0.315149
     11          6           0       -1.522300   -3.557451    2.474522
     12          6           0       -3.635786   -3.032772   -0.880593
     13          6           0       -4.961135   -3.653406   -0.651206
     14          1           0       -5.870998   -3.604935   -1.793972
     15          7           0        2.165562   -1.347987   -0.078163
     16          6           0        1.984472   -2.689147    0.035790
     17          6           0        3.233589   -3.344020   -0.261402
     18          6           0        4.214311   -2.288654   -0.311609
     19          6           0        3.487714   -1.054519    0.000865
     20          6           0        3.394096   -4.820286   -0.334139
     21          6           0        5.769614   -2.333237   -0.465155
     22          8           0        6.467862   -1.317891   -0.496900
     23          6           0        6.490123   -3.625874   -0.728830
     24          7           0        2.077542    1.697669    0.468598
     25          6           0        3.479211    1.486633    0.360068
     26          6           0        4.278818    2.743249    0.461788
     27          6           0        3.116050    3.769443    0.264732
     28          6           0        1.823665    2.957461    0.245799
     29          6           0        5.077501    2.890693    1.801046
     30          6           0        3.239631    4.607675   -1.059897
     31          6           0        3.446244    3.786336   -2.358007
     32          7           0       -0.761255    1.549921    0.088805
     33          6           0       -0.653203    2.946516    0.175766
     34          6           0       -1.970108    3.444661    0.316608
     35          6           0       -2.804747    2.334560    0.352476
     36          6           0       -2.025793    1.232156    0.224172
     37          6           0       -2.351599    4.890157    0.357344
     38          6           0       -4.123721    1.949391    0.544959
     39          8           0       -5.132157    2.651745    0.741436
     40          6           0       -4.239770    0.395260    0.539293
     41          6           0       -5.200698    0.109106   -0.656659
     42          8           0       -4.928637    0.280876   -1.858229
     43          8           0       -6.402457   -0.361862   -0.139023
     44          6           0       -7.578508   -0.471364   -1.059602
     45          1           0        0.690702   -4.323940    0.521106
     46          1           0        5.102145    0.499864    0.077939
     47          1           0        0.491892    4.678753    0.120756
     48          1           0       -3.678475   -2.588404    1.150179
     49          1           0       -1.677362   -4.461330    0.452160
     50          1           0       -2.329409   -3.106260    3.052379
     51          1           0       -0.660366   -2.984469    2.813974
     52          1           0       -1.511269   -4.606954    2.767956
     53          1           0       -3.041077   -3.819681   -1.342375
     54          1           0       -3.706676   -2.137102   -1.498317
     55          1           0       -5.428388   -3.062407    0.136682
     56          1           0       -4.808375   -4.658862   -0.259497
     57          1           0        2.436492   -5.318682   -0.483585
     58          1           0        4.021887   -5.134832    0.500231
     59          1           0        3.961591   -5.074823   -1.229338
     60          1           0        7.500315   -3.451707   -0.357619
     61          1           0        6.556445   -3.821921   -1.799249
     62          1           0        6.056521   -4.457611   -0.172711
     63          1           0        4.992922    2.880032   -0.351485
     64          1           0        3.099235    4.445940    1.119840
     65          1           0        4.628326    2.241506    2.553129
     66          1           0        5.116176    3.886662    2.242519
     67          1           0        6.131371    2.613737    1.761246
     68          1           0        4.028854    5.336742   -0.875558
     69          1           0        2.318155    5.189638   -1.073604
     70          1           0        2.656289    3.953028   -3.090596
     71          1           0        3.488916    2.738381   -2.059939
     72          1           0        4.381682    4.026133   -2.862645
     73          1           0       -2.904522    5.022502    1.287280
     74          1           0       -2.937001    5.103274   -0.537063
     75          1           0       -1.520499    5.592745    0.419773
     76          1           0       -4.726929    0.088397    1.464445
     77          1           0       -7.765238    0.536266   -1.430280
     78          1           0       -8.513202   -0.849366   -0.645517
     79          1           0       -7.113298   -1.139014   -1.784862
 ---------------------------------------------------------------------

 SCF Done:  E(RCAM-B3LYP) =  -2034.91030527     A.U. after   19 cycles

 Excitation energies and oscillator strengths:

 Excited State   1:      Singlet-A      1.6607 eV  746.56 nm  f=0.3778  <S**2>=0.000
     155 ->158        -0.16234
     156 ->157         0.68891
     155 <-158        -0.10412
 This state for optimization and/or second-order correction.
 Total Energy, E(TD-HF/TD-DFT) =  -2034.84927424
 Copying the excited state density for this state as the 1-particle RhoCI density.

 Excited State   2:      Singlet-A      2.2190 eV  558.75 nm  f=0.1283  <S**2>=0.000
     155 ->157         0.64335
     156 ->158         0.27229

 Excited State   3:      Singlet-A      3.2390 eV  382.79 nm  f=0.0003  <S**2>=0.000
     152 ->157        -0.38659
     152 ->159         0.15499
     152 ->161        -0.15821
     153 ->157         0.43061
     154 ->157        -0.30740

 Excited State   4:      Singlet-A      3.2568 eV  380.70 nm  f=0.0001  <S**2>=0.000
     152 ->157         0.43808
     152 ->159        -0.16972
     152 ->161         0.16808
     153 ->157         0.20968
     154 ->157        -0.43373

 Excited State   5:      Singlet-A      3.3308 eV  372.23 nm  f=0.0005  <S**2>=0.000
     152 ->157         0.16634
     153 ->157         0.47519
     154 ->157         0.42671
     156 ->158        -0.19755

 The electronic state is 1-A.
 Alpha  occ. eigenvalues --  -46.88327 -19.24749 -19.20015 -19.18742 -19.17660
 Alpha  occ. eigenvalues --  -14.41948 -14.41488 -14.39353 -14.38511 -10.40034
 Alpha  occ. eigenvalues --  -10.35292 -10.33642 -10.31981 -10.30962 -10.30562
 Alpha  occ. eigenvalues --  -10.30328 -10.30247 -10.30232 -10.29315 -10.29211
 Alpha  occ. eigenvalues --  -10.28331 -10.28313 -10.28252 -10.28221 -10.27915
 Alpha  occ. eigenvalues --  -10.27888 -10.27678 -10.27560 -10.27461 -10.27180
 Alpha  occ. eigenvalues --  -10.27020 -10.27019 -10.26737 -10.26535 -10.26406
 Alpha  occ. eigenvalues --  -10.26383 -10.25951 -10.25945 -10.25837 -10.25754
 Alpha  occ. eigenvalues --  -10.25746 -10.25576 -10.23789  -3.16923  -1.91804
 Alpha  occ. eigenvalues --   -1.91382  -1.91225  -1.14422  -1.09481  -1.07952
 Alpha  occ. eigenvalues --   -1.06654  -1.04816  -1.03908  -1.03524  -1.02233
 Alpha  occ. eigenvalues --   -0.92539  -0.89099  -0.89057  -0.88593  -0.87804
 Alpha  occ. eigenvalues --   -0.87135  -0.86542  -0.84605  -0.83513  -0.82173
 Alpha  occ. eigenvalues --   -0.81632  -0.80995  -0.80398  -0.78214  -0.77079
 Alpha  occ. eigenvalues --   -0.76940  -0.76040  -0.75476  -0.73256  -0.72055
 Alpha  occ. eigenvalues --   -0.69798  -0.68773  -0.67542  -0.66539  -0.65344
 Alpha  occ. eigenvalues --   -0.64666  -0.64460  -0.64073  -0.61569  -0.59893
 Alpha  occ. eigenvalues --   -0.59790  -0.59146  -0.58442  -0.57572  -0.57006
 Alpha  occ. eigenvalues --   -0.55988  -0.55624  -0.55335  -0.55085  -0.54770
 Alpha  occ. eigenvalues --   -0.53553  -0.53053  -0.52939  -0.52814  -0.52471
 Alpha  occ. eigenvalues --   -0.51940  -0.51677  -0.51465  -0.50498  -0.50354
 Alpha  occ. eigenvalues --   -0.49639  -0.49394  -0.49202  -0.48920  -0.48767
 Alpha  occ. eigenvalues --   -0.48525  -0.48091  -0.47982  -0.47691  -0.47370
 Alpha  occ. eigenvalues --   -0.47039  -0.46619  -0.46303  -0.45996  -0.45707
 Alpha  occ. eigenvalues --   -0.45475  -0.44614  -0.44494  -0.44187  -0.43758
 Alpha  occ. eigenvalues --   -0.43472  -0.43449  -0.43196  -0.43062  -0.42701
 Alpha  occ. eigenvalues --   -0.42372  -0.41969  -0.41749  -0.41595  -0.41072
 Alpha  occ. eigenvalues --   -0.40851  -0.40654  -0.40302  -0.39961  -0.39166
 Alpha  occ. eigenvalues --   -0.38210  -0.38040  -0.37372  -0.36837  -0.36604
 Alpha  occ. eigenvalues --   -0.36081  -0.34191  -0.34096  -0.33233  -0.31322
 Alpha  occ. eigenvalues --   -0.30831  -0.30062  -0.29728  -0.29408  -0.24247
 Alpha  occ. eigenvalues --   -0.21198
 Alpha virt. eigenvalues --   -0.09010  -0.01519   0.00526   0.02188   0.02418
 Alpha virt. eigenvalues --    0.04954   0.05065   0.06328   0.07526   0.08126
 Alpha virt. eigenvalues --    0.08934   0.09203   0.09857   0.10387   0.10770

 Mulliken charges:
               1
     1  Mg  11.997455
     2  C    6.031884
     3  C    5.990111
     4  C    5.961680
     5  C    5.988427
     6  N    7.022525
     7  C    5.963344
     8  C    6.002532
     9  C    5.993248
    10  C    6.024572
    11  C    5.995895
    12  C    6.007123
    13  C    5.999680
    14  H    1.001037
    15  N    6.989381
    16  C    6.042619
    17  C    6.020331
    18  C    6.013560
    19  C    6.045747
    20  C    5.994506
    21  C    6.012797
    22  O    8.029784
    23  C    5.994130
    24  N    6.981884
    25  C    6.046826
    26  C    5.983024
    27  C    6.007547
    28  C    5.982319
    29  C    6.000082
    30  C    6.008682
    31  C    6.006783
    32  N    7.004863
    33  C    5.965205
    34  C    5.968689
    35  C    5.998643
    36  C    5.966575
    37  C    6.005177
    38  C    5.986431
    39  O    7.968757
    40  C    5.994573
    41  C    5.997148
    42  O    7.996825
    43  O    7.998431
    44  C    6.000891
    45  H    1.015046
    46  H    1.003772
    47  H    0.982179
    48  H    1.001054
    49  H    1.001609
    50  H    1.017394
    51  H    0.999422
    52  H    1.003617
    53  H    0.986465
    54  H    1.006085
    55  H    1.003845
    56  H    0.993835
    57  H    1.016753
    58  H    1.021002
    59  H    1.019927
    60  H    1.014226
    61  H    1.011358
    62  H    1.003878
    63  H    1.001794
    64  H    0.996832
    65  H    0.999791
    66  H    1.010780
    67  H    0.996797
    68  H    0.989294
    69  H    1.007143
    70  H    1.003158
    71  H    0.984730
    72  H    0.992614
    73  H    0.980067
    74  H    0.978693
    75  H    0.981375
    76  H    0.991837
    77  H    1.001128
    78  H    0.995338
    79  H    0.995435
 Sum of Mulliken charges = 312.00000

 Dipole moment (field-independent basis, Debye):
    X=              7.2423    Y=             -8.2148    Z=             -0.2229  Tot=             10.9537
 Quadrupole moment (field-independent basis, Debye-Ang):
   XX=              9.1612   YY=             -2.2768   ZZ=              0.4577
   XY=             -6.1100   XZ=             -0.5667   YZ=             -0.7846

 Normal termination of Gaussian 16 at Fri Oct  8 16:45:51 2021.
