 Gaussian 16, Revision A.03,
 Gaussian 16:  ES64L-G16RevA.03 25-Dec-2016

 ----------------------------------------------------------
 #p cam-b3lyp/Def2SVP td=(nstates=5) density=(transition=1)
 ----------------------------------------------------------

 --------------------------------
 TDDFT excited states in gaussian
 --------------------------------
 Symbolic Z-matrix:
 Charge =  0 Multiplicity = 1

                         Standard orientation:
 ---------------------------------------------------------------------
 Center     Atomic      Atomic             Coordinates (Angstroms)
 Number     Number       Type             X           Y           Z
 ---------------------------------------------------------------------
      1         12           0       25.667173   -0.193250   -0.313723
      2          6           0       22.372217   -0.435156    0.656346
      3          6           0       24.711871    1.979682   -2.769341
      4          6           0       28.776765    0.921507   -0.335396
      5          6           0       26.475324   -2.407229    2.288712
      6          7           0       23.780882    0.993741   -0.626802
      7          6           0       22.543781    0.549948   -0.285277
      8          6           0       21.446587    1.284741   -0.997080
      9          6           0       22.198296    1.681668   -2.308730
     10          6           0       23.654328    1.473675   -1.919113
     11          6           0       21.720441    0.878290   -3.552213
     12          6           0       20.955295    2.584340   -0.182453
     13          6           0       19.395810    2.917647   -0.298244
     14          1           0       19.258575    4.290985   -0.907464
     15          7           0       26.640137    1.117501   -1.550056
     16          6           0       26.119866    1.990911   -2.440018
     17          6           0       27.170416    2.807428   -3.034857
     18          6           0       28.363878    2.484216   -2.357060
     19          6           0       27.945147    1.464622   -1.354578
     20          6           0       26.851163    3.844385   -4.138973
     21          6           0       29.640828    3.256234   -2.539473
     22          8           0       29.687836    4.140484   -3.354417
     23          6           0       30.922076    3.038136   -1.712169
     24          7           0       27.470551   -0.748440    0.727604
     25          6           0       28.559776   -0.144302    0.547547
     26          6           0       29.624395   -0.548074    1.499314
     27          6           0       28.903114   -1.653314    2.366579
     28          6           0       27.554301   -1.620792    1.790914
     29          6           0       30.936254   -0.972328    0.756445
     30          6           0       28.915417   -1.297150    3.924998
     31          6           0       28.653762   -2.468306    4.937544
     32          7           0       24.687041   -1.294442    1.130609
     33          6           0       25.145561   -2.227008    2.043292
     34          6           0       24.044516   -2.880794    2.694618
     35          6           0       22.892734   -2.228026    2.131035
     36          6           0       23.343304   -1.228183    1.290853
     37          6           0       24.098553   -3.976153    3.710304
     38          6           0       21.470532   -2.226252    2.131129
     39          8           0       20.593953   -2.866445    2.725952
     40          6           0       21.076044   -0.942355    1.328626
     41          6           0       19.961909   -1.335336    0.416787
     42          8           0       18.757005   -1.209467    0.676735
     43          8           0       20.471450   -1.904690   -0.717459
     44          6           0       19.344154   -2.333670   -1.592126
     45          1           0       24.508870    2.570989   -3.665084
     46          1           0       29.780088    1.351157   -0.326150
     47          1           0       26.732715   -2.987116    3.178348
     48          1           0       20.701380    0.514982   -1.193662
     49          1           0       21.971722    2.721112   -2.546625
     50          1           0       21.263398    1.561329   -4.267640
     51          1           0       20.921920    0.215684   -3.216817
     52          1           0       22.574715    0.313851   -3.924701
     53          1           0       21.521402    3.500636   -0.349176
     54          1           0       21.139109    2.452962    0.883388
     55          1           0       19.062179    2.981248    0.737598
     56          1           0       18.721381    2.198946   -0.763910
     57          1           0       27.121465    4.871975   -3.896160
     58          1           0       25.813754    3.830939   -4.475030
     59          1           0       27.391578    3.527932   -5.030489
     60          1           0       31.367339    2.054717   -1.859342
     61          1           0       30.791654    3.221416   -0.645336
     62          1           0       31.568001    3.872518   -1.987155
     63          1           0       29.776302    0.350554    2.097072
     64          1           0       29.209981   -2.691682    2.243492
     65          1           0       31.727523   -0.314460    1.115225
     66          1           0       30.830744   -0.905814   -0.326545
     67          1           0       31.345482   -1.927740    1.084439
     68          1           0       28.172320   -0.528372    4.137918
     69          1           0       29.898354   -0.866437    4.110154
     70          1           0       29.397747   -2.743637    5.684558
     71          1           0       28.515248   -3.408614    4.405691
     72          1           0       27.740424   -2.280252    5.501972
     73          1           0       25.071600   -4.435628    3.882872
     74          1           0       23.377717   -4.660386    3.264547
     75          1           0       23.631754   -3.468404    4.554434
     76          1           0       20.777799   -0.098049    1.951072
     77          1           0       18.832141   -3.178236   -1.132086
     78          1           0       19.682531   -2.789061   -2.522862
     79          1           0       18.715387   -1.460917   -1.769582
     80         12           0      -25.581436    0.215530    0.337276
     81          6           0      -22.518459   -1.096697   -0.831679
     82          6           0      -27.249020   -2.359608   -1.168044
     83          6           0      -28.385529    1.861210    0.883982
     84          6           0      -23.791190    3.077378    1.428469
     85          7           0      -24.907266   -1.590204   -0.768049
     86          6           0      -23.663501   -1.887606   -1.088627
     87          6           0      -23.619635   -3.340306   -1.526962
     88          6           0      -25.083382   -3.601641   -2.053196
     89          6           0      -25.829832   -2.440541   -1.296336
     90          6           0      -25.137545   -3.597457   -3.628251
     91          6           0      -23.320732   -4.306725   -0.352161
     92          6           0      -22.759979   -5.739011   -0.762062
     93          1           0      -22.565091   -6.144196   -2.225620
     94          7           0      -27.514844   -0.276267    0.107604
     95          6           0      -28.065857   -1.442875   -0.481925
     96          6           0      -29.539243   -1.382307   -0.338474
     97          6           0      -29.873022   -0.086581    0.196794
     98          6           0      -28.588248    0.604074    0.441634
     99          6           0      -30.453912   -2.497356   -0.704750
    100          6           0      -31.245652    0.605476    0.554376
    101          8           0      -31.343506    1.711666    1.102823
    102          6           0      -32.513666   -0.044874    0.082231
    103          7           0      -26.037595    2.263403    0.959211
    104          6           0      -27.262969    2.671161    1.157571
    105          6           0      -27.394745    4.062278    1.711234
    106          6           0      -25.894631    4.486290    1.890623
    107          6           0      -25.166006    3.164672    1.488645
    108          6           0      -28.309999    4.934768    0.847187
    109          6           0      -25.517801    4.915233    3.303121
    110          6           0      -24.544333    6.141209    3.431779
    111          7           0      -23.527776    0.912763    0.408049
    112          6           0      -22.962587    2.093031    0.929473
    113          6           0      -21.545599    1.970947    0.901300
    114          6           0      -21.292847    0.834177    0.069034
    115          6           0      -22.496341    0.214629   -0.154214
    116          6           0      -20.575598    2.846257    1.641824
    117          6           0      -20.312477   -0.099947   -0.534893
    118          8           0      -19.100752   -0.044724   -0.568541
    119          6           0      -21.132883   -1.215757   -1.340926
    120          6           0      -20.388195   -2.510472   -1.356650
    121          8           0      -20.080655   -3.169595   -0.407628
    122          8           0      -19.978453   -2.849220   -2.659805
    123          6           0      -18.724437   -3.623041   -2.778516
    124          1           0      -27.855737   -3.032010   -1.778846
    125          1           0      -29.247500    2.432061    1.233807
    126          1           0      -23.266457    3.940404    1.843732
    127          1           0      -22.760413   -3.364227   -2.197152
    128          1           0      -25.467946   -4.562198   -1.708706
    129          1           0      -24.148733   -3.396626   -4.039224
    130          1           0      -25.711293   -2.699525   -3.857774
    131          1           0      -25.478343   -4.531012   -4.076124
    132          1           0      -24.287040   -4.438399    0.136392
    133          1           0      -22.637076   -3.789198    0.320707
    134          1           0      -23.440546   -6.443371   -0.281308
    135          1           0      -21.812017   -5.825265   -0.230442
    136          1           0      -30.033422   -3.474909   -0.937952
    137          1           0      -31.034070   -2.279270   -1.600949
    138          1           0      -31.075267   -2.621222    0.182548
    139          1           0      -32.913896   -0.789824    0.769792
    140          1           0      -32.156592   -0.454275   -0.863551
    141          1           0      -33.214356    0.768469   -0.104462
    142          1           0      -27.858365    3.871548    2.679021
    143          1           0      -25.580714    5.292968    1.229324
    144          1           0      -28.367025    4.618705   -0.194878
    145          1           0      -27.847578    5.921021    0.850988
    146          1           0      -29.328715    4.986482    1.232066
    147          1           0      -25.044427    4.098850    3.848328
    148          1           0      -26.476628    4.997647    3.814720
    149          1           0      -24.151372    6.442567    2.460917
    150          1           0      -23.720733    5.767816    4.039996
    151          1           0      -24.903002    7.049338    3.917412
    152          1           0      -20.889541    3.864715    1.412662
    153          1           0      -19.535231    2.730289    1.337484
    154          1           0      -20.697102    2.708154    2.716663
    155          1           0      -21.112711   -0.960081   -2.399841
    156          1           0      -18.973991   -4.598002   -3.197435
    157          1           0      -18.208632   -3.725860   -1.823170
    158          1           0      -18.105888   -3.056450   -3.474510
 ---------------------------------------------------------------------

 SCF Done:  E(RCAM-B3LYP) =  -4069.78816293     A.U. after   19 cycles

 Excitation energies and oscillator strengths:

 Excited State   1:      Singlet-A      1.6889 eV  734.09 nm  f=0.3605  <S**2>=0.000
     309 -> 316       -0.16437
     312 -> 313        0.68793
     309 <- 316       -0.10173
 This state for optimization and/or second-order correction.
 Total Energy, E(TD-HF/TD-DFT) =  -4069.72609546
 Copying the excited state density for this state as the 1-particle RhoCI density.

 Excited State   2:      Singlet-A      1.7948 eV  690.81 nm  f=0.3738  <S**2>=0.000
     310 -> 315       -0.18887
     311 -> 314        0.68030
     310 <- 315       -0.10306

 Excited State   3:      Singlet-A      2.1692 eV  571.57 nm  f=0.0991  <S**2>=0.000
     310 -> 314        0.64307
     311 -> 315        0.27289

 Excited State   4:      Singlet-A      2.2120 eV  560.50 nm  f=0.1067  <S**2>=0.000
     309 -> 313        0.64121
     312 -> 316        0.27962

 Excited State   5:      Singlet-A      3.2236 eV  384.61 nm  f=0.0000  <S**2>=0.000
     311 -> 313        0.70710

 The electronic state is 1-A.
 Alpha  occ. eigenvalues --  -46.89197 -46.88508 -19.25530 -19.23230 -19.20277
 Alpha  occ. eigenvalues --  -19.19540 -19.19499 -19.19011 -19.18331 -19.17872
 Alpha  occ. eigenvalues --  -14.42088 -14.41936 -14.41882 -14.41708 -14.40285
 Alpha  occ. eigenvalues --  -14.39712 -14.38563 -14.37972 -10.38631 -10.38513
 Alpha  occ. eigenvalues --  -10.36767 -10.35733 -10.34779 -10.34044 -10.32289
 Alpha  occ. eigenvalues --  -10.32182 -10.31684 -10.31682 -10.31516 -10.30957
 Alpha  occ. eigenvalues --  -10.30846 -10.30784 -10.30656 -10.30604 -10.30579
 Alpha  occ. eigenvalues --  -10.30228 -10.30063 -10.29943 -10.29701 -10.29347
 Alpha  occ. eigenvalues --  -10.29177 -10.28753 -10.28367 -10.28365 -10.28186
 Alpha  occ. eigenvalues --  -10.28176 -10.28156 -10.28137 -10.28059 -10.28013
 Alpha  occ. eigenvalues --  -10.27951 -10.27860 -10.27824 -10.27824 -10.27751
 Alpha  occ. eigenvalues --  -10.27664 -10.27661 -10.27598 -10.27595 -10.27562
 Alpha  occ. eigenvalues --  -10.27561 -10.27546 -10.27405 -10.27356 -10.27232
 Alpha  occ. eigenvalues --  -10.27143 -10.26973 -10.26871 -10.26665 -10.26645
 Alpha  occ. eigenvalues --  -10.26633 -10.26588 -10.26560 -10.26255 -10.26194
 Alpha  occ. eigenvalues --  -10.26190 -10.26189 -10.26124 -10.26049 -10.25945
 Alpha  occ. eigenvalues --  -10.25842 -10.25833 -10.25583 -10.25416 -10.24407
 Alpha  occ. eigenvalues --  -10.24392  -3.17770  -3.16968  -1.92658  -1.92240
 Alpha  occ. eigenvalues --   -1.92062  -1.91881  -1.91425  -1.91265  -1.15918
 Alpha  occ. eigenvalues --   -1.15166  -1.11934  -1.10455  -1.09508  -1.08078
 Alpha  occ. eigenvalues --   -1.07027  -1.06962  -1.06397  -1.05075  -1.04566
 Alpha  occ. eigenvalues --   -1.04488  -1.03911  -1.02802  -1.01662  -1.00939
 Alpha  occ. eigenvalues --   -0.92471  -0.91784  -0.89707  -0.89252  -0.88871
 Alpha  occ. eigenvalues --   -0.88665  -0.88232  -0.87714  -0.87564  -0.87274
 Alpha  occ. eigenvalues --   -0.87204  -0.86853  -0.86603  -0.85408  -0.84274
 Alpha  occ. eigenvalues --   -0.83951  -0.83779  -0.83656  -0.82838  -0.82251
 Alpha  occ. eigenvalues --   -0.81804  -0.81665  -0.80889  -0.80641  -0.80318
 Alpha  occ. eigenvalues --   -0.79833  -0.78569  -0.78400  -0.77817  -0.77158
 Alpha  occ. eigenvalues --   -0.76780  -0.76345  -0.75944  -0.75467  -0.75366
 Alpha  occ. eigenvalues --   -0.75118  -0.72665  -0.72475  -0.72197  -0.71665
 Alpha  occ. eigenvalues --   -0.70464  -0.69797  -0.69288  -0.68590  -0.68126
 Alpha  occ. eigenvalues --   -0.67721  -0.67220  -0.66799  -0.66599  -0.66013
 Alpha  occ. eigenvalues --   -0.65332  -0.65162  -0.64826  -0.64492  -0.64434
 Alpha  occ. eigenvalues --   -0.63433  -0.62391  -0.61014  -0.60491  -0.60173
 Alpha  occ. eigenvalues --   -0.59597  -0.59158  -0.59071  -0.58777  -0.58570
 Alpha  occ. eigenvalues --   -0.58024  -0.57951  -0.57509  -0.56971  -0.56797
 Alpha  occ. eigenvalues --   -0.56664  -0.56425  -0.56183  -0.55645  -0.55404
 Alpha  occ. eigenvalues --   -0.55048  -0.55015  -0.54233  -0.54115  -0.53651
 Alpha  occ. eigenvalues --   -0.53562  -0.53167  -0.53087  -0.52922  -0.52792
 Alpha  occ. eigenvalues --   -0.52636  -0.52363  -0.52147  -0.51987  -0.51950
 Alpha  occ. eigenvalues --   -0.51701  -0.51677  -0.51332  -0.51207  -0.51169
 Alpha  occ. eigenvalues --   -0.51161  -0.50878  -0.50623  -0.50478  -0.50385
 Alpha  occ. eigenvalues --   -0.50185  -0.50142  -0.50001  -0.49891  -0.49665
 Alpha  occ. eigenvalues --   -0.49248  -0.49115  -0.48915  -0.48905  -0.48622
 Alpha  occ. eigenvalues --   -0.48598  -0.48316  -0.48301  -0.47993  -0.47806
 Alpha  occ. eigenvalues --   -0.47744  -0.47651  -0.47488  -0.47380  -0.47284
 Alpha  occ. eigenvalues --   -0.46988  -0.46899  -0.46787  -0.46528  -0.46462
 Alpha  occ. eigenvalues --   -0.46258  -0.46197  -0.46119  -0.45803  -0.45785
 Alpha  occ. eigenvalues --   -0.45529  -0.45414  -0.45351  -0.45079  -0.45010
 Alpha  occ. eigenvalues --   -0.44843  -0.44638  -0.44388  -0.44273  -0.44221
 Alpha  occ. eigenvalues --   -0.44182  -0.43956  -0.43912  -0.43688  -0.43349
 Alpha  occ. eigenvalues --   -0.43296  -0.43138  -0.43043  -0.42893  -0.42706
 Alpha  occ. eigenvalues --   -0.42580  -0.42569  -0.42224  -0.42156  -0.41980
 Alpha  occ. eigenvalues --   -0.41938  -0.41870  -0.41656  -0.41521  -0.41427
 Alpha  occ. eigenvalues --   -0.41323  -0.41133  -0.41117  -0.40945  -0.40741
 Alpha  occ. eigenvalues --   -0.40105  -0.40043  -0.39970  -0.39595  -0.39027
 Alpha  occ. eigenvalues --   -0.38753  -0.38593  -0.38258  -0.37692  -0.37680
 Alpha  occ. eigenvalues --   -0.37528  -0.36783  -0.36678  -0.36458  -0.36346
 Alpha  occ. eigenvalues --   -0.35723  -0.35368  -0.34939  -0.34138  -0.33764
 Alpha  occ. eigenvalues --   -0.33569  -0.33355  -0.33067  -0.31884  -0.31873
 Alpha  occ. eigenvalues --   -0.31354  -0.31159  -0.30570  -0.30443  -0.30023
 Alpha  occ. eigenvalues --   -0.29890  -0.28930  -0.28268  -0.24156  -0.23695
 Alpha  occ. eigenvalues --   -0.21297  -0.21136
 Alpha virt. eigenvalues --   -0.08772  -0.08458  -0.01994  -0.01774  -0.00094
 Alpha virt. eigenvalues --    0.00233   0.01690   0.02387   0.02751   0.03041
 Alpha virt. eigenvalues --    0.04651   0.04856   0.05799   0.05837   0.06031

 Mulliken charges:
               1
     1  Mg  12.000339
     2  C    6.017682
     3  C    5.985309
     4  C    5.976300
     5  C    6.006459
     6  N    7.008296
     7  C    5.963413
     8  C    6.011157
     9  C    5.985040
    10  C    6.034382
    11  C    5.996638
    12  C    5.999198
    13  C    6.002124
    14  H    0.990738
    15  N    6.990098
    16  C    6.043837
    17  C    6.021711
    18  C    6.014025
    19  C    6.039257
    20  C    5.994434
    21  C    6.008124
    22  O    8.018598
    23  C    5.997765
    24  N    6.999068
    25  C    6.034582
    26  C    5.989940
    27  C    6.010883
    28  C    5.966234
    29  C    5.997003
    30  C    6.007515
    31  C    6.001238
    32  N    7.001541
    33  C    5.967441
    34  C    5.967046
    35  C    5.999878
    36  C    5.971450
    37  C    6.001374
    38  C    5.985019
    39  O    7.969749
    40  C    6.000893
    41  C    5.995718
    42  O    7.993163
    43  O    8.001263
    44  C    6.001333
    45  H    1.010336
    46  H    1.005855
    47  H    0.991025
    48  H    1.002898
    49  H    1.006124
    50  H    1.003934
    51  H    1.016349
    52  H    0.999613
    53  H    0.988310
    54  H    1.005412
    55  H    1.002296
    56  H    1.000521
    57  H    1.019310
    58  H    1.019242
    59  H    1.018847
    60  H    1.010797
    61  H    1.011356
    62  H    1.011359
    63  H    0.999165
    64  H    0.998782
    65  H    1.000764
    66  H    0.994303
    67  H    1.010104
    68  H    0.997169
    69  H    0.987097
    70  H    0.993796
    71  H    1.001771
    72  H    1.004088
    73  H    0.980263
    74  H    0.982668
    75  H    0.980488
    76  H    0.991373
    77  H    1.000217
    78  H    0.993312
    79  H    0.993798
    80  Mg  12.000008
    81  C    6.000001
    82  C    5.999996
    83  C    6.000023
    84  C    6.000035
    85  N    7.000039
    86  C    6.000030
    87  C    5.999995
    88  C    6.000025
    89  C    5.999949
    90  C    6.000005
    91  C    5.999988
    92  C    5.999993
    93  H    1.000003
    94  N    6.999979
    95  C    5.999947
    96  C    5.999921
    97  C    5.999977
    98  C    5.999934
    99  C    6.000026
   100  C    5.999964
   101  O    7.999939
   102  C    6.000010
   103  N    6.999973
   104  C    5.999948
   105  C    6.000029
   106  C    5.999975
   107  C    6.000036
   108  C    6.000015
   109  C    5.999991
   110  C    5.999998
   111  N    7.000003
   112  C    6.000048
   113  C    6.000100
   114  C    6.000003
   115  C    6.000046
   116  C    5.999985
   117  C    6.000050
   118  O    8.000088
   119  C    5.999995
   120  C    6.000017
   121  O    8.000040
   122  O    7.999989
   123  C    5.999983
   124  H    0.999991
   125  H    0.999965
   126  H    0.999994
   127  H    0.999993
   128  H    1.000001
   129  H    0.999979
   130  H    0.999979
   131  H    0.999986
   132  H    1.000024
   133  H    1.000005
   134  H    1.000015
   135  H    1.000032
   136  H    0.999969
   137  H    0.999936
   138  H    0.999966
   139  H    0.999975
   140  H    0.999988
   141  H    0.999944
   142  H    1.000001
   143  H    0.999985
   144  H    0.999990
   145  H    0.999953
   146  H    0.999988
   147  H    1.000018
   148  H    1.000013
   149  H    0.999985
   150  H    1.000020
   151  H    0.999991
   152  H    1.000017
   153  H    1.000057
   154  H    1.000069
   155  H    1.000003
   156  H    1.000020
   157  H    1.000046
   158  H    1.000004
 Sum of Mulliken charges = 624.00000

 Dipole moment (field-independent basis, Debye):
    X=              5.0031    Y=              6.4603    Z=             -6.7691  Tot=             10.6107
 Quadrupole moment (field-independent basis, Debye-Ang):
   XX=            250.6160   YY=             -0.5281   ZZ=              1.8216
   XY=            166.7800   XZ=           -173.8873   YZ=             -1.0017

 Normal termination of Gaussian 16 at Thu Sep 23 03:03:02 2021.
