 Gaussian 16, Revision A.03,
 Gaussian 16:  ES64L-G16RevA.03 25-Dec-2016

 -----------------------------------
 #p cam-b3lyp/Def2SVP td=(nstates=5)
 -----------------------------------

 --------------------------------
 TDDFT excited states in gaussian
 --------------------------------
 Symbolic Z-matrix:
 Charge =  0 Multiplicity = 1

                         Standard orientation:
 ---------------------------------------------------------------------
 Center     Atomic      Atomic             Coordinates (Angstroms)
 Number     Number       Type             X           Y           Z
 ---------------------------------------------------------------------
      1         12           0        0.808820    0.089546   -0.256435
      2          6           0       -2.775053    0.104502   -0.163720
      3          6           0        0.671344   -3.354488   -0.362549
      4          6           0        4.030076    0.095157    0.290088
      5          6           0        0.668340    3.536638    0.072588
      6          7           0       -0.915926   -1.502164    0.021054
      7          6           0       -2.243944   -1.189438   -0.087062
      8          6           0       -3.060446   -2.482962   -0.350725
      9          6           0       -1.958239   -3.623320   -0.356489
     10          6           0       -0.612462   -2.825051   -0.202809
     11          6           0       -2.054226   -4.753345    0.753025
     12          6           0       -3.888677   -2.485171   -1.663295
     13          6           0       -5.286956   -2.988091   -1.600497
     14          1           0       -5.833330   -3.897276   -0.434286
     15          7           0        2.229561   -1.443845   -0.042640
     16          6           0        2.028125   -2.808245   -0.249602
     17          6           0        3.302142   -3.516989   -0.022313
     18          6           0        4.311094   -2.481640    0.055690
     19          6           0        3.548460   -1.212980    0.113696
     20          6           0        3.489006   -5.003335    0.023221
     21          6           0        5.854232   -2.569919    0.117109
     22          8           0        6.635574   -1.625338   -0.122822
     23          6           0        6.451717   -3.905867    0.307713
     24          7           0        2.083482    1.565606    0.172103
     25          6           0        3.405074    1.271241    0.426066
     26          6           0        4.266033    2.563335    0.486723
     27          6           0        3.196186    3.654718    0.038165
     28          6           0        1.889272    2.881770    0.076348
     29          6           0        4.995165    2.913490    1.847615
     30          6           0        3.403348    4.309643   -1.318302
     31          6           0        3.715221    5.820593   -1.289423
     32          7           0       -0.700597    1.569511   -0.271254
     33          6           0       -0.598961    2.929564   -0.097864
     34          6           0       -1.938131    3.530892   -0.049890
     35          6           0       -2.794559    2.447372   -0.132881
     36          6           0       -2.008287    1.280900   -0.263334
     37          6           0       -2.322674    4.962206    0.131149
     38          6           0       -4.177160    2.132621   -0.178169
     39          8           0       -5.210637    2.857868   -0.237032
     40          6           0       -4.232519    0.663786   -0.193260
     41          6           0       -5.130211    0.167036    0.907554
     42          8           0       -4.882889    0.206531    2.064233
     43          8           0       -6.221944   -0.391632    0.385560
     44          6           0       -7.343817   -0.650544    1.222740
     45          1           0        0.719782   -4.445318   -0.385390
     46          1           0        5.101302    0.254829    0.435677
     47          1           0        0.634862    4.612080    0.254607
     48          1           0       -3.738843   -2.583181    0.497336
     49          1           0       -1.944191   -4.120260   -1.326051
     50          1           0       -2.966439   -4.746034    1.348955
     51          1           0       -1.253761   -4.557581    1.467978
     52          1           0       -1.889948   -5.736374    0.310658
     53          1           0       -3.439935   -3.097603   -2.446253
     54          1           0       -4.007058   -1.488965   -2.088538
     55          1           0       -5.483970   -3.632821   -2.457543
     56          1           0       -5.943864   -2.120855   -1.661377
     57          1           0        3.980671   -5.277326    0.956399
     58          1           0        4.149227   -5.252908   -0.807399
     59          1           0        2.567530   -5.531521   -0.223908
     60          1           0        6.133148   -4.270427    1.284344
     61          1           0        7.526194   -3.734012    0.366699
     62          1           0        6.284699   -4.556246   -0.550468
     63          1           0        5.001949    2.456635   -0.310876
     64          1           0        3.216650    4.440727    0.792998
     65          1           0        4.786147    2.146720    2.592729
     66          1           0        4.789132    3.926295    2.195966
     67          1           0        6.064641    2.942879    1.638538
     68          1           0        2.650083    4.106157   -2.079541
     69          1           0        4.296038    3.856812   -1.748465
     70          1           0        3.197071    6.446311   -2.015852
     71          1           0        4.733676    5.933389   -1.662048
     72          1           0        3.568154    6.311620   -0.328412
     73          1           0       -1.499915    5.647012   -0.076291
     74          1           0       -2.514487    5.166467    1.184418
     75          1           0       -3.253929    5.102268   -0.417572
     76          1           0       -4.651538    0.393185   -1.162078
     77          1           0       -7.804804    0.318319    1.419937
     78          1           0       -7.025482   -1.007058    2.202476
     79          1           0       -8.082861   -1.268148    0.711677
 ---------------------------------------------------------------------

 SCF Done:  E(RCAM-B3LYP) =  -2034.90217982     A.U. after   19 cycles

 Excitation energies and oscillator strengths:

 Excited State   1:      Singlet-A      1.7200 eV  720.84 nm  f=0.4218  <S**2>=0.000
     155 ->158         0.17652
     156 ->157         0.68701
     155 <-158         0.10602
 This state for optimization and/or second-order correction.
 Total Energy, E(TD-HF/TD-DFT) =  -2034.83897109
 Copying the excited state density for this state as the 1-particle RhoCI density.

 Excited State   2:      Singlet-A      2.2103 eV  560.94 nm  f=0.1295  <S**2>=0.000
     155 ->157         0.65018
     156 ->158        -0.26625

 Excited State   3:      Singlet-A      3.3867 eV  366.09 nm  f=0.0120  <S**2>=0.000
     150 ->157         0.41886
     150 ->159        -0.27504
     150 ->160        -0.12352
     151 ->157         0.22270
     151 ->159        -0.11732
     153 ->157        -0.25189
     154 ->157         0.24854
     156 ->158        -0.11120

 Excited State   4:      Singlet-A      3.4290 eV  361.58 nm  f=0.0005  <S**2>=0.000
     150 ->157        -0.26587
     150 ->159         0.14925
     153 ->157        -0.21389
     154 ->157         0.56522

 Excited State   5:      Singlet-A      3.5219 eV  352.03 nm  f=0.1699  <S**2>=0.000
     150 ->157         0.13537
     152 ->157        -0.10687
     153 ->157         0.39116
     154 ->157         0.22577
     155 ->157         0.14300
     156 ->158         0.46661

 The electronic state is 1-A.
 Alpha  occ. eigenvalues --  -46.88918 -19.25007 -19.19659 -19.19032 -19.18554
 Alpha  occ. eigenvalues --  -14.42062 -14.41626 -14.39702 -14.39565 -10.39053
 Alpha  occ. eigenvalues --  -10.34966 -10.34715 -10.31707 -10.31511 -10.31035
 Alpha  occ. eigenvalues --  -10.30962 -10.30555 -10.30164 -10.29706 -10.29556
 Alpha  occ. eigenvalues --  -10.29303 -10.28764 -10.28757 -10.28389 -10.28375
 Alpha  occ. eigenvalues --  -10.28272 -10.28203 -10.28104 -10.27571 -10.27522
 Alpha  occ. eigenvalues --  -10.27194 -10.27061 -10.27003 -10.26772 -10.26738
 Alpha  occ. eigenvalues --  -10.26478 -10.26213 -10.25922 -10.25901 -10.25587
 Alpha  occ. eigenvalues --  -10.25455 -10.25198 -10.25190  -3.17495  -1.92378
 Alpha  occ. eigenvalues --   -1.91965  -1.91794  -1.18626  -1.09715  -1.08314
 Alpha  occ. eigenvalues --   -1.08090  -1.04838  -1.03777  -1.02538  -1.01792
 Alpha  occ. eigenvalues --   -0.93578  -0.89136  -0.88551  -0.88378  -0.87747
 Alpha  occ. eigenvalues --   -0.86889  -0.86294  -0.84562  -0.83533  -0.82631
 Alpha  occ. eigenvalues --   -0.82067  -0.81723  -0.80514  -0.78309  -0.77718
 Alpha  occ. eigenvalues --   -0.77166  -0.76366  -0.75208  -0.73182  -0.71500
 Alpha  occ. eigenvalues --   -0.69409  -0.68982  -0.67500  -0.66260  -0.65929
 Alpha  occ. eigenvalues --   -0.64925  -0.64857  -0.64481  -0.63038  -0.60341
 Alpha  occ. eigenvalues --   -0.59870  -0.59344  -0.59146  -0.58219  -0.57764
 Alpha  occ. eigenvalues --   -0.56501  -0.56117  -0.55185  -0.54922  -0.53761
 Alpha  occ. eigenvalues --   -0.53437  -0.53257  -0.53025  -0.52803  -0.52413
 Alpha  occ. eigenvalues --   -0.51659  -0.51589  -0.51494  -0.51123  -0.50087
 Alpha  occ. eigenvalues --   -0.50043  -0.49890  -0.49262  -0.49096  -0.48761
 Alpha  occ. eigenvalues --   -0.48586  -0.48340  -0.48244  -0.47715  -0.47423
 Alpha  occ. eigenvalues --   -0.46918  -0.46785  -0.46220  -0.46121  -0.46059
 Alpha  occ. eigenvalues --   -0.45813  -0.45289  -0.44793  -0.44548  -0.44456
 Alpha  occ. eigenvalues --   -0.43650  -0.43449  -0.43040  -0.42693  -0.42616
 Alpha  occ. eigenvalues --   -0.42159  -0.41865  -0.41635  -0.41439  -0.41179
 Alpha  occ. eigenvalues --   -0.40973  -0.40276  -0.40090  -0.39691  -0.39130
 Alpha  occ. eigenvalues --   -0.38192  -0.37918  -0.36955  -0.36535  -0.36270
 Alpha  occ. eigenvalues --   -0.35857  -0.34686  -0.34132  -0.32913  -0.31604
 Alpha  occ. eigenvalues --   -0.31447  -0.30768  -0.30606  -0.29489  -0.24121
 Alpha  occ. eigenvalues --   -0.21313
 Alpha virt. eigenvalues --   -0.08943  -0.01479  -0.00196   0.01923   0.02357
 Alpha virt. eigenvalues --    0.05267   0.06110   0.06275   0.06994   0.07472
 Alpha virt. eigenvalues --    0.08850   0.09314   0.09447   0.09696   0.10559

 Mulliken charges:
               1
     1  Mg   0.831094
     2  C   -0.003490
     3  C   -0.022643
     4  C   -0.061395
     5  C   -0.094186
     6  N   -0.252759
     7  C   -0.054203
     8  C    0.021076
     9  C   -0.061049
    10  C    0.018217
    11  C    0.057391
    12  C    0.048947
    13  C   -0.081537
    14  H    0.000641
    15  N   -0.364197
    16  C    0.090960
    17  C   -0.170523
    18  C   -0.041461
    19  C    0.129269
    20  C    0.140610
    21  C    0.009624
    22  O   -0.229740
    23  C    0.054907
    24  N   -0.351664
    25  C    0.076924
    26  C   -0.074950
    27  C   -0.035825
    28  C    0.084628
    29  C    0.075271
    30  C    0.058354
    31  C   -0.010531
    32  N   -0.321547
    33  C    0.100487
    34  C   -0.161327
    35  C   -0.007600
    36  C    0.104560
    37  C    0.130298
    38  C    0.044983
    39  O   -0.216245
    40  C    0.039318
    41  C    0.154830
    42  O   -0.173645
    43  O   -0.300082
    44  C    0.179698
    45  H   -0.038456
    46  H   -0.005595
    47  H   -0.029187
    48  H    0.021595
    49  H    0.016314
    50  H    0.019322
    51  H    0.019358
    52  H    0.018321
    53  H    0.008908
    54  H    0.007777
    55  H    0.022216
    56  H    0.037189
    57  H    0.036385
    58  H    0.019933
    59  H    0.011630
    60  H    0.032302
    61  H    0.020472
    62  H    0.045028
    63  H    0.021385
    64  H    0.000785
    65  H    0.029704
    66  H    0.014095
    67  H    0.016454
    68  H    0.016406
    69  H   -0.002378
    70  H    0.007278
    71  H    0.010574
    72  H    0.017257
    73  H    0.008811
    74  H    0.034161
    75  H    0.049477
    76  H    0.040254
    77  H    0.029063
    78  H    0.038750
    79  H    0.042919
 Sum of Mulliken charges =  -0.00000

 Dipole moment (field-independent basis, Debye):
    X=              0.5770    Y=             -2.1143    Z=             -1.8008  Tot=              2.8366
 Quadrupole moment (field-independent basis, Debye-Ang):
   XX=           -273.2830   YY=           -227.5497   ZZ=           -257.5614
   XY=             19.3202   XZ=              5.7177   YZ=              1.8765

 Normal termination of Gaussian 16 at Thu Sep 16 07:28:04 2021.
