 Gaussian 16, Revision A.03,
 Gaussian 16:  ES64L-G16RevA.03 25-Dec-2016

 -----------------------------------
 #p cam-b3lyp/Def2SVP td=(nstates=5)
 -----------------------------------

 --------------------------------
 TDDFT excited states in gaussian
 --------------------------------
 Symbolic Z-matrix:
 Charge =  0 Multiplicity = 1

                         Standard orientation:
 ---------------------------------------------------------------------
 Center     Atomic      Atomic             Coordinates (Angstroms)
 Number     Number       Type             X           Y           Z
 ---------------------------------------------------------------------
      1         12           0        5.055789    0.644779    0.285651
      2          6           0        3.080846   -2.170295    0.780478
      3          6           0        7.614446   -1.545906   -0.541299
      4          6           0        7.140183    3.332066    0.291085
      5          6           0        2.420829    2.636012    1.309307
      6          7           0        5.323836   -1.606606    0.192725
      7          6           0        4.362295   -2.583549    0.401614
      8          6           0        4.917018   -4.058025    0.291716
      9          6           0        6.461795   -3.755785    0.182202
     10          6           0        6.500732   -2.198008   -0.033808
     11          6           0        7.422008   -4.126405    1.316281
     12          6           0        4.279209   -4.797590   -0.898609
     13          6           0        3.269761   -5.868827   -0.579821
     14          1           0        3.273794   -7.116017   -1.481523
     15          7           0        7.036476    0.936279   -0.253363
     16          6           0        7.846445   -0.090998   -0.625286
     17          6           0        9.160352    0.523782   -0.897476
     18          6           0        9.095411    1.888853   -0.577240
     19          6           0        7.763902    2.133499   -0.178402
     20          6           0       10.244645   -0.251939   -1.528310
     21          6           0       10.168657    2.937628   -0.589651
     22          8           0        9.946648    4.162829   -0.381788
     23          6           0       11.553869    2.658645   -0.803711
     24          7           0        4.807614    2.650637    0.645919
     25          6           0        5.800778    3.577404    0.560632
     26          6           0        5.360924    4.949054    0.891927
     27          6           0        3.825367    4.761305    1.165131
     28          6           0        3.700607    3.285722    1.095084
     29          6           0        6.024986    5.813403    2.003887
     30          6           0        2.846003    5.616386    0.218496
     31          6           0        2.395891    5.137043   -1.193513
     32          7           0        3.155001    0.371521    0.958423
     33          6           0        2.184542    1.268229    1.301734
     34          6           0        0.961094    0.613620    1.468682
     35          6           0        1.322638   -0.783578    1.350778
     36          6           0        2.659248   -0.859565    1.013303
     37          6           0       -0.413662    1.235407    1.707136
     38          6           0        0.732406   -2.090734    1.312599
     39          8           0       -0.403640   -2.515540    1.369919
     40          6           0        1.941465   -3.079332    1.162683
     41          6           0        2.175837   -3.782812    2.439337
     42          8           0        3.171294   -3.656398    3.185889
     43          8           0        1.179635   -4.616394    2.810534
     44          6           0        1.392499   -5.566046    3.955588
     45          1           0        8.431755   -2.241994   -0.737893
     46          1           0        7.764463    4.226504    0.346614
     47          1           0        1.501990    3.204030    1.472232
     48          1           0        4.911394   -4.571584    1.253705
     49          1           0        6.786850   -4.240590   -0.738292
     50          1           0        7.789423   -3.225037    1.807409
     51          1           0        8.319564   -4.513081    0.835860
     52          1           0        7.025629   -4.816366    2.062023
     53          1           0        5.108565   -5.307928   -1.389727
     54          1           0        3.900116   -4.051618   -1.597116
     55          1           0        2.280689   -5.415813   -0.652682
     56          1           0        3.296028   -6.251816    0.440437
     57          1           0       10.426220    0.248032   -2.478834
     58          1           0       10.108756   -1.318219   -1.713650
     59          1           0       11.147720   -0.174075   -0.922976
     60          1           0       11.765450    1.781198   -0.193194
     61          1           0       12.153318    3.560590   -0.687124
     62          1           0       11.727666    2.283161   -1.812161
     63          1           0        5.536743    5.422484   -0.073579
     64          1           0        3.609529    5.026269    2.199501
     65          1           0        6.532076    6.687388    1.595000
     66          1           0        6.793679    5.250295    2.534235
     67          1           0        5.330283    6.123692    2.784323
     68          1           0        3.432097    6.519611    0.047517
     69          1           0        2.026295    5.812266    0.909899
     70          1           0        2.657853    4.109353   -1.443836
     71          1           0        2.609944    5.814829   -2.020372
     72          1           0        1.310078    5.210750   -1.149289
     73          1           0       -0.878282    0.859179    2.619156
     74          1           0       -1.061862    0.917773    0.890569
     75          1           0       -0.428838    2.325360    1.683369
     76          1           0        1.621053   -3.883194    0.499706
     77          1           0        0.538752   -6.211314    3.748119
     78          1           0        1.358571   -5.111845    4.945321
     79          1           0        2.354004   -6.067866    3.842689
     80         12           0       -5.149892    0.551260   -0.249028
     81          6           0       -3.116830   -2.059934   -1.481321
     82          6           0       -7.646016   -1.698072    0.373892
     83          6           0       -7.177430    3.105935    0.233478
     84          6           0       -2.685247    2.834562   -1.388286
     85          7           0       -5.282246   -1.659285   -0.430391
     86          6           0       -4.356909   -2.456527   -0.926705
     87          6           0       -4.710385   -3.885129   -0.554481
     88          6           0       -6.277719   -3.835397   -0.384878
     89          6           0       -6.450872   -2.291118   -0.133087
     90          6           0       -7.011287   -4.456640   -1.633752
     91          6           0       -4.066990   -4.326730    0.785107
     92          6           0       -3.945522   -5.898234    1.007651
     93          1           0       -4.465826   -6.904838   -0.022004
     94          7           0       -7.037771    0.682241    0.422863
     95          6           0       -7.946492   -0.367028    0.715090
     96          6           0       -9.186065    0.232911    1.261573
     97          6           0       -9.070007    1.664005    1.137769
     98          6           0       -7.724834    1.923958    0.580519
     99          6           0      -10.313842   -0.560491    1.820810
    100          6           0      -10.039078    2.854742    1.503788
    101          8           0       -9.733746    4.051622    1.412802
    102          6           0      -11.462749    2.530718    1.852937
    103          7           0       -5.000563    2.697910   -0.646849
    104          6           0       -5.947457    3.532985   -0.310404
    105          6           0       -5.630486    4.985524   -0.531249
    106          6           0       -4.159293    4.920458   -1.073156
    107          6           0       -3.869710    3.390464   -0.953107
    108          6           0       -6.699770    5.679024   -1.380483
    109          6           0       -3.149434    5.736329   -0.275859
    110          6           0       -2.057456    6.507518   -1.100517
    111          7           0       -3.195756    0.490113   -1.190449
    112          6           0       -2.302192    1.518487   -1.548704
    113          6           0       -1.071110    0.932045   -1.953767
    114          6           0       -1.366526   -0.458170   -2.123559
    115          6           0       -2.620136   -0.675878   -1.610587
    116          6           0        0.235605    1.655955   -2.108343
    117          6           0       -0.887219   -1.824831   -2.441274
    118          8           0        0.183519   -2.194506   -2.876383
    119          6           0       -2.122786   -2.829695   -2.264055
    120          6           0       -1.646959   -4.184520   -1.852796
    121          8           0       -1.051571   -4.459867   -0.853113
    122          8           0       -1.897090   -5.140613   -2.854880
    123          6           0       -0.940829   -6.263941   -2.950517
    124          1           0       -8.544967   -2.317313    0.415566
    125          1           0       -7.712510    4.020661    0.494647
    126          1           0       -1.917923    3.563334   -1.657933
    127          1           0       -4.241382   -4.464674   -1.349562
    128          1           0       -6.603017   -4.383628    0.499914
    129          1           0       -6.282940   -4.782391   -2.375627
    130          1           0       -7.496947   -3.596098   -2.093914
    131          1           0       -7.639003   -5.319844   -1.412148
    132          1           0       -4.731935   -3.918000    1.547052
    133          1           0       -3.094068   -3.839418    0.847744
    134          1           0       -4.439191   -6.074607    1.964522
    135          1           0       -2.882824   -6.069800    1.180656
    136          1           0      -10.177067   -1.626618    1.998210
    137          1           0      -11.189896   -0.547924    1.172977
    138          1           0      -10.497233   -0.097084    2.790522
    139          1           0      -11.622646    2.311024    2.908418
    140          1           0      -11.613883    1.677917    1.189986
    141          1           0      -12.054399    3.379028    1.509908
    142          1           0       -5.647811    5.372486    0.487521
    143          1           0       -4.056161    5.232052   -2.111840
    144          1           0       -7.248193    5.003973   -2.038196
    145          1           0       -6.149970    6.365359   -2.023294
    146          1           0       -7.431032    6.218789   -0.778407
    147          1           0       -2.604243    5.107333    0.427665
    148          1           0       -3.767981    6.334001    0.393516
    149          1           0       -2.088965    6.236855   -2.155770
    150          1           0       -1.111854    6.164430   -0.681240
    151          1           0       -2.038939    7.597086   -1.059519
    152          1           0       -0.002098    2.532735   -2.710910
    153          1           0        1.012286    1.087230   -2.619962
    154          1           0        0.576492    2.017599   -1.137712
    155          1           0       -2.530548   -3.051184   -3.249829
    156          1           0       -1.480529   -7.180872   -2.713276
    157          1           0       -0.080255   -6.132970   -2.293576
    158          1           0       -0.615180   -6.271925   -3.990673
 ---------------------------------------------------------------------

 SCF Done:  E(RCAM-B3LYP) =  -4069.80948220     A.U. after   19 cycles

 Excitation energies and oscillator strengths:

 Excited State   1:      Singlet-A      1.6828 eV  736.77 nm  f=0.7246  <S**2>=0.000
     310 -> 316        0.15944
     311 -> 313        0.20665
     311 -> 314        0.12020
     312 -> 313       -0.15655
     312 -> 314        0.62403
 This state for optimization and/or second-order correction.
 Total Energy, E(TD-HF/TD-DFT) =  -4069.74763979
 Copying the excited state density for this state as the 1-particle RhoCI density.

 Excited State   2:      Singlet-A      1.7966 eV  690.10 nm  f=0.1658  <S**2>=0.000
     309 -> 315       -0.17672
     311 -> 313        0.62535
     312 -> 314       -0.24084

 Excited State   3:      Singlet-A      2.1523 eV  576.05 nm  f=0.0332  <S**2>=0.000
     309 -> 313        0.61172
     310 -> 314        0.19212
     311 -> 315        0.24946

 Excited State   4:      Singlet-A      2.2018 eV  563.11 nm  f=0.1668  <S**2>=0.000
     309 -> 313       -0.16175
     310 -> 313       -0.12210
     310 -> 314        0.61014
     312 -> 316       -0.24556

 Excited State   5:      Singlet-A      2.4220 eV  511.91 nm  f=0.0005  <S**2>=0.000
     311 -> 313        0.13748
     312 -> 313        0.67879
     312 -> 314        0.11946

 The electronic state is 1-A.
 Alpha  occ. eigenvalues --  -46.88247 -46.86929 -19.23321 -19.22932 -19.20105
 Alpha  occ. eigenvalues --  -19.19081 -19.18191 -19.17503 -19.17481 -19.17434
 Alpha  occ. eigenvalues --  -14.41642 -14.41501 -14.41453 -14.41276 -14.39464
 Alpha  occ. eigenvalues --  -14.38950 -14.37774 -14.37720 -10.38084 -10.37757
 Alpha  occ. eigenvalues --  -10.36597 -10.34608 -10.34052 -10.33285 -10.31869
 Alpha  occ. eigenvalues --  -10.31460 -10.31264 -10.30694 -10.30578 -10.30407
 Alpha  occ. eigenvalues --  -10.30404 -10.30353 -10.30295 -10.29962 -10.29827
 Alpha  occ. eigenvalues --  -10.29669 -10.29571 -10.29563 -10.29436 -10.28963
 Alpha  occ. eigenvalues --  -10.28110 -10.28029 -10.27870 -10.27780 -10.27770
 Alpha  occ. eigenvalues --  -10.27747 -10.27603 -10.27595 -10.27580 -10.27559
 Alpha  occ. eigenvalues --  -10.27540 -10.27520 -10.27456 -10.27323 -10.27285
 Alpha  occ. eigenvalues --  -10.27213 -10.27155 -10.27112 -10.27058 -10.26965
 Alpha  occ. eigenvalues --  -10.26725 -10.26711 -10.26702 -10.26607 -10.26578
 Alpha  occ. eigenvalues --  -10.26394 -10.26293 -10.26240 -10.26131 -10.26130
 Alpha  occ. eigenvalues --  -10.26049 -10.26048 -10.25971 -10.25968 -10.25629
 Alpha  occ. eigenvalues --  -10.25593 -10.25585 -10.25515 -10.25468 -10.25313
 Alpha  occ. eigenvalues --  -10.25304 -10.25266 -10.25178 -10.25021 -10.24164
 Alpha  occ. eigenvalues --  -10.23951  -3.16710  -3.15643  -1.91622  -1.91166
 Alpha  occ. eigenvalues --   -1.91007  -1.90553  -1.90103  -1.89947  -1.14775
 Alpha  occ. eigenvalues --   -1.14387  -1.10286  -1.09354  -1.08604  -1.07487
 Alpha  occ. eigenvalues --   -1.06581  -1.04904  -1.04452  -1.04216  -1.04137
 Alpha  occ. eigenvalues --   -1.03497  -1.02619  -1.01632  -1.01448  -1.00706
 Alpha  occ. eigenvalues --   -0.92301  -0.91487  -0.89201  -0.88691  -0.88324
 Alpha  occ. eigenvalues --   -0.88079  -0.87783  -0.87403  -0.87180  -0.87037
 Alpha  occ. eigenvalues --   -0.86944  -0.86423  -0.85533  -0.85144  -0.83783
 Alpha  occ. eigenvalues --   -0.83761  -0.83440  -0.83055  -0.82683  -0.82317
 Alpha  occ. eigenvalues --   -0.81999  -0.81369  -0.80421  -0.80309  -0.79968
 Alpha  occ. eigenvalues --   -0.79535  -0.78346  -0.77951  -0.77122  -0.77083
 Alpha  occ. eigenvalues --   -0.76202  -0.76024  -0.75579  -0.75132  -0.74783
 Alpha  occ. eigenvalues --   -0.74771  -0.72535  -0.72246  -0.71419  -0.70792
 Alpha  occ. eigenvalues --   -0.69802  -0.69759  -0.68300  -0.68110  -0.67283
 Alpha  occ. eigenvalues --   -0.66939  -0.66534  -0.66286  -0.65900  -0.64762
 Alpha  occ. eigenvalues --   -0.64684  -0.64455  -0.64231  -0.64009  -0.63760
 Alpha  occ. eigenvalues --   -0.63148  -0.60822  -0.60756  -0.59990  -0.59442
 Alpha  occ. eigenvalues --   -0.58976  -0.58824  -0.58458  -0.58308  -0.57986
 Alpha  occ. eigenvalues --   -0.57783  -0.57235  -0.57071  -0.56685  -0.56557
 Alpha  occ. eigenvalues --   -0.56164  -0.55672  -0.55091  -0.55058  -0.54811
 Alpha  occ. eigenvalues --   -0.54333  -0.54040  -0.53954  -0.53484  -0.53156
 Alpha  occ. eigenvalues --   -0.52974  -0.52869  -0.52655  -0.52449  -0.52428
 Alpha  occ. eigenvalues --   -0.51986  -0.51928  -0.51860  -0.51801  -0.51640
 Alpha  occ. eigenvalues --   -0.51410  -0.51302  -0.51094  -0.50842  -0.50737
 Alpha  occ. eigenvalues --   -0.50652  -0.50326  -0.50237  -0.49908  -0.49811
 Alpha  occ. eigenvalues --   -0.49729  -0.49661  -0.49282  -0.49256  -0.49074
 Alpha  occ. eigenvalues --   -0.48877  -0.48710  -0.48442  -0.48360  -0.48275
 Alpha  occ. eigenvalues --   -0.48100  -0.47898  -0.47707  -0.47498  -0.47355
 Alpha  occ. eigenvalues --   -0.47338  -0.47303  -0.47213  -0.47059  -0.46714
 Alpha  occ. eigenvalues --   -0.46671  -0.46360  -0.46322  -0.46146  -0.45892
 Alpha  occ. eigenvalues --   -0.45815  -0.45712  -0.45451  -0.45365  -0.45261
 Alpha  occ. eigenvalues --   -0.45209  -0.44897  -0.44820  -0.44637  -0.44551
 Alpha  occ. eigenvalues --   -0.44373  -0.44176  -0.44073  -0.43677  -0.43624
 Alpha  occ. eigenvalues --   -0.43509  -0.43403  -0.43187  -0.43016  -0.42941
 Alpha  occ. eigenvalues --   -0.42829  -0.42811  -0.42482  -0.42442  -0.42304
 Alpha  occ. eigenvalues --   -0.42194  -0.42019  -0.41976  -0.41735  -0.41480
 Alpha  occ. eigenvalues --   -0.41358  -0.41094  -0.40987  -0.40814  -0.40730
 Alpha  occ. eigenvalues --   -0.40583  -0.40536  -0.40213  -0.40042  -0.39752
 Alpha  occ. eigenvalues --   -0.39713  -0.39531  -0.39255  -0.38804  -0.38318
 Alpha  occ. eigenvalues --   -0.38124  -0.37726  -0.37440  -0.37204  -0.37164
 Alpha  occ. eigenvalues --   -0.36295  -0.35990  -0.35912  -0.35750  -0.35408
 Alpha  occ. eigenvalues --   -0.35061  -0.34889  -0.33758  -0.33685  -0.33487
 Alpha  occ. eigenvalues --   -0.32796  -0.32547  -0.32120  -0.31699  -0.30905
 Alpha  occ. eigenvalues --   -0.30425  -0.30243  -0.30141  -0.29623  -0.29400
 Alpha  occ. eigenvalues --   -0.28994  -0.28615  -0.28065  -0.23410  -0.23015
 Alpha  occ. eigenvalues --   -0.21086  -0.20523
 Alpha virt. eigenvalues --   -0.08234  -0.08088  -0.01780  -0.00774   0.00133
 Alpha virt. eigenvalues --    0.01350   0.02917   0.03048   0.03356   0.04164
 Alpha virt. eigenvalues --    0.05136   0.05660   0.05985   0.06217   0.06362

 Mulliken charges:
               1
     1  Mg   0.841576
     2  C   -0.007165
     3  C   -0.052375
     4  C   -0.069826
     5  C   -0.094495
     6  N   -0.267000
     7  C   -0.057977
     8  C   -0.003494
     9  C   -0.086070
    10  C    0.001637
    11  C    0.086577
    12  C    0.097838
    13  C   -0.099925
    14  H    0.011883
    15  N   -0.396822
    16  C    0.158592
    17  C   -0.173171
    18  C    0.027762
    19  C    0.104861
    20  C    0.105572
    21  C   -0.013074
    22  O   -0.251764
    23  C    0.087828
    24  N   -0.299513
    25  C    0.055860
    26  C   -0.041385
    27  C   -0.006411
    28  C    0.038560
    29  C    0.076985
    30  C    0.014193
    31  C    0.013699
    32  N   -0.357581
    33  C    0.113582
    34  C   -0.164420
    35  C   -0.005828
    36  C    0.183444
    37  C    0.127713
    38  C    0.029367
    39  O   -0.142387
    40  C   -0.053387
    41  C    0.187061
    42  O   -0.266957
    43  O   -0.321005
    44  C    0.186887
    45  H   -0.034963
    46  H   -0.007003
    47  H   -0.042777
    48  H    0.012427
    49  H    0.000454
    50  H    0.025206
    51  H    0.009150
    52  H    0.028847
    53  H    0.009020
    54  H    0.032601
    55  H    0.065840
    56  H    0.027570
    57  H    0.033863
    58  H    0.019383
    59  H    0.012380
    60  H    0.022179
    61  H    0.038909
    62  H    0.020806
    63  H    0.019385
    64  H    0.008224
    65  H    0.021282
    66  H    0.017784
    67  H    0.013634
    68  H    0.010033
    69  H    0.013834
    70  H    0.042006
    71  H    0.016214
    72  H    0.000127
    73  H    0.029092
    74  H    0.057091
    75  H   -0.002472
    76  H    0.041671
    77  H    0.046151
    78  H    0.046110
    79  H    0.035961
    80  Mg   0.810626
    81  C    0.088239
    82  C   -0.079728
    83  C   -0.051334
    84  C   -0.083756
    85  N   -0.242961
    86  C   -0.044912
    87  C   -0.080630
    88  C   -0.051602
    89  C    0.071153
    90  C    0.081832
    91  C    0.022850
    92  C   -0.040635
    93  H    0.019851
    94  N   -0.472398
    95  C    0.156166
    96  C   -0.129638
    97  C   -0.044802
    98  C    0.186105
    99  C    0.083141
   100  C    0.032225
   101  O   -0.207506
   102  C    0.049151
   103  N   -0.232824
   104  C   -0.064894
   105  C    0.007519
   106  C   -0.050379
   107  C    0.034956
   108  C    0.080807
   109  C    0.039166
   110  C   -0.002620
   111  N   -0.358424
   112  C    0.113462
   113  C   -0.189884
   114  C    0.014556
   115  C    0.040201
   116  C    0.133533
   117  C    0.062061
   118  O   -0.171633
   119  C   -0.026703
   120  C    0.154678
   121  O   -0.163581
   122  O   -0.379569
   123  C    0.174824
   124  H   -0.025931
   125  H   -0.014003
   126  H   -0.050024
   127  H    0.007915
   128  H    0.009650
   129  H    0.015708
   130  H    0.010080
   131  H    0.025122
   132  H   -0.002376
   133  H    0.056145
   134  H    0.016600
   135  H    0.044447
   136  H    0.019384
   137  H    0.042114
   138  H    0.037948
   139  H    0.056602
   140  H    0.022296
   141  H    0.038417
   142  H    0.014924
   143  H    0.015047
   144  H    0.024691
   145  H    0.008937
   146  H    0.034243
   147  H    0.003151
   148  H   -0.002260
   149  H    0.018378
   150  H    0.017515
   151  H    0.022363
   152  H    0.011709
   153  H    0.030919
   154  H    0.025528
   155  H    0.047999
   156  H    0.034253
   157  H    0.050787
   158  H    0.035569
 Sum of Mulliken charges =  -0.00000

 Dipole moment (field-independent basis, Debye):
    X=             -3.5187    Y=             -0.9121    Z=              0.2851  Tot=              3.6462
 Quadrupole moment (field-independent basis, Debye-Ang):
   XX=           -453.7897   YY=           -480.8522   ZZ=           -512.3783
   XY=            -13.6931   XZ=            -18.3637   YZ=             -3.5883

 Normal termination of Gaussian 16 at Tue Sep 14 22:07:30 2021.
