 Gaussian 16, Revision A.03,
 Gaussian 16:  ES64L-G16RevA.03 25-Dec-2016

 -----------------------------------
 #p cam-b3lyp/Def2SVP td=(nstates=5)
 -----------------------------------

 --------------------------------
 TDDFT excited states in gaussian
 --------------------------------
 Symbolic Z-matrix:
 Charge =  0 Multiplicity = 1

                         Standard orientation:
 ---------------------------------------------------------------------
 Center     Atomic      Atomic             Coordinates (Angstroms)
 Number     Number       Type             X           Y           Z
 ---------------------------------------------------------------------
      1         12           0       11.048484    0.721937   -0.076597
      2          6           0       10.878966   -2.751049    0.324538
      3          6           0        8.091191    0.842436    1.712418
      4          6           0       11.298325    4.050452   -0.100516
      5          6           0       14.381072    0.420556   -1.088236
      6          7           0        9.708784   -0.911794    1.116737
      7          6           0        9.803750   -2.250471    1.003604
      8          6           0        8.721244   -2.997667    1.744891
      9          6           0        7.730527   -1.780531    1.891835
     10          6           0        8.523888   -0.507179    1.617079
     11          6           0        6.597346   -1.889721    0.836954
     12          6           0        9.278118   -3.696305    2.991796
     13          6           0       10.332202   -2.983779    3.864548
     14          1           0       10.059903   -2.974289    5.364096
     15          7           0        9.877006    2.221357    0.674490
     16          6           0        8.653355    2.048280    1.265117
     17          6           0        7.913398    3.315566    1.205335
     18          6           0        8.873137    4.336096    0.822870
     19          6           0       10.069996    3.530817    0.431100
     20          6           0        6.482155    3.499384    1.840518
     21          6           0        8.657113    5.851451    0.833008
     22          8           0        7.570983    6.312057    1.049618
     23          6           0        9.799693    6.775217    0.523749
     24          7           0       12.757590    2.038300   -0.344358
     25          6           0       12.598719    3.434413   -0.421633
     26          6           0       13.931359    4.187065   -0.842200
     27          6           0       14.883106    2.952029   -1.212952
     28          6           0       13.937985    1.702435   -0.902804
     29          6           0       13.895759    5.336944   -1.968398
     30          6           0       16.302925    2.872592   -0.487151
     31          6           0       17.403944    2.230225   -1.467522
     32          7           0       12.410895   -0.828545   -0.404154
     33          6           0       13.697819   -0.795693   -0.901489
     34          6           0       14.169447   -2.161145   -1.097404
     35          6           0       13.106474   -3.015180   -0.705402
     36          6           0       12.070523   -2.143945   -0.209521
     37          6           0       15.452274   -2.580336   -1.766370
     38          6           0       12.615283   -4.411236   -0.465443
     39          8           0       13.193405   -5.470928   -0.559943
     40          6           0       11.159999   -4.238953    0.145596
     41          6           0       10.210280   -4.898332   -0.816337
     42          8           0       10.053033   -6.141638   -0.907253
     43          8           0        9.451173   -3.930345   -1.457837
     44          6           0        8.355321   -4.419681   -2.225738
     45          1           0        7.112689    0.878083    2.196038
     46          1           0       11.422733    5.107984   -0.343533
     47          1           0       15.346729    0.340260   -1.591991
     48          1           0        8.207376   -3.709529    1.099183
     49          1           0        7.235644   -1.638578    2.851629
     50          1           0        6.344569   -0.864357    0.565988
     51          1           0        5.776138   -2.494794    1.218544
     52          1           0        6.828732   -2.284081   -0.153010
     53          1           0        9.805216   -4.575430    2.622391
     54          1           0        8.435499   -3.999629    3.613274
     55          1           0       10.379569   -1.934810    3.573152
     56          1           0       11.281648   -3.503237    3.738104
     57          1           0        6.467524    3.597715    2.926316
     58          1           0        5.845455    2.663473    1.550554
     59          1           0        5.891204    4.330179    1.456676
     60          1           0        9.545263    7.817889    0.716795
     61          1           0       10.147772    6.697615   -0.506454
     62          1           0       10.517175    6.505664    1.299227
     63          1           0       14.201322    4.617560    0.121378
     64          1           0       15.077557    2.917069   -2.284509
     65          1           0       13.721253    6.281489   -1.454465
     66          1           0       13.117313    5.149018   -2.707345
     67          1           0       14.850869    5.332786   -2.494010
     68          1           0       16.280819    2.162678    0.339593
     69          1           0       16.601969    3.847266   -0.100763
     70          1           0       17.805868    1.306323   -1.051433
     71          1           0       18.224507    2.934679   -1.600434
     72          1           0       17.094216    1.872582   -2.448885
     73          1           0       16.284918   -2.148355   -1.212246
     74          1           0       15.475663   -2.194610   -2.785795
     75          1           0       15.592387   -3.661114   -1.755392
     76          1           0       11.173634   -4.873648    1.031362
     77          1           0        7.776249   -3.576429   -2.601474
     78          1           0        7.783820   -5.163121   -1.669784
     79          1           0        8.682572   -4.884526   -3.155713
     80         12           0      -11.458662    0.520843   -0.489098
     81          6           0       -9.305180   -2.210595    0.054233
     82          6           0      -14.076890   -1.632909    0.285525
     83          6           0      -13.553436    3.109520   -0.536344
     84          6           0       -8.686300    2.600218   -0.305783
     85          7           0      -11.584473   -1.655360    0.264335
     86          6           0      -10.615692   -2.639292    0.299433
     87          6           0      -11.135152   -4.060433    0.359056
     88          6           0      -12.670424   -3.874361    0.409540
     89          6           0      -12.827918   -2.320261    0.334062
     90          6           0      -13.457239   -4.626632   -0.739185
     91          6           0      -10.630022   -4.952191    1.579611
     92          6           0      -10.324667   -4.245907    2.910598
     93          1           0      -11.351401   -4.385009    4.073372
     94          7           0      -13.484192    0.699579   -0.184175
     95          6           0      -14.389590   -0.293372    0.060840
     96          6           0      -15.751249    0.259672    0.062978
     97          6           0      -15.619583    1.660881   -0.181947
     98          6           0      -14.144677    1.874150   -0.303313
     99          6           0      -17.004205   -0.582641    0.271259
    100          6           0      -16.904088    2.570050   -0.142163
    101          8           0      -17.971655    2.041189    0.134709
    102          6           0      -16.782342    4.136191   -0.364479
    103          7           0      -11.159223    2.522429   -0.303701
    104          6           0      -12.184792    3.440988   -0.515596
    105          6           0      -11.591349    4.959111   -0.590149
    106          6           0      -10.012907    4.668047   -0.345141
    107          6           0       -9.963767    3.174143   -0.325886
    108          6           0      -11.904680    5.660199   -1.944717
    109          6           0       -9.406309    5.291066    0.984568
    110          6           0       -8.131157    6.143462    0.892841
    111          7           0       -9.367638    0.286915   -0.310210
    112          6           0       -8.343894    1.196317   -0.235451
    113          6           0       -7.074918    0.460391   -0.053612
    114          6           0       -7.437721   -0.913213   -0.056805
    115          6           0       -8.856135   -0.932255   -0.168074
    116          6           0       -5.695745    1.033639    0.119876
    117          6           0       -6.873418   -2.264943    0.117047
    118          8           0       -5.710871   -2.690658    0.181185
    119          6           0       -8.089956   -3.169827   -0.009527
    120          6           0       -8.035545   -4.015850   -1.153856
    121          8           0       -8.317454   -3.597633   -2.306647
    122          8           0       -7.673334   -5.332448   -0.806405
    123          6           0       -7.730331   -6.360584   -1.840552
    124          1           0      -14.945863   -2.290635    0.349467
    125          1           0      -14.215864    3.958640   -0.714668
    126          1           0       -7.863617    3.317584   -0.317791
    127          1           0      -10.778651   -4.480399   -0.580732
    128          1           0      -12.959613   -4.121862    1.430278
    129          1           0      -14.031505   -5.446610   -0.308049
    130          1           0      -12.697584   -4.996841   -1.428163
    131          1           0      -14.155987   -3.960134   -1.245878
    132          1           0       -9.684527   -5.327628    1.186170
    133          1           0      -11.315053   -5.789266    1.716229
    134          1           0      -10.164480   -3.179097    2.751030
    135          1           0       -9.354119   -4.593784    3.261847
    136          1           0      -17.449550   -0.501803    1.262865
    137          1           0      -16.860416   -1.597532   -0.099657
    138          1           0      -17.789552   -0.283712   -0.422762
    139          1           0      -16.163569    4.280645   -1.250442
    140          1           0      -16.314480    4.554827    0.526162
    141          1           0      -17.735589    4.663873   -0.333319
    142          1           0      -12.147197    5.531380    0.151980
    143          1           0       -9.486450    5.013665   -1.235088
    144          1           0      -11.043350    5.510471   -2.595376
    145          1           0      -12.189872    6.705398   -1.824467
    146          1           0      -12.789356    5.275061   -2.451517
    147          1           0       -9.271854    4.462784    1.680989
    148          1           0      -10.223082    5.936023    1.308602
    149          1           0       -7.620804    6.221920    1.853174
    150          1           0       -8.523258    7.109364    0.575218
    151          1           0       -7.520702    5.628079    0.151041
    152          1           0       -5.873063    2.020554    0.546408
    153          1           0       -5.366464    1.156931   -0.911841
    154          1           0       -4.985614    0.390849    0.640934
    155          1           0       -8.026881   -3.741710    0.915992
    156          1           0       -7.042768   -6.265271   -2.680994
    157          1           0       -8.740489   -6.424202   -2.246134
    158          1           0       -7.656980   -7.317809   -1.324114
 ---------------------------------------------------------------------

 SCF Done:  E(RCAM-B3LYP) =  -4069.79539954     A.U. after   18 cycles

 Excitation energies and oscillator strengths:

 Excited State   1:      Singlet-A      1.7175 eV  721.89 nm  f=0.4485  <S**2>=0.000
     309 -> 316        0.18012
     312 -> 314        0.68064
     309 <- 316        0.10717
 This state for optimization and/or second-order correction.
 Total Energy, E(TD-HF/TD-DFT) =  -4069.73228285
 Copying the excited state density for this state as the 1-particle RhoCI density.

 Excited State   2:      Singlet-A      1.7472 eV  709.62 nm  f=0.2966  <S**2>=0.000
     310 -> 315        0.19283
     311 -> 313        0.67621
     310 <- 315        0.10869

 Excited State   3:      Singlet-A      2.2374 eV  554.15 nm  f=0.1030  <S**2>=0.000
     310 -> 313        0.63526
     311 -> 315       -0.29890

 Excited State   4:      Singlet-A      2.3103 eV  536.67 nm  f=0.0710  <S**2>=0.000
     309 -> 314        0.61644
     312 -> 316       -0.33561

 Excited State   5:      Singlet-A      2.9228 eV  424.20 nm  f=0.0000  <S**2>=0.000
     312 -> 313        0.70702

 The electronic state is 1-A.
 Alpha  occ. eigenvalues --  -46.90307 -46.88973 -19.25925 -19.25850 -19.20293
 Alpha  occ. eigenvalues --  -19.19904 -19.19654 -19.19456 -19.19255 -19.18967
 Alpha  occ. eigenvalues --  -14.42683 -14.42174 -14.42127 -14.41717 -14.40435
 Alpha  occ. eigenvalues --  -14.40003 -14.39386 -14.39364 -10.40081 -10.39867
 Alpha  occ. eigenvalues --  -10.36533 -10.35697 -10.35412 -10.35234 -10.32750
 Alpha  occ. eigenvalues --  -10.32171 -10.31926 -10.31849 -10.31747 -10.31398
 Alpha  occ. eigenvalues --  -10.31029 -10.30984 -10.30759 -10.30681 -10.30630
 Alpha  occ. eigenvalues --  -10.30504 -10.30134 -10.30112 -10.29889 -10.29817
 Alpha  occ. eigenvalues --  -10.29494 -10.29464 -10.29339 -10.29173 -10.29043
 Alpha  occ. eigenvalues --  -10.28887 -10.28508 -10.28437 -10.28427 -10.28416
 Alpha  occ. eigenvalues --  -10.28355 -10.28349 -10.28344 -10.28325 -10.28265
 Alpha  occ. eigenvalues --  -10.28082 -10.27978 -10.27908 -10.27816 -10.27815
 Alpha  occ. eigenvalues --  -10.27790 -10.27725 -10.27698 -10.27685 -10.27637
 Alpha  occ. eigenvalues --  -10.27514 -10.27434 -10.27199 -10.27175 -10.26837
 Alpha  occ. eigenvalues --  -10.26776 -10.26763 -10.26703 -10.26622 -10.26604
 Alpha  occ. eigenvalues --  -10.26273 -10.26203 -10.26197 -10.26158 -10.26092
 Alpha  occ. eigenvalues --  -10.26084 -10.25926 -10.25870 -10.25798 -10.25496
 Alpha  occ. eigenvalues --  -10.25226  -3.18669  -3.17599  -1.93532  -1.93144
 Alpha  occ. eigenvalues --   -1.92959  -1.92457  -1.92070  -1.91903  -1.16343
 Alpha  occ. eigenvalues --   -1.15030  -1.11434  -1.10567  -1.10454  -1.09120
 Alpha  occ. eigenvalues --   -1.07080  -1.06939  -1.04688  -1.04194  -1.03798
 Alpha  occ. eigenvalues --   -1.03594  -1.02877  -1.02658  -1.01926  -1.01811
 Alpha  occ. eigenvalues --   -0.93186  -0.92417  -0.89206  -0.88905  -0.88892
 Alpha  occ. eigenvalues --   -0.88243  -0.88091  -0.87671  -0.87255  -0.86852
 Alpha  occ. eigenvalues --   -0.86131  -0.85963  -0.85607  -0.85582  -0.84752
 Alpha  occ. eigenvalues --   -0.84573  -0.83956  -0.83266  -0.82843  -0.82621
 Alpha  occ. eigenvalues --   -0.81803  -0.81705  -0.81052  -0.80715  -0.80273
 Alpha  occ. eigenvalues --   -0.80130  -0.78215  -0.77450  -0.77266  -0.77199
 Alpha  occ. eigenvalues --   -0.76813  -0.76604  -0.76568  -0.76333  -0.75225
 Alpha  occ. eigenvalues --   -0.74949  -0.72727  -0.72381  -0.71964  -0.71795
 Alpha  occ. eigenvalues --   -0.69846  -0.69338  -0.69314  -0.68955  -0.68474
 Alpha  occ. eigenvalues --   -0.68128  -0.67076  -0.66854  -0.65821  -0.65820
 Alpha  occ. eigenvalues --   -0.65232  -0.64787  -0.64745  -0.64627  -0.64531
 Alpha  occ. eigenvalues --   -0.64247  -0.63618  -0.62493  -0.60280  -0.59946
 Alpha  occ. eigenvalues --   -0.59674  -0.59178  -0.59112  -0.58861  -0.58702
 Alpha  occ. eigenvalues --   -0.58088  -0.57785  -0.57692  -0.57258  -0.57229
 Alpha  occ. eigenvalues --   -0.56203  -0.56187  -0.55999  -0.55653  -0.55397
 Alpha  occ. eigenvalues --   -0.54990  -0.54962  -0.54483  -0.54238  -0.54206
 Alpha  occ. eigenvalues --   -0.53813  -0.53562  -0.53133  -0.53127  -0.52992
 Alpha  occ. eigenvalues --   -0.52698  -0.52653  -0.52387  -0.52171  -0.51829
 Alpha  occ. eigenvalues --   -0.51607  -0.51553  -0.51368  -0.51236  -0.51001
 Alpha  occ. eigenvalues --   -0.50996  -0.50751  -0.50606  -0.50476  -0.50342
 Alpha  occ. eigenvalues --   -0.50025  -0.49948  -0.49856  -0.49627  -0.49471
 Alpha  occ. eigenvalues --   -0.49409  -0.49402  -0.49298  -0.49008  -0.48840
 Alpha  occ. eigenvalues --   -0.48622  -0.48621  -0.48388  -0.48281  -0.48179
 Alpha  occ. eigenvalues --   -0.47461  -0.47414  -0.47241  -0.47218  -0.47158
 Alpha  occ. eigenvalues --   -0.46865  -0.46664  -0.46587  -0.46488  -0.46284
 Alpha  occ. eigenvalues --   -0.46231  -0.46205  -0.45984  -0.45814  -0.45614
 Alpha  occ. eigenvalues --   -0.45446  -0.45422  -0.45240  -0.45120  -0.45011
 Alpha  occ. eigenvalues --   -0.44835  -0.44785  -0.44652  -0.44596  -0.44222
 Alpha  occ. eigenvalues --   -0.44154  -0.43968  -0.43876  -0.43754  -0.43540
 Alpha  occ. eigenvalues --   -0.43305  -0.43272  -0.43193  -0.43086  -0.42970
 Alpha  occ. eigenvalues --   -0.42898  -0.42716  -0.42687  -0.42440  -0.42306
 Alpha  occ. eigenvalues --   -0.42140  -0.42137  -0.42118  -0.41909  -0.41661
 Alpha  occ. eigenvalues --   -0.41605  -0.41157  -0.41104  -0.40645  -0.40311
 Alpha  occ. eigenvalues --   -0.40268  -0.39889  -0.39839  -0.39734  -0.39031
 Alpha  occ. eigenvalues --   -0.38944  -0.38830  -0.38037  -0.37686  -0.37554
 Alpha  occ. eigenvalues --   -0.37174  -0.37123  -0.37100  -0.37051  -0.36674
 Alpha  occ. eigenvalues --   -0.36672  -0.36228  -0.34797  -0.34592  -0.34462
 Alpha  occ. eigenvalues --   -0.34296  -0.33240  -0.33069  -0.31451  -0.31289
 Alpha  occ. eigenvalues --   -0.31248  -0.31129  -0.31026  -0.30813  -0.30525
 Alpha  occ. eigenvalues --   -0.30302  -0.29650  -0.29645  -0.24182  -0.23946
 Alpha  occ. eigenvalues --   -0.21307  -0.20871
 Alpha virt. eigenvalues --   -0.08548  -0.08226  -0.01992  -0.01845   0.00181
 Alpha virt. eigenvalues --    0.00231   0.00859   0.01611   0.02013   0.02094
 Alpha virt. eigenvalues --    0.03387   0.04535   0.04998   0.05184   0.05578

 Mulliken charges:
               1
     1  Mg   0.821391
     2  C    0.141461
     3  C   -0.072231
     4  C   -0.088350
     5  C   -0.079556
     6  N   -0.220306
     7  C   -0.143005
     8  C    0.066438
     9  C   -0.054918
    10  C   -0.010716
    11  C    0.063510
    12  C    0.063977
    13  C   -0.078504
    14  H    0.015391
    15  N   -0.372564
    16  C    0.163108
    17  C   -0.136999
    18  C   -0.058705
    19  C    0.190673
    20  C    0.093424
    21  C   -0.010394
    22  O   -0.168445
    23  C    0.051913
    24  N   -0.300606
    25  C   -0.021043
    26  C   -0.011908
    27  C   -0.040243
    28  C    0.045011
    29  C    0.055032
    30  C    0.036487
    31  C   -0.036829
    32  N   -0.352626
    33  C    0.125111
    34  C   -0.196653
    35  C    0.022483
    36  C    0.045427
    37  C    0.117965
    38  C    0.063965
    39  O   -0.137565
    40  C   -0.138967
    41  C    0.228351
    42  O   -0.237495
    43  O   -0.322961
    44  C    0.183356
    45  H   -0.017717
    46  H   -0.048660
    47  H   -0.045889
    48  H    0.002656
    49  H   -0.000222
    50  H    0.003931
    51  H    0.027715
    52  H    0.004946
    53  H    0.013029
    54  H    0.020678
    55  H    0.050581
    56  H    0.037296
    57  H    0.040122
    58  H    0.006104
    59  H    0.031723
    60  H    0.019051
    61  H    0.059828
    62  H    0.032432
    63  H    0.025909
    64  H    0.015551
    65  H    0.028108
    66  H    0.025956
    67  H    0.028198
    68  H    0.025542
    69  H    0.018839
    70  H    0.017197
    71  H    0.020513
    72  H    0.021738
    73  H    0.015550
    74  H    0.029687
    75  H    0.034107
    76  H    0.055791
    77  H    0.031507
    78  H    0.038048
    79  H    0.027266
    80  Mg   0.851629
    81  C   -0.100112
    82  C   -0.078300
    83  C   -0.099217
    84  C   -0.088975
    85  N   -0.279424
    86  C   -0.081220
    87  C   -0.019286
    88  C   -0.002864
    89  C   -0.000015
    90  C    0.073870
    91  C    0.027094
    92  C   -0.064928
    93  H    0.021035
    94  N   -0.362138
    95  C    0.140273
    96  C   -0.140626
    97  C   -0.078326
    98  C    0.187312
    99  C    0.142604
   100  C    0.026558
   101  O   -0.197042
   102  C    0.035332
   103  N   -0.347421
   104  C    0.055904
   105  C   -0.054210
   106  C   -0.028368
   107  C    0.061068
   108  C    0.055216
   109  C    0.021358
   110  C    0.018597
   111  N   -0.317836
   112  C    0.107203
   113  C   -0.195355
   114  C   -0.058041
   115  C    0.233625
   116  C    0.135997
   117  C    0.071749
   118  O   -0.182655
   119  C    0.008177
   120  C    0.252029
   121  O   -0.249984
   122  O   -0.351355
   123  C    0.192977
   124  H   -0.033101
   125  H   -0.057894
   126  H   -0.041251
   127  H    0.023610
   128  H    0.018916
   129  H    0.021379
   130  H    0.018764
   131  H    0.026187
   132  H    0.015639
   133  H    0.023073
   134  H    0.041870
   135  H    0.033051
   136  H    0.040503
   137  H    0.001846
   138  H    0.020918
   139  H    0.054657
   140  H    0.038740
   141  H    0.026162
   142  H    0.018440
   143  H    0.011707
   144  H    0.016631
   145  H    0.016097
   146  H    0.011109
   147  H    0.024210
   148  H    0.000274
   149  H    0.028461
   150  H    0.019734
   151  H    0.018913
   152  H    0.013858
   153  H    0.031223
   154  H    0.042425
   155  H    0.030535
   156  H    0.050769
   157  H    0.016761
   158  H    0.033877
 Sum of Mulliken charges =  -0.00000

 Dipole moment (field-independent basis, Debye):
    X=             -1.6358    Y=              6.4055    Z=             -2.6981  Tot=              7.1404
 Quadrupole moment (field-independent basis, Debye-Ang):
   XX=           -500.8296   YY=           -510.0110   ZZ=           -511.5832
   XY=             91.4846   XZ=             -9.9655   YZ=            -11.9940

 Normal termination of Gaussian 16 at Thu Sep  2 02:06:03 2021.
