 Gaussian 16, Revision A.03,
 Gaussian 16:  ES64L-G16RevA.03 25-Dec-2016

 ----------------------------------------------------------
 #p cam-b3lyp/Def2SVP td=(nstates=5) density=(transition=1)
 ----------------------------------------------------------

 --------------------------------
 TDDFT excited states in gaussian
 --------------------------------
 Symbolic Z-matrix:
 Charge =  0 Multiplicity = 1

                         Standard orientation:
 ---------------------------------------------------------------------
 Center     Atomic      Atomic             Coordinates (Angstroms)
 Number     Number       Type             X           Y           Z
 ---------------------------------------------------------------------
      1         12           0       25.528492   -0.094680   -0.182909
      2          6           0       22.168219   -0.478356    0.548452
      3          6           0       24.688571    1.942324   -2.849163
      4          6           0       28.768327    0.835383   -0.365363
      5          6           0       26.167749   -1.909460    2.772691
      6          7           0       23.632836    0.877087   -0.876047
      7          6           0       22.436469    0.395147   -0.527822
      8          6           0       21.309459    1.167285   -1.281040
      9          6           0       22.117020    1.725553   -2.546200
     10          6           0       23.608440    1.443212   -2.120055
     11          6           0       21.637075    1.115220   -3.885100
     12          6           0       20.800181    2.313398   -0.436959
     13          6           0       19.295752    2.533079   -0.469270
     14          1           0       18.642113    3.966067   -0.448559
     15          7           0       26.588116    1.108096   -1.593328
     16          6           0       26.095888    1.911513   -2.551969
     17          6           0       27.204506    2.509346   -3.222583
     18          6           0       28.427422    2.066066   -2.633633
     19          6           0       27.985618    1.261763   -1.487617
     20          6           0       27.029045    3.289386   -4.472811
     21          6           0       29.772812    2.561666   -3.029516
     22          8           0       29.892500    3.319981   -3.977437
     23          6           0       31.037461    2.091839   -2.320638
     24          7           0       27.301197   -0.584876    1.051483
     25          6           0       28.485228    0.018454    0.750948
     26          6           0       29.476215   -0.187825    1.850038
     27          6           0       28.611728   -1.075528    2.864931
     28          6           0       27.272283   -1.294514    2.206362
     29          6           0       30.817648   -0.799277    1.404185
     30          6           0       28.480847   -0.510614    4.348400
     31          6           0       28.819197   -1.406240    5.563304
     32          7           0       24.453935   -1.021297    1.322894
     33          6           0       24.841068   -1.764530    2.393401
     34          6           0       23.757884   -2.491598    2.888999
     35          6           0       22.638708   -2.058645    2.191562
     36          6           0       23.100015   -1.116393    1.306839
     37          6           0       23.831365   -3.473638    4.094811
     38          6           0       21.268066   -2.194373    2.023107
     39          8           0       20.483476   -2.843190    2.706195
     40          6           0       20.790468   -1.118232    0.933190
     41          6           0       20.264874   -1.737775   -0.229491
     42          8           0       20.829606   -2.302100   -1.169550
     43          8           0       18.883857   -1.585428   -0.153060
     44          6           0       18.018418   -2.111888   -1.194553
     45          1           0       24.432811    2.454386   -3.778879
     46          1           0       29.838618    1.043453   -0.297820
     47          1           0       26.486457   -2.525377    3.616338
     48          1           0       20.507874    0.461025   -1.495492
     49          1           0       22.122087    2.812169   -2.625498
     50          1           0       20.900329    0.327335   -3.729677
     51          1           0       22.493473    0.719332   -4.431885
     52          1           0       21.235818    1.928434   -4.489456
     53          1           0       21.255213    3.292678   -0.586857
     54          1           0       21.174787    2.097576    0.563621
     55          1           0       18.878762    1.919174    0.328885
     56          1           0       19.034512    2.045272   -1.408350
     57          1           0       27.258266    2.555450   -5.245176
     58          1           0       27.698605    4.149071   -4.505936
     59          1           0       26.016502    3.671837   -4.602061
     60          1           0       31.093758    2.677284   -1.402805
     61          1           0       31.865470    2.456276   -2.928167
     62          1           0       31.010262    1.015140   -2.153562
     63          1           0       29.594702    0.840492    2.190010
     64          1           0       29.091966   -2.032544    3.068957
     65          1           0       31.541501    0.015586    1.439245
     66          1           0       30.769153   -1.255556    0.414929
     67          1           0       31.137638   -1.539249    2.137367
     68          1           0       27.449536   -0.192868    4.501141
     69          1           0       29.130771    0.344638    4.534756
     70          1           0       27.836973   -1.843947    5.741013
     71          1           0       29.090024   -0.793411    6.422092
     72          1           0       29.430291   -2.299278    5.433023
     73          1           0       23.923282   -2.888939    5.009222
     74          1           0       24.699999   -4.131650    4.125973
     75          1           0       22.925647   -4.077092    4.161046
     76          1           0       20.089767   -0.464402    1.452675
     77          1           0       17.078081   -2.385528   -0.717017
     78          1           0       18.454227   -2.903071   -1.805214
     79          1           0       17.747199   -1.280074   -1.844804
     80         12           0      -25.372010    0.409151    0.303733
     81          6           0      -22.324096   -1.299405   -0.158082
     82          6           0      -26.910237   -2.271838   -1.242481
     83          6           0      -28.381610    1.997900    0.573495
     84          6           0      -23.715176    3.083341    1.475435
     85          7           0      -24.685481   -1.601430   -0.576664
     86          6           0      -23.414151   -2.161352   -0.539163
     87          6           0      -23.468881   -3.624993   -0.928425
     88          6           0      -24.879750   -3.773824   -1.605512
     89          6           0      -25.518172   -2.498958   -1.101657
     90          6           0      -24.871302   -3.963507   -3.173059
     91          6           0      -23.365843   -4.575511    0.273679
     92          6           0      -22.580435   -5.867692    0.025139
     93          1           0      -23.195385   -6.939078   -0.917751
     94          7           0      -27.370801   -0.093539   -0.167198
     95          6           0      -27.721075   -1.221645   -0.826879
     96          6           0      -29.119300   -1.169103   -1.106350
     97          6           0      -29.672404   -0.001478   -0.475664
     98          6           0      -28.474477    0.699325   -0.047970
     99          6           0      -29.819461   -2.244145   -1.890344
    100          6           0      -31.103262    0.529681   -0.387715
    101          8           0      -31.404141    1.488939    0.356493
    102          6           0      -32.235580   -0.014841   -1.251091
    103          7           0      -25.961463    2.216328    1.010608
    104          6           0      -27.257044    2.722839    0.971648
    105          6           0      -27.242530    4.133994    1.462822
    106          6           0      -25.772919    4.538843    1.843089
    107          6           0      -25.080026    3.215854    1.478687
    108          6           0      -28.000780    5.147768    0.554071
    109          6           0      -25.549538    4.926457    3.320928
    110          6           0      -25.589477    6.446474    3.570743
    111          7           0      -23.468737    0.874704    0.571619
    112          6           0      -22.870006    2.001847    1.132679
    113          6           0      -21.372473    1.860467    1.263796
    114          6           0      -21.177568    0.579267    0.722802
    115          6           0      -22.443805    0.007821    0.375622
    116          6           0      -20.407149    2.882475    1.836020
    117          6           0      -20.120404   -0.375795    0.426777
    118          8           0      -18.898198   -0.293938    0.555462
    119          6           0      -20.877916   -1.687250   -0.049320
    120          6           0      -20.211639   -2.077324   -1.383375
    121          8           0      -19.859583   -1.318722   -2.263011
    122          8           0      -19.920180   -3.439701   -1.351543
    123          6           0      -19.275471   -3.914546   -2.576010
    124          1           0      -27.372624   -3.167807   -1.661422
    125          1           0      -29.286144    2.592658    0.715213
    126          1           0      -23.247674    4.031708    1.747100
    127          1           0      -22.719277   -3.929023   -1.658601
    128          1           0      -25.457006   -4.635357   -1.269789
    129          1           0      -23.887084   -4.082224   -3.627098
    130          1           0      -25.299575   -3.154665   -3.764571
    131          1           0      -25.389314   -4.880898   -3.452677
    132          1           0      -24.352047   -4.860437    0.639452
    133          1           0      -22.830432   -4.100331    1.095896
    134          1           0      -22.294462   -6.355465    0.956914
    135          1           0      -21.596422   -5.657376   -0.393376
    136          1           0      -29.167328   -2.344542   -2.758081
    137          1           0      -30.812685   -2.022593   -2.280615
    138          1           0      -29.873670   -3.211997   -1.392445
    139          1           0      -31.940933   -0.051649   -2.299996
    140          1           0      -33.030708    0.705152   -1.058035
    141          1           0      -32.498548   -1.031459   -0.958821
    142          1           0      -27.921991    4.171814    2.314836
    143          1           0      -25.325904    5.308075    1.212038
    144          1           0      -28.348348    4.606826   -0.326356
    145          1           0      -27.302808    5.919941    0.231631
    146          1           0      -28.828783    5.489011    1.176313
    147          1           0      -24.643476    4.420720    3.653934
    148          1           0      -26.379769    4.586813    3.940555
    149          1           0      -26.167053    6.934159    2.785215
    150          1           0      -24.636735    6.974339    3.525054
    151          1           0      -26.114762    6.617462    4.510860
    152          1           0      -20.558042    2.897288    2.915567
    153          1           0      -20.547920    3.907430    1.493441
    154          1           0      -19.411202    2.515896    1.587909
    155          1           0      -20.825989   -2.536185    0.632118
    156          1           0      -19.961516   -4.257106   -3.351256
    157          1           0      -18.622787   -4.715602   -2.229284
    158          1           0      -18.652170   -3.228426   -3.149428
 ---------------------------------------------------------------------

 SCF Done:  E(RCAM-B3LYP) =  -4069.81973076     A.U. after   18 cycles

 Excitation energies and oscillator strengths:

 Excited State   1:      Singlet-A      1.6990 eV  729.76 nm  f=0.4629  <S**2>=0.000
     309 -> 315        0.18312
     311 -> 313        0.67790
     309 <- 315        0.10882
 This state for optimization and/or second-order correction.
 Total Energy, E(TD-HF/TD-DFT) =  -4069.75729482
 Copying the excited state density for this state as the 1-particle RhoCI density.

 Excited State   2:      Singlet-A      1.7015 eV  728.68 nm  f=0.3163  <S**2>=0.000
     310 -> 316        0.18464
     312 -> 314        0.67690
     310 <- 316        0.10844

 Excited State   3:      Singlet-A      2.2279 eV  556.51 nm  f=0.1010  <S**2>=0.000
     309 -> 313        0.63663
     311 -> 315       -0.29394

 Excited State   4:      Singlet-A      2.2323 eV  555.40 nm  f=0.0988  <S**2>=0.000
     310 -> 314        0.63577
     312 -> 316       -0.29947

 Excited State   5:      Singlet-A      3.0489 eV  406.65 nm  f=0.0000  <S**2>=0.000
     312 -> 313        0.70710

 The electronic state is 1-A.
 Alpha  occ. eigenvalues --  -46.89685 -46.87641 -19.25755 -19.24632 -19.20403
 Alpha  occ. eigenvalues --  -19.20185 -19.19240 -19.19199 -19.19089 -19.18351
 Alpha  occ. eigenvalues --  -14.42668 -14.42346 -14.42016 -14.41269 -14.39887
 Alpha  occ. eigenvalues --  -14.39802 -14.39474 -14.39196 -10.39677 -10.39616
 Alpha  occ. eigenvalues --  -10.35839 -10.35225 -10.35072 -10.34618 -10.31574
 Alpha  occ. eigenvalues --  -10.31540 -10.31470 -10.31431 -10.31390 -10.31304
 Alpha  occ. eigenvalues --  -10.31138 -10.30901 -10.30867 -10.30737 -10.30720
 Alpha  occ. eigenvalues --  -10.30318 -10.30269 -10.29771 -10.29578 -10.29435
 Alpha  occ. eigenvalues --  -10.29213 -10.29096 -10.28823 -10.28736 -10.28731
 Alpha  occ. eigenvalues --  -10.28713 -10.28706 -10.28621 -10.28551 -10.28497
 Alpha  occ. eigenvalues --  -10.28370 -10.28334 -10.28325 -10.28311 -10.28171
 Alpha  occ. eigenvalues --  -10.28169 -10.27848 -10.27808 -10.27792 -10.27756
 Alpha  occ. eigenvalues --  -10.27539 -10.27367 -10.27364 -10.27196 -10.27059
 Alpha  occ. eigenvalues --  -10.27039 -10.27035 -10.26854 -10.26793 -10.26601
 Alpha  occ. eigenvalues --  -10.26595 -10.26526 -10.26418 -10.26397 -10.26329
 Alpha  occ. eigenvalues --  -10.26060 -10.26028 -10.26002 -10.25982 -10.25896
 Alpha  occ. eigenvalues --  -10.25846 -10.25686 -10.25655 -10.25555 -10.24903
 Alpha  occ. eigenvalues --  -10.24846  -3.18007  -3.16424  -1.92920  -1.92457
 Alpha  occ. eigenvalues --   -1.92300  -1.91322  -1.90855  -1.90768  -1.16294
 Alpha  occ. eigenvalues --   -1.15740  -1.10027  -1.09986  -1.09224  -1.08922
 Alpha  occ. eigenvalues --   -1.08167  -1.07517  -1.05507  -1.04708  -1.04080
 Alpha  occ. eigenvalues --   -1.03858  -1.03660  -1.03067  -1.02608  -1.01450
 Alpha  occ. eigenvalues --   -0.93895  -0.92567  -0.89475  -0.89428  -0.89149
 Alpha  occ. eigenvalues --   -0.89015  -0.88402  -0.88291  -0.87892  -0.87477
 Alpha  occ. eigenvalues --   -0.87008  -0.86876  -0.86192  -0.86140  -0.85422
 Alpha  occ. eigenvalues --   -0.84641  -0.84409  -0.83542  -0.83049  -0.82294
 Alpha  occ. eigenvalues --   -0.82254  -0.81723  -0.81481  -0.80981  -0.80797
 Alpha  occ. eigenvalues --   -0.80080  -0.78449  -0.78181  -0.77613  -0.77461
 Alpha  occ. eigenvalues --   -0.77282  -0.76563  -0.76507  -0.76147  -0.75177
 Alpha  occ. eigenvalues --   -0.75054  -0.73513  -0.72676  -0.72390  -0.71657
 Alpha  occ. eigenvalues --   -0.69823  -0.69379  -0.69261  -0.68811  -0.68181
 Alpha  occ. eigenvalues --   -0.68123  -0.67419  -0.67311  -0.66182  -0.65915
 Alpha  occ. eigenvalues --   -0.65782  -0.65500  -0.65486  -0.64861  -0.64487
 Alpha  occ. eigenvalues --   -0.64158  -0.62704  -0.62571  -0.60501  -0.60368
 Alpha  occ. eigenvalues --   -0.60147  -0.59890  -0.59127  -0.59102  -0.58930
 Alpha  occ. eigenvalues --   -0.58495  -0.58185  -0.57997  -0.57744  -0.57494
 Alpha  occ. eigenvalues --   -0.56356  -0.56153  -0.56016  -0.55461  -0.55446
 Alpha  occ. eigenvalues --   -0.55109  -0.54876  -0.54687  -0.54374  -0.53799
 Alpha  occ. eigenvalues --   -0.53540  -0.53492  -0.53399  -0.53131  -0.52875
 Alpha  occ. eigenvalues --   -0.52655  -0.52562  -0.52337  -0.52146  -0.52088
 Alpha  occ. eigenvalues --   -0.52082  -0.51849  -0.51833  -0.51746  -0.51503
 Alpha  occ. eigenvalues --   -0.51313  -0.51219  -0.50480  -0.50382  -0.50211
 Alpha  occ. eigenvalues --   -0.50139  -0.50038  -0.50014  -0.49791  -0.49591
 Alpha  occ. eigenvalues --   -0.49440  -0.49363  -0.49066  -0.49027  -0.48990
 Alpha  occ. eigenvalues --   -0.48898  -0.48490  -0.48387  -0.48294  -0.48237
 Alpha  occ. eigenvalues --   -0.48081  -0.47615  -0.47535  -0.47397  -0.46885
 Alpha  occ. eigenvalues --   -0.46849  -0.46754  -0.46708  -0.46656  -0.46611
 Alpha  occ. eigenvalues --   -0.46522  -0.46271  -0.46129  -0.45962  -0.45901
 Alpha  occ. eigenvalues --   -0.45821  -0.45511  -0.45477  -0.45299  -0.45077
 Alpha  occ. eigenvalues --   -0.44917  -0.44701  -0.44620  -0.44527  -0.44519
 Alpha  occ. eigenvalues --   -0.44350  -0.44339  -0.43907  -0.43610  -0.43585
 Alpha  occ. eigenvalues --   -0.43492  -0.43392  -0.43182  -0.43164  -0.43009
 Alpha  occ. eigenvalues --   -0.42873  -0.42681  -0.42353  -0.42186  -0.42055
 Alpha  occ. eigenvalues --   -0.41934  -0.41923  -0.41837  -0.41746  -0.41604
 Alpha  occ. eigenvalues --   -0.41444  -0.41225  -0.41069  -0.41047  -0.40445
 Alpha  occ. eigenvalues --   -0.40248  -0.40239  -0.39729  -0.39686  -0.38706
 Alpha  occ. eigenvalues --   -0.38307  -0.38289  -0.38213  -0.37969  -0.37929
 Alpha  occ. eigenvalues --   -0.37374  -0.37268  -0.37260  -0.36869  -0.36632
 Alpha  occ. eigenvalues --   -0.36269  -0.35672  -0.35154  -0.34950  -0.34915
 Alpha  occ. eigenvalues --   -0.34362  -0.33617  -0.32849  -0.31826  -0.31516
 Alpha  occ. eigenvalues --   -0.31202  -0.30970  -0.30936  -0.30716  -0.30551
 Alpha  occ. eigenvalues --   -0.30496  -0.29993  -0.29444  -0.24551  -0.23946
 Alpha  occ. eigenvalues --   -0.21544  -0.21073
 Alpha virt. eigenvalues --   -0.09183  -0.08568  -0.02272  -0.01776  -0.00176
 Alpha virt. eigenvalues --    0.00002   0.01751   0.02337   0.02517   0.03743
 Alpha virt. eigenvalues --    0.04055   0.04645   0.04760   0.05034   0.05508

 Mulliken charges:
               1
     1  Mg  11.997259
     2  C    5.993092
     3  C    6.033094
     4  C    6.015024
     5  C    5.970503
     6  N    7.014689
     7  C    6.021435
     8  C    5.992801
     9  C    6.009930
    10  C    5.957456
    11  C    6.000759
    12  C    5.998996
    13  C    5.997429
    14  H    1.009551
    15  N    7.006342
    16  C    5.949491
    17  C    5.978678
    18  C    5.987903
    19  C    5.957925
    20  C    6.006613
    21  C    5.990348
    22  O    7.981791
    23  C    6.002912
    24  N    6.991882
    25  C    5.970055
    26  C    6.010968
    27  C    5.989454
    28  C    6.038167
    29  C    6.003946
    30  C    5.997463
    31  C    6.002452
    32  N    6.998913
    33  C    6.038023
    34  C    6.028863
    35  C    6.005898
    36  C    6.023345
    37  C    5.999741
    38  C    6.015954
    39  O    8.032980
    40  C    6.005436
    41  C    6.001112
    42  O    8.010216
    43  O    8.001603
    44  C    5.995901
    45  H    0.995331
    46  H    0.988206
    47  H    1.005821
    48  H    0.998586
    49  H    1.000569
    50  H    0.987593
    51  H    1.004565
    52  H    0.998302
    53  H    1.011951
    54  H    0.993433
    55  H    0.995042
    56  H    1.004066
    57  H    0.976924
    58  H    0.981195
    59  H    0.976702
    60  H    0.989954
    61  H    0.986924
    62  H    0.992116
    63  H    1.000436
    64  H    1.001157
    65  H    1.000604
    66  H    1.001135
    67  H    0.987792
    68  H    0.994856
    69  H    1.010447
    70  H    0.992303
    71  H    1.003033
    72  H    1.002959
    73  H    1.020848
    74  H    1.021185
    75  H    1.012732
    76  H    1.010187
    77  H    1.004049
    78  H    1.004512
    79  H    1.008094
    80  Mg  11.999999
    81  C    6.003148
    82  C    5.997361
    83  C    5.996600
    84  C    6.002280
    85  N    7.000671
    86  C    5.995077
    87  C    6.001392
    88  C    5.998348
    89  C    6.005215
    90  C    5.999483
    91  C    6.000572
    92  C    6.000200
    93  H    0.998569
    94  N    6.998796
    95  C    6.006304
    96  C    6.003278
    97  C    6.002171
    98  C    6.005193
    99  C    5.999512
   100  C    6.001560
   101  O    8.003871
   102  C    5.999427
   103  N    6.999117
   104  C    6.005214
   105  C    5.998467
   106  C    6.001837
   107  C    5.995258
   108  C    5.999694
   109  C    6.000598
   110  C    6.000063
   111  N    7.000419
   112  C    5.994044
   113  C    5.995468
   114  C    5.999939
   115  C    5.994924
   116  C    6.000064
   117  C    5.997801
   118  O    7.995597
   119  C    5.999858
   120  C    5.999106
   121  O    7.999686
   122  O    7.999669
   123  C    6.000439
   124  H    1.001357
   125  H    1.000889
   126  H    0.998619
   127  H    0.999858
   128  H    1.000199
   129  H    1.002058
   130  H    0.999918
   131  H    1.000401
   132  H    0.998163
   133  H    1.000986
   134  H    0.999885
   135  H    1.000558
   136  H    1.002410
   137  H    1.002419
   138  H    1.003217
   139  H    1.000982
   140  H    1.001974
   141  H    1.001125
   142  H    1.000243
   143  H    0.999783
   144  H    0.999291
   145  H    1.001665
   146  H    1.000286
   147  H    1.000842
   148  H    0.998437
   149  H    0.999080
   150  H    1.000241
   151  H    0.999359
   152  H    0.997212
   153  H    0.997234
   154  H    0.998103
   155  H    0.998815
   156  H    0.998960
   157  H    0.999410
   158  H    0.999733
 Sum of Mulliken charges = 624.00000

 Dipole moment (field-independent basis, Debye):
    X=             -8.3629    Y=             -5.7785    Z=              6.3536  Tot=             11.9874
 Quadrupole moment (field-independent basis, Debye-Ang):
   XX=           -272.8656   YY=              0.3832   ZZ=             -3.3175
   XY=           -131.4391   XZ=            182.4366   YZ=              1.5450

 Normal termination of Gaussian 16 at Wed Sep 22 06:41:50 2021.
