 Gaussian 16, Revision A.03,
 Gaussian 16:  ES64L-G16RevA.03 25-Dec-2016

 ----------------------------------------------------------
 #p cam-b3lyp/Def2SVP td=(nstates=5) density=(transition=1)
 ----------------------------------------------------------

 --------------------------------
 TDDFT excited states in gaussian
 --------------------------------
 Symbolic Z-matrix:
 Charge =  0 Multiplicity = 1

                         Standard orientation:
 ---------------------------------------------------------------------
 Center     Atomic      Atomic             Coordinates (Angstroms)
 Number     Number       Type             X           Y           Z
 ---------------------------------------------------------------------
      1         12           0      -20.342423   -0.426089    0.143768
      2          6           0      -19.854256    2.748778   -1.201388
      3          6           0      -20.045518    0.894951    3.306291
      4          6           0      -20.552877   -3.600184    1.276544
      5          6           0      -20.233253   -1.730031   -3.181517
      6          7           0      -19.884395    1.559084    0.905868
      7          6           0      -19.750478    2.714943    0.200543
      8          6           0      -19.624095    3.927812    1.131489
      9          6           0      -19.547399    3.225886    2.558988
     10          6           0      -19.866873    1.767466    2.214272
     11          6           0      -18.168439    3.364621    3.192698
     12          6           0      -20.852646    4.905406    1.156335
     13          6           0      -20.582877    6.347491    1.499175
     14          1           0      -19.307711    6.718406    2.113261
     15          7           0      -20.393753   -1.205902    2.000802
     16          6           0      -20.243879   -0.476495    3.197247
     17          6           0      -20.512387   -1.400721    4.267644
     18          6           0      -20.716275   -2.698628    3.734587
     19          6           0      -20.554741   -2.550175    2.267222
     20          6           0      -20.343229   -1.046289    5.729546
     21          6           0      -21.058963   -3.973044    4.384905
     22          8           0      -21.007571   -5.044371    3.819237
     23          6           0      -21.359793   -4.023743    5.926800
     24          7           0      -20.563143   -2.444375   -0.807300
     25          6           0      -20.600789   -3.543678   -0.115330
     26          6           0      -20.648865   -4.797495   -1.039545
     27          6           0      -20.624593   -4.231985   -2.447941
     28          6           0      -20.407408   -2.697261   -2.191275
     29          6           0      -19.492060   -5.830259   -0.641528
     30          6           0      -21.885683   -4.584615   -3.264760
     31          6           0      -21.799505   -5.834526   -4.218273
     32          7           0      -20.362895    0.284834   -1.752540
     33          6           0      -20.315705   -0.350430   -3.018321
     34          6           0      -20.300182    0.597038   -4.066833
     35          6           0      -20.031001    1.841817   -3.353920
     36          6           0      -20.124253    1.546802   -1.963700
     37          6           0      -20.152272    0.288865   -5.545609
     38          6           0      -19.730856    3.201176   -3.615172
     39          8           0      -19.630792    3.836273   -4.657434
     40          6           0      -19.686157    3.906697   -2.104808
     41          6           0      -18.371324    4.627587   -2.049143
     42          8           0      -17.269791    4.085337   -2.187121
     43          8           0      -18.523704    6.042704   -1.953819
     44          6           0      -17.253197    6.831835   -1.905401
     45          1           0      -19.938918    1.381918    4.278607
     46          1           0      -20.429881   -4.591580    1.716700
     47          1           0      -20.245940   -2.069455   -4.219003
     48          1           0      -18.686317    4.416397    0.866058
     49          1           0      -20.252282    3.645248    3.276766
     50          1           0      -17.577105    4.128127    2.687969
     51          1           0      -17.640223    2.413623    3.266405
     52          1           0      -18.184387    3.806553    4.188988
     53          1           0      -21.584106    4.492435    1.850098
     54          1           0      -21.348284    4.801606    0.190857
     55          1           0      -21.310826    6.632142    2.258570
     56          1           0      -20.691074    6.952710    0.599081
     57          1           0      -19.519336   -1.576358    6.207263
     58          1           0      -21.291380   -1.237820    6.233708
     59          1           0      -20.099603   -0.006304    5.946157
     60          1           0      -20.386180   -4.046121    6.417056
     61          1           0      -21.800552   -4.985058    6.191171
     62          1           0      -21.894082   -3.130761    6.248884
     63          1           0      -21.609373   -5.247183   -0.787244
     64          1           0      -19.714357   -4.506694   -2.978731
     65          1           0      -18.857210   -6.044854   -1.501077
     66          1           0      -19.864421   -6.818350   -0.370394
     67          1           0      -18.922725   -5.313659    0.132282
     68          1           0      -22.102453   -3.706603   -3.874225
     69          1           0      -22.698466   -4.697006   -2.547072
     70          1           0      -21.377230   -5.497174   -5.165493
     71          1           0      -22.694527   -6.434058   -4.385496
     72          1           0      -21.009463   -6.400580   -3.725953
     73          1           0      -21.176291    0.087024   -5.858757
     74          1           0      -19.542559   -0.599093   -5.708346
     75          1           0      -19.563755    0.995264   -6.132465
     76          1           0      -20.548833    4.565954   -2.000871
     77          1           0      -16.675567    6.719130   -2.822160
     78          1           0      -16.560145    6.649827   -1.083596
     79          1           0      -17.679379    7.834842   -1.884371
     80         12           0       19.627328   -0.751897   -0.165432
     81          6           0       21.458709    2.197817   -0.288389
     82          6           0       17.178311    1.075853    1.475094
     83          6           0       18.045516   -3.704583    0.422580
     84          6           0       22.265210   -2.416300   -1.657824
     85          7           0       19.382715    1.383829    0.561243
     86          6           0       20.250054    2.448511    0.369435
     87          6           0       19.772931    3.790504    1.051550
     88          6           0       18.539034    3.249732    1.872976
     89          6           0       18.354622    1.791839    1.311383
     90          6           0       18.571145    3.194630    3.403152
     91          6           0       19.470576    4.867280   -0.006640
     92          6           0       20.447256    6.007687   -0.123788
     93          1           0       19.858132    7.397194   -0.425071
     94          7           0       17.782534   -1.268231    0.627516
     95          6           0       16.937126   -0.345460    1.159922
     96          6           0       15.766438   -1.111079    1.630784
     97          6           0       16.015969   -2.479425    1.442233
     98          6           0       17.276733   -2.563476    0.813543
     99          6           0       14.542049   -0.423573    2.081996
    100          6           0       15.194116   -3.674700    1.826700
    101          8           0       15.488335   -4.856921    1.495944
    102          6           0       14.015471   -3.606458    2.632060
    103          7           0       20.035701   -2.712057   -0.619144
    104          6           0       19.226737   -3.760408   -0.304370
    105          6           0       19.764835   -5.071019   -0.725559
    106          6           0       21.099102   -4.676705   -1.454993
    107          6           0       21.158169   -3.221765   -1.176647
    108          6           0       19.994698   -6.255689    0.258438
    109          6           0       21.201403   -5.123610   -2.996501
    110          6           0       20.609604   -4.283000   -4.166665
    111          7           0       21.500440   -0.295690   -0.816286
    112          6           0       22.448396   -1.058478   -1.435373
    113          6           0       23.481961   -0.248230   -1.913339
    114          6           0       23.143879    1.055425   -1.381396
    115          6           0       21.918505    0.963453   -0.751959
    116          6           0       24.666154   -0.652925   -2.789319
    117          6           0       23.571928    2.424190   -1.423165
    118          8           0       24.465615    3.021442   -1.987929
    119          6           0       22.573511    3.191891   -0.487525
    120          6           0       23.247140    3.554899    0.775055
    121          8           0       22.992687    3.098343    1.911305
    122          8           0       24.246631    4.453443    0.638312
    123          6           0       24.851372    5.084802    1.860594
    124          1           0       16.440652    1.641786    2.046722
    125          1           0       17.606677   -4.686472    0.612694
    126          1           0       23.057816   -2.834022   -2.282915
    127          1           0       20.417127    4.080434    1.882303
    128          1           0       17.690540    3.853764    1.551717
    129          1           0       18.612920    2.158951    3.741218
    130          1           0       17.583195    3.509378    3.736046
    131          1           0       19.367002    3.769271    3.878223
    132          1           0       18.527713    5.315215    0.309331
    133          1           0       19.287357    4.366131   -0.957103
    134          1           0       21.137619    5.763058   -0.931470
    135          1           0       21.105000    6.154107    0.733085
    136          1           0       13.773516   -0.734049    1.375314
    137          1           0       14.529995    0.664540    2.157056
    138          1           0       14.263953   -0.787081    3.071218
    139          1           0       14.267264   -2.930588    3.448890
    140          1           0       13.635563   -4.604146    2.848221
    141          1           0       13.221460   -3.061979    2.120929
    142          1           0       18.990930   -5.351785   -1.439346
    143          1           0       21.942671   -5.113047   -0.921410
    144          1           0       19.336968   -7.098408    0.045374
    145          1           0       19.772973   -5.963513    1.285434
    146          1           0       21.029361   -6.596764    0.291766
    147          1           0       20.641422   -6.059011   -2.996135
    148          1           0       22.271922   -5.313670   -3.075207
    149          1           0       20.255767   -3.288621   -3.895658
    150          1           0       19.897029   -4.796395   -4.812863
    151          1           0       21.452971   -4.170901   -4.846771
    152          1           0       25.620626   -0.403035   -2.324846
    153          1           0       24.615292   -0.059240   -3.701892
    154          1           0       24.653146   -1.692562   -3.117616
    155          1           0       22.382096    4.162090   -0.946296
    156          1           0       25.359969    5.900208    1.346066
    157          1           0       25.527435    4.443886    2.425560
    158          1           0       24.059293    5.420717    2.530544
 ---------------------------------------------------------------------

 SCF Done:  E(RCAM-B3LYP) =  -4069.84592775     A.U. after   19 cycles

 Excitation energies and oscillator strengths:

 Excited State   1:      Singlet-A      1.7035 eV  727.83 nm  f=0.3833  <S**2>=0.000
     310 -> 316       -0.17723
     312 -> 314        0.68473
     310 <- 316       -0.10753
 This state for optimization and/or second-order correction.
 Total Energy, E(TD-HF/TD-DFT) =  -4069.78332652
 Copying the excited state density for this state as the 1-particle RhoCI density.

 Excited State   2:      Singlet-A      1.7265 eV  718.14 nm  f=0.3766  <S**2>=0.000
     309 -> 315       -0.17541
     311 -> 313        0.68640
     309 <- 315       -0.10552

 Excited State   3:      Singlet-A      2.2075 eV  561.65 nm  f=0.1383  <S**2>=0.000
     310 -> 314        0.65092
     312 -> 316        0.26116

 Excited State   4:      Singlet-A      2.2227 eV  557.82 nm  f=0.1488  <S**2>=0.000
     309 -> 313        0.65060
     311 -> 315        0.26125

 Excited State   5:      Singlet-A      3.0359 eV  408.39 nm  f=0.0000  <S**2>=0.000
     312 -> 313        0.70710

 The electronic state is 1-A.
 Alpha  occ. eigenvalues --  -46.88010 -46.87521 -19.24176 -19.24058 -19.19477
 Alpha  occ. eigenvalues --  -19.19294 -19.18253 -19.18244 -19.18217 -19.17944
 Alpha  occ. eigenvalues --  -14.42710 -14.41994 -14.41853 -14.41673 -14.40193
 Alpha  occ. eigenvalues --  -14.39524 -14.39375 -14.38351 -10.39090 -10.38533
 Alpha  occ. eigenvalues --  -10.35494 -10.34510 -10.34362 -10.34171 -10.32008
 Alpha  occ. eigenvalues --  -10.31722 -10.31633 -10.31215 -10.31181 -10.30950
 Alpha  occ. eigenvalues --  -10.30876 -10.30833 -10.30796 -10.30715 -10.30585
 Alpha  occ. eigenvalues --  -10.30459 -10.30115 -10.30016 -10.29723 -10.28922
 Alpha  occ. eigenvalues --  -10.28896 -10.28891 -10.28548 -10.28511 -10.28357
 Alpha  occ. eigenvalues --  -10.28284 -10.28140 -10.28128 -10.28072 -10.27959
 Alpha  occ. eigenvalues --  -10.27871 -10.27830 -10.27795 -10.27794 -10.27781
 Alpha  occ. eigenvalues --  -10.27723 -10.27655 -10.27636 -10.27525 -10.27500
 Alpha  occ. eigenvalues --  -10.27369 -10.27248 -10.27244 -10.27134 -10.27083
 Alpha  occ. eigenvalues --  -10.26905 -10.26897 -10.26873 -10.26833 -10.26740
 Alpha  occ. eigenvalues --  -10.26688 -10.26386 -10.26368 -10.26351 -10.26307
 Alpha  occ. eigenvalues --  -10.26016 -10.25993 -10.25905 -10.25884 -10.25881
 Alpha  occ. eigenvalues --  -10.25879 -10.25824 -10.25709 -10.25659 -10.24602
 Alpha  occ. eigenvalues --  -10.24556  -3.16706  -3.16237  -1.91617  -1.91154
 Alpha  occ. eigenvalues --   -1.91147  -1.91024  -1.90696  -1.90541  -1.15128
 Alpha  occ. eigenvalues --   -1.13472  -1.11149  -1.09518  -1.08650  -1.07942
 Alpha  occ. eigenvalues --   -1.05851  -1.05221  -1.05123  -1.04831  -1.04077
 Alpha  occ. eigenvalues --   -1.03977  -1.03405  -1.03230  -1.02450  -1.02219
 Alpha  occ. eigenvalues --   -0.93073  -0.92130  -0.89321  -0.89027  -0.89004
 Alpha  occ. eigenvalues --   -0.88438  -0.88436  -0.88289  -0.87794  -0.87567
 Alpha  occ. eigenvalues --   -0.87514  -0.86999  -0.86294  -0.86089  -0.84370
 Alpha  occ. eigenvalues --   -0.84360  -0.83637  -0.83015  -0.82798  -0.82452
 Alpha  occ. eigenvalues --   -0.82232  -0.81523  -0.80978  -0.80536  -0.80420
 Alpha  occ. eigenvalues --   -0.80058  -0.78818  -0.78546  -0.77500  -0.77299
 Alpha  occ. eigenvalues --   -0.76894  -0.76859  -0.76201  -0.75894  -0.75286
 Alpha  occ. eigenvalues --   -0.75091  -0.73151  -0.73103  -0.71648  -0.71325
 Alpha  occ. eigenvalues --   -0.70094  -0.69595  -0.69003  -0.68765  -0.68015
 Alpha  occ. eigenvalues --   -0.67992  -0.67320  -0.67091  -0.65819  -0.65282
 Alpha  occ. eigenvalues --   -0.65190  -0.65078  -0.64982  -0.64641  -0.64602
 Alpha  occ. eigenvalues --   -0.64356  -0.61483  -0.61427  -0.60380  -0.59951
 Alpha  occ. eigenvalues --   -0.59672  -0.59635  -0.59349  -0.59139  -0.58584
 Alpha  occ. eigenvalues --   -0.58563  -0.57812  -0.57786  -0.57384  -0.57295
 Alpha  occ. eigenvalues --   -0.56291  -0.56159  -0.55628  -0.55005  -0.54886
 Alpha  occ. eigenvalues --   -0.54659  -0.54433  -0.54036  -0.53819  -0.53425
 Alpha  occ. eigenvalues --   -0.53266  -0.53238  -0.52934  -0.52901  -0.52522
 Alpha  occ. eigenvalues --   -0.52518  -0.52429  -0.52402  -0.52288  -0.52079
 Alpha  occ. eigenvalues --   -0.52065  -0.51875  -0.51625  -0.51061  -0.51049
 Alpha  occ. eigenvalues --   -0.50829  -0.50592  -0.50342  -0.50167  -0.50155
 Alpha  occ. eigenvalues --   -0.49899  -0.49753  -0.49637  -0.49628  -0.49543
 Alpha  occ. eigenvalues --   -0.49417  -0.49318  -0.49116  -0.48931  -0.48795
 Alpha  occ. eigenvalues --   -0.48600  -0.48469  -0.48414  -0.48177  -0.48177
 Alpha  occ. eigenvalues --   -0.47919  -0.47756  -0.47686  -0.47529  -0.47247
 Alpha  occ. eigenvalues --   -0.47218  -0.47173  -0.46963  -0.46744  -0.46740
 Alpha  occ. eigenvalues --   -0.46486  -0.46240  -0.45981  -0.45802  -0.45696
 Alpha  occ. eigenvalues --   -0.45392  -0.45255  -0.45162  -0.45105  -0.45080
 Alpha  occ. eigenvalues --   -0.44793  -0.44720  -0.44567  -0.44286  -0.44240
 Alpha  occ. eigenvalues --   -0.44121  -0.43971  -0.43925  -0.43808  -0.43783
 Alpha  occ. eigenvalues --   -0.43406  -0.43405  -0.43049  -0.42917  -0.42883
 Alpha  occ. eigenvalues --   -0.42749  -0.42645  -0.42505  -0.42444  -0.42031
 Alpha  occ. eigenvalues --   -0.41871  -0.41591  -0.41526  -0.41473  -0.41333
 Alpha  occ. eigenvalues --   -0.41115  -0.40847  -0.40783  -0.40323  -0.40296
 Alpha  occ. eigenvalues --   -0.39970  -0.39895  -0.39694  -0.39458  -0.38915
 Alpha  occ. eigenvalues --   -0.38653  -0.38194  -0.37810  -0.37808  -0.37262
 Alpha  occ. eigenvalues --   -0.37017  -0.36902  -0.36494  -0.36379  -0.36193
 Alpha  occ. eigenvalues --   -0.35815  -0.35595  -0.34405  -0.34297  -0.33884
 Alpha  occ. eigenvalues --   -0.33544  -0.33179  -0.32873  -0.31690  -0.31104
 Alpha  occ. eigenvalues --   -0.30984  -0.30604  -0.30540  -0.30024  -0.29885
 Alpha  occ. eigenvalues --   -0.29807  -0.29514  -0.29309  -0.24219  -0.23631
 Alpha  occ. eigenvalues --   -0.21577  -0.21100
 Alpha virt. eigenvalues --   -0.09087  -0.08679  -0.01685  -0.01298   0.00181
 Alpha virt. eigenvalues --    0.00695   0.02367   0.02372   0.03579   0.03714
 Alpha virt. eigenvalues --    0.04677   0.05056   0.05178   0.05652   0.05784

 Mulliken charges:
               1
     1  Mg  11.999993
     2  C    5.999539
     3  C    6.000142
     4  C    6.000249
     5  C    5.999846
     6  N    6.999797
     7  C    6.000440
     8  C    5.999886
     9  C    6.000123
    10  C    5.999718
    11  C    6.000083
    12  C    5.999968
    13  C    6.000001
    14  H    0.999976
    15  N    7.000118
    16  C    5.999500
    17  C    5.999848
    18  C    5.999721
    19  C    5.999712
    20  C    6.000094
    21  C    5.999917
    22  O    7.999685
    23  C    6.000039
    24  N    7.000100
    25  C    5.999697
    26  C    6.000041
    27  C    5.999960
    28  C    6.000242
    29  C    6.000031
    30  C    5.999944
    31  C    6.000026
    32  N    7.000025
    33  C    6.000405
    34  C    6.000279
    35  C    6.000089
    36  C    6.000376
    37  C    5.999953
    38  C    6.000157
    39  O    8.000363
    40  C    6.000101
    41  C    6.000054
    42  O    7.999957
    43  O    8.000067
    44  C    5.999982
    45  H    0.999825
    46  H    0.999963
    47  H    1.000174
    48  H    0.999931
    49  H    1.000001
    50  H    0.999796
    51  H    0.999929
    52  H    0.999948
    53  H    1.000146
    54  H    0.999959
    55  H    1.000088
    56  H    0.999990
    57  H    0.999720
    58  H    0.999860
    59  H    0.999802
    60  H    0.999844
    61  H    0.999889
    62  H    1.000004
    63  H    1.000082
    64  H    0.999947
    65  H    0.999871
    66  H    1.000022
    67  H    0.999983
    68  H    0.999973
    69  H    1.000149
    70  H    0.999983
    71  H    1.000117
    72  H    1.000012
    73  H    1.000245
    74  H    1.000151
    75  H    1.000150
    76  H    1.000125
    77  H    0.999984
    78  H    0.999988
    79  H    1.000106
    80  Mg  11.999919
    81  C    6.022526
    82  C    5.979564
    83  C    5.975117
    84  C    6.002621
    85  N    7.004829
    86  C    5.970640
    87  C    6.012538
    88  C    5.993837
    89  C    6.028066
    90  C    5.997742
    91  C    6.004738
    92  C    6.001769
    93  H    0.992899
    94  N    6.991034
    95  C    6.048039
    96  C    6.030190
    97  C    6.006250
    98  C    6.041329
    99  C    5.991842
   100  C    6.012423
   101  O    8.025762
   102  C    5.995033
   103  N    6.990468
   104  C    6.043134
   105  C    5.983169
   106  C    6.014618
   107  C    5.965309
   108  C    6.001204
   109  C    6.004513
   110  C    6.001752
   111  N    7.006528
   112  C    5.968371
   113  C    5.970992
   114  C    5.993814
   115  C    5.967857
   116  C    6.003790
   117  C    5.986725
   118  O    7.970306
   119  C    5.994742
   120  C    5.999264
   121  O    7.990068
   122  O    8.001740
   123  C    6.002426
   124  H    1.010121
   125  H    1.007987
   126  H    0.986569
   127  H    0.995291
   128  H    1.001094
   129  H    0.995878
   130  H    0.999164
   131  H    1.013030
   132  H    0.990028
   133  H    0.999549
   134  H    1.005583
   135  H    1.000225
   136  H    1.022732
   137  H    1.022507
   138  H    1.023809
   139  H    1.003436
   140  H    1.014593
   141  H    1.006910
   142  H    1.000139
   143  H    0.999365
   144  H    1.000197
   145  H    0.997182
   146  H    1.011280
   147  H    0.986733
   148  H    1.001534
   149  H    1.000985
   150  H    0.990794
   151  H    1.001776
   152  H    0.980151
   153  H    0.980948
   154  H    0.981819
   155  H    0.991368
   156  H    0.996933
   157  H    0.997135
   158  H    0.993655
 Sum of Mulliken charges = 624.00000

 Dipole moment (field-independent basis, Debye):
    X=             -9.6850    Y=             -2.6407    Z=              4.2320  Tot=             10.8942
 Quadrupole moment (field-independent basis, Debye-Ang):
   XX=           -378.3646   YY=              0.7823   ZZ=             -1.4684
   XY=            -46.7773   XZ=             86.8975   YZ=             -4.7759

 Normal termination of Gaussian 16 at Thu Sep 23 05:26:35 2021.
