 Gaussian 16, Revision A.03,
 Gaussian 16:  ES64L-G16RevA.03 25-Dec-2016

 -----------------------------------
 #p cam-b3lyp/Def2SVP td=(nstates=5)
 -----------------------------------

 --------------------------------
 TDDFT excited states in gaussian
 --------------------------------
 Symbolic Z-matrix:
 Charge =  0 Multiplicity = 1

                         Standard orientation:
 ---------------------------------------------------------------------
 Center     Atomic      Atomic             Coordinates (Angstroms)
 Number     Number       Type             X           Y           Z
 ---------------------------------------------------------------------
      1         12           0       20.313357   -0.747627    0.253170
      2          6           0       19.508207    2.187599   -1.630548
      3          6           0       22.256324    1.237788    2.234602
      4          6           0       21.393796   -3.382852    1.647753
      5          6           0       19.255204   -2.618942   -2.489849
      6          7           0       20.745351    1.423084    0.208010
      7          6           0       20.326284    2.447181   -0.528726
      8          6           0       20.777011    3.831952    0.025012
      9          6           0       22.056531    3.366888    0.854798
     10          6           0       21.648172    1.934013    1.148114
     11          6           0       23.342523    3.353055    0.034716
     12          6           0       19.696581    4.481033    0.954042
     13          6           0       19.913142    5.963515    1.271380
     14          1           0       18.750587    6.828865    1.401697
     15          7           0       21.225597   -0.997505    1.987595
     16          6           0       21.958632   -0.075833    2.657271
     17          6           0       22.424772   -0.744112    3.891287
     18          6           0       22.061944   -2.185230    3.793164
     19          6           0       21.562825   -2.252176    2.443432
     20          6           0       23.088185   -0.017025    5.020436
     21          6           0       22.160658   -3.323861    4.758518
     22          8           0       22.005898   -4.539619    4.394435
     23          6           0       22.535596   -2.981226    6.142376
     24          7           0       20.534236   -2.715498   -0.407384
     25          6           0       20.971389   -3.674760    0.415840
     26          6           0       20.780419   -5.036806   -0.182741
     27          6           0       19.893871   -4.823275   -1.493539
     28          6           0       19.793450   -3.278234   -1.461407
     29          6           0       22.064873   -5.791336   -0.552704
     30          6           0       18.584915   -5.645453   -1.598789
     31          6           0       17.601939   -5.182214   -0.546997
     32          7           0       19.355629   -0.333612   -1.650089
     33          6           0       19.027702   -1.262137   -2.648578
     34          6           0       18.497971   -0.497368   -3.792511
     35          6           0       18.570462    0.832835   -3.383673
     36          6           0       19.135594    0.896907   -2.077989
     37          6           0       18.084023   -1.042904   -5.039697
     38          6           0       18.324808    2.216674   -3.755833
     39          8           0       17.771963    2.774349   -4.704966
     40          6           0       19.034675    3.157187   -2.684688
     41          6           0       18.041533    4.210657   -2.275813
     42          8           0       17.013860    3.907161   -1.636170
     43          8           0       18.568696    5.425795   -2.490479
     44          6           0       17.645534    6.516660   -2.078241
     45          1           0       23.075470    1.715774    2.775407
     46          1           0       21.651791   -4.325492    2.134895
     47          1           0       18.826946   -3.140981   -3.347476
     48          1           0       21.070170    4.553070   -0.738186
     49          1           0       22.165393    3.927465    1.783035
     50          1           0       23.144291    3.541593   -1.020310
     51          1           0       23.763813    2.356819    0.170811
     52          1           0       24.074024    4.046968    0.449649
     53          1           0       19.785627    4.061840    1.956244
     54          1           0       18.697647    4.343434    0.538682
     55          1           0       20.649248    6.410833    0.602826
     56          1           0       20.364722    6.038611    2.260641
     57          1           0       23.367603    0.996383    4.734998
     58          1           0       24.037723   -0.518086    5.207582
     59          1           0       22.482583   -0.026569    5.926796
     60          1           0       23.505820   -2.484026    6.139755
     61          1           0       22.469700   -3.908652    6.710170
     62          1           0       21.820688   -2.256314    6.532706
     63          1           0       20.249766   -5.694903    0.504094
     64          1           0       20.440329   -5.075855   -2.402528
     65          1           0       22.153585   -6.766330   -0.072889
     66          1           0       22.913326   -5.154472   -0.304065
     67          1           0       22.213921   -5.943456   -1.621377
     68          1           0       18.783307   -6.699963   -1.410124
     69          1           0       18.105089   -5.567641   -2.574475
     70          1           0       17.912885   -5.736581    0.337775
     71          1           0       16.583876   -5.446126   -0.835282
     72          1           0       17.724852   -4.121592   -0.326861
     73          1           0       17.154509   -0.536969   -5.300472
     74          1           0       17.942710   -2.121401   -4.972781
     75          1           0       18.930588   -0.771001   -5.669976
     76          1           0       19.908318    3.586232   -3.174372
     77          1           0       17.502032    7.160736   -2.945886
     78          1           0       18.075103    6.963857   -1.181641
     79          1           0       16.616559    6.223359   -1.867237
     80         12           0      -20.616797   -0.510214   -0.242045
     81          6           0      -18.104336    1.821632   -0.009998
     82          6           0      -22.909864    2.016698    0.766015
     83          6           0      -23.095412   -2.783752    0.100244
     84          6           0      -18.409165   -2.957434   -0.865033
     85          7           0      -20.504794    1.678116    0.319039
     86          6           0      -19.333843    2.387136    0.341973
     87          6           0      -19.591214    3.864334    0.647889
     88          6           0      -21.128451    3.814116    1.082334
     89          6           0      -21.552073    2.424101    0.707414
     90          6           0      -21.388059    4.215361    2.580769
     91          6           0      -19.342465    4.830224   -0.599092
     92          6           0      -18.620294    6.150267   -0.475222
     93          1           0      -19.002065    7.064479    0.634296
     94          7           0      -22.754608   -0.421886    0.303796
     95          6           0      -23.506127    0.684879    0.493493
     96          6           0      -24.892563    0.366552    0.570394
     97          6           0      -24.988118   -1.042963    0.345053
     98          6           0      -23.557793   -1.471141    0.310828
     99          6           0      -25.862107    1.460382    0.882708
    100          6           0      -26.219612   -1.931610    0.385794
    101          8           0      -26.145203   -3.162398    0.454389
    102          6           0      -27.607930   -1.316555    0.363190
    103          7           0      -20.721989   -2.637221   -0.214473
    104          6           0      -21.891436   -3.328899   -0.182910
    105          6           0      -21.653594   -4.806083   -0.491760
    106          6           0      -20.154104   -4.806064   -0.976844
    107          6           0      -19.725668   -3.382625   -0.679484
    108          6           0      -22.000287   -5.914419    0.545829
    109          6           0      -19.884641   -5.289280   -2.462879
    110          6           0      -19.827980   -4.287528   -3.596735
    111          7           0      -18.670993   -0.617330   -0.312183
    112          6           0      -17.843068   -1.633495   -0.716938
    113          6           0      -16.470544   -1.279476   -0.708203
    114          6           0      -16.517184    0.092749   -0.483052
    115          6           0      -17.874534    0.447408   -0.272322
    116          6           0      -15.191091   -2.056312   -0.990101
    117          6           0      -15.766247    1.261374   -0.332913
    118          8           0      -14.555761    1.386850   -0.359903
    119          6           0      -16.752437    2.511671    0.017688
    120          6           0      -16.359639    3.038950    1.318663
    121          8           0      -16.438449    2.435249    2.406927
    122          8           0      -15.824669    4.287110    1.257391
    123          6           0      -15.103854    4.807210    2.424729
    124          1           0      -23.526070    2.888159    0.995275
    125          1           0      -23.908763   -3.490129   -0.077335
    126          1           0      -17.732572   -3.616452   -1.411756
    127          1           0      -18.880372    4.185707    1.410224
    128          1           0      -21.721631    4.542897    0.529703
    129          1           0      -22.056221    5.075876    2.580789
    130          1           0      -20.392924    4.368587    2.998655
    131          1           0      -21.958334    3.492495    3.164953
    132          1           0      -20.365608    5.017121   -0.925676
    133          1           0      -18.973611    4.271011   -1.458285
    134          1           0      -18.623285    6.667726   -1.434533
    135          1           0      -17.593561    5.893289   -0.217192
    136          1           0      -26.680043    1.315095    0.177979
    137          1           0      -25.431416    2.435990    0.655969
    138          1           0      -26.245932    1.489070    1.903061
    139          1           0      -27.717131   -0.492631   -0.342641
    140          1           0      -27.948344   -1.143353    1.385003
    141          1           0      -28.241914   -2.110549   -0.032606
    142          1           0      -22.382609   -5.010955   -1.276059
    143          1           0      -19.544052   -5.546566   -0.460913
    144          1           0      -21.087535   -6.354557    0.947146
    145          1           0      -22.549976   -6.680402   -0.000920
    146          1           0      -22.603348   -5.424037    1.309201
    147          1           0      -20.669370   -6.006664   -2.699123
    148          1           0      -18.930882   -5.815228   -2.511207
    149          1           0      -20.491421   -4.564497   -4.416363
    150          1           0      -18.826407   -4.146297   -4.005116
    151          1           0      -20.153796   -3.347341   -3.151735
    152          1           0      -15.449977   -3.076510   -1.276011
    153          1           0      -14.561112   -2.042318   -0.100344
    154          1           0      -14.661150   -1.563847   -1.804933
    155          1           0      -16.451175    3.214457   -0.759663
    156          1           0      -14.380822    5.588135    2.188786
    157          1           0      -14.675698    4.055008    3.086602
    158          1           0      -15.846730    5.385224    2.974617
 ---------------------------------------------------------------------

 SCF Done:  E(RCAM-B3LYP) =  -4069.83661482     A.U. after   18 cycles

 Excitation energies and oscillator strengths:

 Excited State   1:      Singlet-A      1.6799 eV  738.06 nm  f=0.3924  <S**2>=0.000
     309 -> 315        0.17551
     312 -> 314        0.68562
     309 <- 315        0.10512
 This state for optimization and/or second-order correction.
 Total Energy, E(TD-HF/TD-DFT) =  -4069.77488128
 Copying the excited state density for this state as the 1-particle RhoCI density.

 Excited State   2:      Singlet-A      1.7199 eV  720.87 nm  f=0.4133  <S**2>=0.000
     310 -> 316       -0.17809
     311 -> 313        0.68649
     310 <- 316       -0.10693

 Excited State   3:      Singlet-A      2.1905 eV  566.01 nm  f=0.1573  <S**2>=0.000
     310 -> 313        0.66092
     311 -> 316        0.23686

 Excited State   4:      Singlet-A      2.1925 eV  565.48 nm  f=0.1159  <S**2>=0.000
     309 -> 314        0.63920
     312 -> 315       -0.27760

 Excited State   5:      Singlet-A      3.0418 eV  407.60 nm  f=0.0000  <S**2>=0.000
     312 -> 313        0.70710

 The electronic state is 1-A.
 Alpha  occ. eigenvalues --  -46.89090 -46.87753 -19.26239 -19.25060 -19.18974
 Alpha  occ. eigenvalues --  -19.18858 -19.18771 -19.18580 -19.18514 -19.18126
 Alpha  occ. eigenvalues --  -14.42406 -14.42118 -14.41526 -14.41406 -14.39563
 Alpha  occ. eigenvalues --  -14.39484 -14.39359 -14.38543 -10.39034 -10.38925
 Alpha  occ. eigenvalues --  -10.35405 -10.35348 -10.34507 -10.34346 -10.31634
 Alpha  occ. eigenvalues --  -10.31608 -10.31362 -10.31058 -10.30865 -10.30859
 Alpha  occ. eigenvalues --  -10.30526 -10.30464 -10.30411 -10.30164 -10.30111
 Alpha  occ. eigenvalues --  -10.30057 -10.30034 -10.29877 -10.29866 -10.29587
 Alpha  occ. eigenvalues --  -10.29211 -10.28993 -10.28705 -10.28562 -10.28493
 Alpha  occ. eigenvalues --  -10.28439 -10.28341 -10.28321 -10.28256 -10.28074
 Alpha  occ. eigenvalues --  -10.27989 -10.27985 -10.27958 -10.27749 -10.27684
 Alpha  occ. eigenvalues --  -10.27666 -10.27541 -10.27483 -10.27458 -10.27442
 Alpha  occ. eigenvalues --  -10.27438 -10.27407 -10.27360 -10.27299 -10.27115
 Alpha  occ. eigenvalues --  -10.26898 -10.26850 -10.26660 -10.26589 -10.26398
 Alpha  occ. eigenvalues --  -10.26366 -10.26215 -10.26194 -10.26165 -10.26139
 Alpha  occ. eigenvalues --  -10.26051 -10.25976 -10.25801 -10.25696 -10.25395
 Alpha  occ. eigenvalues --  -10.25190 -10.25023 -10.24789 -10.24744 -10.24640
 Alpha  occ. eigenvalues --  -10.24604  -3.17699  -3.16495  -1.92582  -1.92115
 Alpha  occ. eigenvalues --   -1.92048  -1.91377  -1.90964  -1.90806  -1.16588
 Alpha  occ. eigenvalues --   -1.15844  -1.09872  -1.09444  -1.08584  -1.07172
 Alpha  occ. eigenvalues --   -1.06597  -1.05838  -1.05358  -1.04625  -1.04537
 Alpha  occ. eigenvalues --   -1.04138  -1.03717  -1.03464  -1.03190  -1.02368
 Alpha  occ. eigenvalues --   -0.92598  -0.91928  -0.89476  -0.89145  -0.89006
 Alpha  occ. eigenvalues --   -0.88243  -0.88241  -0.88185  -0.87827  -0.87766
 Alpha  occ. eigenvalues --   -0.87629  -0.87403  -0.87230  -0.86407  -0.84938
 Alpha  occ. eigenvalues --   -0.84269  -0.83893  -0.83750  -0.82923  -0.82667
 Alpha  occ. eigenvalues --   -0.82605  -0.81827  -0.81542  -0.81151  -0.80552
 Alpha  occ. eigenvalues --   -0.80308  -0.78754  -0.78374  -0.77463  -0.77175
 Alpha  occ. eigenvalues --   -0.77084  -0.76891  -0.76237  -0.75880  -0.75479
 Alpha  occ. eigenvalues --   -0.74855  -0.73527  -0.72731  -0.71629  -0.71531
 Alpha  occ. eigenvalues --   -0.69863  -0.69618  -0.69199  -0.68829  -0.68114
 Alpha  occ. eigenvalues --   -0.67597  -0.67175  -0.67115  -0.65620  -0.65243
 Alpha  occ. eigenvalues --   -0.65107  -0.64810  -0.64754  -0.64577  -0.64226
 Alpha  occ. eigenvalues --   -0.64195  -0.62253  -0.62228  -0.60398  -0.60165
 Alpha  occ. eigenvalues --   -0.59819  -0.59761  -0.59053  -0.58944  -0.58460
 Alpha  occ. eigenvalues --   -0.58279  -0.57897  -0.57540  -0.57278  -0.57265
 Alpha  occ. eigenvalues --   -0.56266  -0.56229  -0.55934  -0.55477  -0.55390
 Alpha  occ. eigenvalues --   -0.55296  -0.54967  -0.54864  -0.54479  -0.54059
 Alpha  occ. eigenvalues --   -0.53851  -0.53288  -0.53255  -0.53178  -0.53115
 Alpha  occ. eigenvalues --   -0.52870  -0.52776  -0.52712  -0.52581  -0.52394
 Alpha  occ. eigenvalues --   -0.52209  -0.52069  -0.51872  -0.51573  -0.51420
 Alpha  occ. eigenvalues --   -0.51152  -0.50742  -0.50552  -0.50529  -0.50257
 Alpha  occ. eigenvalues --   -0.49988  -0.49875  -0.49828  -0.49525  -0.49471
 Alpha  occ. eigenvalues --   -0.49216  -0.49171  -0.49078  -0.49053  -0.48781
 Alpha  occ. eigenvalues --   -0.48747  -0.48549  -0.48548  -0.48418  -0.48402
 Alpha  occ. eigenvalues --   -0.48199  -0.47809  -0.47651  -0.47533  -0.47254
 Alpha  occ. eigenvalues --   -0.47128  -0.46841  -0.46753  -0.46512  -0.46506
 Alpha  occ. eigenvalues --   -0.46315  -0.46151  -0.46119  -0.45944  -0.45873
 Alpha  occ. eigenvalues --   -0.45778  -0.45301  -0.45158  -0.44974  -0.44534
 Alpha  occ. eigenvalues --   -0.44470  -0.44463  -0.44101  -0.44045  -0.43976
 Alpha  occ. eigenvalues --   -0.43927  -0.43911  -0.43611  -0.43451  -0.43357
 Alpha  occ. eigenvalues --   -0.43342  -0.43198  -0.42984  -0.42948  -0.42655
 Alpha  occ. eigenvalues --   -0.42610  -0.42213  -0.41965  -0.41867  -0.41812
 Alpha  occ. eigenvalues --   -0.41660  -0.41504  -0.41490  -0.41304  -0.41098
 Alpha  occ. eigenvalues --   -0.41098  -0.40825  -0.40779  -0.40608  -0.40528
 Alpha  occ. eigenvalues --   -0.40190  -0.39975  -0.39821  -0.39508  -0.39396
 Alpha  occ. eigenvalues --   -0.38497  -0.38426  -0.38219  -0.37704  -0.37327
 Alpha  occ. eigenvalues --   -0.37277  -0.37219  -0.36669  -0.36594  -0.36148
 Alpha  occ. eigenvalues --   -0.36014  -0.35654  -0.34540  -0.34242  -0.33725
 Alpha  occ. eigenvalues --   -0.33424  -0.33143  -0.32867  -0.31320  -0.31301
 Alpha  occ. eigenvalues --   -0.31206  -0.30992  -0.30873  -0.30401  -0.30079
 Alpha  occ. eigenvalues --   -0.29985  -0.29405  -0.29278  -0.24037  -0.23820
 Alpha  occ. eigenvalues --   -0.21451  -0.21084
 Alpha virt. eigenvalues --   -0.09070  -0.08731  -0.01706  -0.01177  -0.00014
 Alpha virt. eigenvalues --    0.00242   0.01860   0.02244   0.02490   0.03169
 Alpha virt. eigenvalues --    0.04761   0.04776   0.05143   0.06166   0.06221

 Mulliken charges:
               1
     1  Mg   0.838826
     2  C   -0.002948
     3  C   -0.094118
     4  C   -0.045895
     5  C   -0.063992
     6  N   -0.256763
     7  C   -0.052458
     8  C   -0.014017
     9  C   -0.087005
    10  C    0.046320
    11  C    0.104827
    12  C    0.053461
    13  C   -0.071822
    14  H    0.036187
    15  N   -0.433145
    16  C    0.168445
    17  C   -0.177151
    18  C   -0.004009
    19  C    0.148730
    20  C    0.110182
    21  C    0.012311
    22  O   -0.249629
    23  C    0.062461
    24  N   -0.341169
    25  C    0.041263
    26  C   -0.028167
    27  C   -0.023990
    28  C    0.074869
    29  C    0.076191
    30  C    0.035134
    31  C   -0.004510
    32  N   -0.310486
    33  C    0.080430
    34  C   -0.169707
    35  C    0.008357
    36  C    0.082992
    37  C    0.127306
    38  C    0.046119
    39  O   -0.188453
    40  C   -0.005345
    41  C    0.212871
    42  O   -0.257041
    43  O   -0.304822
    44  C    0.157676
    45  H   -0.017626
    46  H   -0.016848
    47  H   -0.041502
    48  H    0.000912
    49  H   -0.004025
    50  H    0.025450
    51  H    0.016427
    52  H    0.016626
    53  H    0.011240
    54  H    0.044163
    55  H    0.017826
    56  H    0.017954
    57  H    0.005865
    58  H    0.026791
    59  H    0.039593
    60  H    0.037316
    61  H    0.035656
    62  H    0.031552
    63  H    0.016576
    64  H    0.009422
    65  H    0.023196
    66  H    0.012519
    67  H    0.004714
    68  H    0.006343
    69  H    0.004721
    70  H    0.008791
    71  H    0.018194
    72  H    0.029006
    73  H    0.047594
    74  H    0.009113
    75  H    0.045958
    76  H    0.035109
    77  H    0.042918
    78  H    0.046401
    79  H    0.053742
    80  Mg   0.838590
    81  C    0.011618
    82  C   -0.053551
    83  C   -0.054151
    84  C   -0.074717
    85  N   -0.259026
    86  C   -0.044620
    87  C   -0.039945
    88  C   -0.067770
    89  C    0.025081
    90  C    0.071346
    91  C    0.050774
    92  C   -0.046892
    93  H    0.016606
    94  N   -0.276128
    95  C    0.108821
    96  C   -0.140182
    97  C   -0.038887
    98  C    0.073792
    99  C    0.126620
   100  C   -0.001543
   101  O   -0.216492
   102  C    0.046165
   103  N   -0.278507
   104  C    0.028259
   105  C   -0.031836
   106  C    0.005486
   107  C    0.043834
   108  C    0.083011
   109  C   -0.011470
   110  C    0.012518
   111  N   -0.385133
   112  C    0.091419
   113  C   -0.180234
   114  C    0.092724
   115  C    0.102460
   116  C    0.138702
   117  C   -0.042491
   118  O   -0.171606
   119  C    0.016072
   120  C    0.193107
   121  O   -0.252922
   122  O   -0.327418
   123  C    0.186373
   124  H   -0.035468
   125  H   -0.008363
   126  H   -0.023954
   127  H    0.024596
   128  H    0.018086
   129  H    0.010021
   130  H    0.028613
   131  H    0.019027
   132  H   -0.011574
   133  H    0.007830
   134  H    0.032255
   135  H    0.033365
   136  H    0.009145
   137  H    0.014677
   138  H    0.039583
   139  H    0.033209
   140  H    0.047613
   141  H    0.024820
   142  H    0.009809
   143  H    0.009933
   144  H    0.015169
   145  H    0.018518
   146  H    0.029835
   147  H    0.004393
   148  H    0.004814
   149  H    0.014798
   150  H    0.015419
   151  H    0.016056
   152  H    0.004408
   153  H    0.043858
   154  H    0.038616
   155  H    0.030599
   156  H    0.035101
   157  H    0.058272
   158  H    0.019067
 Sum of Mulliken charges =  -0.00000

 Dipole moment (field-independent basis, Debye):
    X=              0.5699    Y=              3.0450    Z=              0.2542  Tot=              3.1082
 Quadrupole moment (field-independent basis, Debye-Ang):
   XX=           -260.2682   YY=           -472.1425   ZZ=           -513.0875
   XY=            -22.9759   XZ=            101.0500   YZ=             42.2376

 Normal termination of Gaussian 16 at Wed Sep  1 17:37:20 2021.
