 Gaussian 16, Revision A.03,
 Gaussian 16:  ES64L-G16RevA.03 25-Dec-2016

 -----------------------------------
 #p cam-b3lyp/Def2SVP td=(nstates=5)
 -----------------------------------

 --------------------------------
 TDDFT excited states in gaussian
 --------------------------------
 Symbolic Z-matrix:
 Charge =  0 Multiplicity = 1

                         Standard orientation:
 ---------------------------------------------------------------------
 Center     Atomic      Atomic             Coordinates (Angstroms)
 Number     Number       Type             X           Y           Z
 ---------------------------------------------------------------------
      1         12           0       11.595359    0.096042    0.362874
      2          6           0        8.599275   -1.389180   -0.620563
      3          6           0       13.315235   -2.546854   -1.030577
      4          6           0       14.293469    1.718719    1.287764
      5          6           0        9.769793    3.220165    0.798423
      6          7           0       10.937006   -1.844860   -0.684073
      7          6           0        9.666567   -2.231543   -1.006698
      8          6           0        9.666791   -3.568894   -1.658029
      9          6           0       11.199502   -3.917050   -1.826335
     10          6           0       11.921982   -2.696621   -1.133229
     11          6           0       11.596766   -5.338681   -1.355175
     12          6           0        8.922243   -3.582388   -3.015195
     13          6           0        7.886471   -4.704690   -3.053529
     14          1           0        7.942419   -5.694222   -4.256318
     15          7           0       13.548317   -0.374628    0.181594
     16          6           0       14.091449   -1.528540   -0.381451
     17          6           0       15.528763   -1.426309   -0.164397
     18          6           0       15.848738   -0.183418    0.555993
     19          6           0       14.510811    0.448353    0.784226
     20          6           0       16.475765   -2.346417   -0.754676
     21          6           0       17.233384    0.271162    0.766607
     22          8           0       18.216444   -0.357750    0.434956
     23          6           0       17.593862    1.604229    1.323251
     24          7           0       11.942577    2.112254    0.890407
     25          6           0       13.123507    2.440464    1.506638
     26          6           0       13.106473    3.895734    1.924392
     27          6           0       11.867710    4.435634    1.313494
     28          6           0       11.162059    3.236980    0.912415
     29          6           0       13.294032    4.151995    3.475833
     30          6           0       12.131954    5.258907    0.006283
     31          6           0       11.189960    6.331425   -0.293966
     32          7           0        9.582320    0.822270    0.176247
     33          6           0        8.984891    2.061122    0.443129
     34          6           0        7.564578    1.901335    0.450369
     35          6           0        7.351551    0.601972    0.005395
     36          6           0        8.633553   -0.024294   -0.193137
     37          6           0        6.610923    2.980629    0.808785
     38          6           0        6.359360   -0.328127   -0.362123
     39          8           0        5.153296   -0.221218   -0.365269
     40          6           0        7.095643   -1.638779   -0.718611
     41          6           0        6.585490   -2.723539    0.134910
     42          8           0        6.997262   -3.003718    1.273306
     43          8           0        5.473369   -3.284580   -0.449807
     44          6           0        4.838123   -4.447665    0.148076
     45          1           0       13.789006   -3.442804   -1.435753
     46          1           0       15.103292    2.390896    1.582256
     47          1           0        9.260948    4.171647    0.966525
     48          1           0        9.370121   -4.252311   -0.861900
     49          1           0       11.532099   -3.928208   -2.863837
     50          1           0       10.635516   -5.853768   -1.339416
     51          1           0       12.169887   -5.404955   -0.430323
     52          1           0       12.221106   -5.817103   -2.109376
     53          1           0        9.557592   -3.820263   -3.868137
     54          1           0        8.472581   -2.595594   -3.123880
     55          1           0        6.990147   -4.107430   -3.220156
     56          1           0        7.884447   -5.175500   -2.071561
     57          1           0       15.912495   -3.112066   -1.288591
     58          1           0       17.083433   -2.921357   -0.055259
     59          1           0       17.090680   -1.814000   -1.481140
     60          1           0       16.924698    1.617071    2.183593
     61          1           0       17.319735    2.370205    0.597350
     62          1           0       18.640628    1.637008    1.626198
     63          1           0       14.005592    4.293677    1.455381
     64          1           0       11.157300    4.944371    1.965192
     65          1           0       13.592231    3.233285    3.981302
     66          1           0       12.469095    4.677239    3.958451
     67          1           0       14.176262    4.747921    3.707940
     68          1           0       12.189240    4.575315   -0.840873
     69          1           0       13.110101    5.738008    0.045573
     70          1           0       11.519291    7.236662    0.217275
     71          1           0       10.164586    6.067164   -0.033258
     72          1           0       11.316494    6.650706   -1.328949
     73          1           0        6.987956    3.580561    1.636943
     74          1           0        5.603096    2.626763    1.026552
     75          1           0        6.646671    3.647531   -0.052699
     76          1           0        6.830952   -2.018827   -1.705414
     77          1           0        4.266527   -4.325422    1.068152
     78          1           0        5.577348   -5.237479    0.280103
     79          1           0        4.080443   -4.734470   -0.580201
     80         12           0      -10.854557    0.823935    0.163977
     81          6           0      -11.562723   -2.572749    0.397316
     82          6           0       -7.549212   -0.020083   -0.457319
     83          6           0      -10.146725    3.954847   -0.624422
     84          6           0      -14.243881    1.512594    0.293455
     85          7           0       -9.722701   -1.059487   -0.170569
     86          6           0      -10.189700   -2.326335    0.113863
     87          6           0       -9.108285   -3.365593    0.085763
     88          6           0       -7.798082   -2.466688    0.188858
     89          6           0       -8.347878   -1.101965   -0.204222
     90          6           0       -6.822695   -2.527514    1.458509
     91          6           0       -9.166761   -4.382036   -1.146891
     92          6           0       -9.721502   -3.847850   -2.500903
     93          1           0       -8.955412   -4.317329   -3.714286
     94          7           0       -9.115554    1.826164   -0.572863
     95          6           0       -7.834027    1.288842   -0.746622
     96          6           0       -6.921558    2.262796   -1.279964
     97          6           0       -7.670737    3.460507   -1.365404
     98          6           0       -9.046442    3.142037   -0.879640
     99          6           0       -5.426293    1.952596   -1.365953
    100          6           0       -7.037657    4.783495   -1.853302
    101          8           0       -5.880295    4.837686   -2.281484
    102          6           0       -7.876762    5.984507   -1.724444
    103          7           0      -12.091574    2.432462   -0.230816
    104          6           0      -11.509133    3.688304   -0.264053
    105          6           0      -12.543099    4.833950   -0.199864
    106          6           0      -13.857163    3.951825   -0.142632
    107          6           0      -13.398253    2.563487   -0.072404
    108          6           0      -12.461721    5.836953    0.907296
    109          6           0      -14.794885    4.136990   -1.440639
    110          6           0      -16.237027    4.321655   -1.046170
    111          7           0      -12.603743   -0.253849    0.511813
    112          6           0      -13.919554    0.169941    0.535196
    113          6           0      -14.817075   -0.985345    0.764511
    114          6           0      -13.915012   -2.104767    0.720018
    115          6           0      -12.622706   -1.590507    0.562602
    116          6           0      -16.288654   -1.075758    0.730910
    117          6           0      -13.765482   -3.575607    0.713960
    118          8           0      -14.618422   -4.432702    0.730330
    119          6           0      -12.251998   -3.927403    0.548304
    120          6           0      -11.802445   -4.771559    1.655921
    121          8           0      -11.358687   -5.920041    1.646828
    122          8           0      -12.233601   -4.141039    2.852485
    123          6           0      -11.825717   -4.811662    4.105562
    124          1           0       -6.497030   -0.307238   -0.394560
    125          1           0      -10.002922    5.036186   -0.671798
    126          1           0      -15.278453    1.844642    0.396744
    127          1           0       -9.190416   -4.018806    0.954409
    128          1           0       -7.234292   -2.847533   -0.663100
    129          1           0       -7.059064   -3.287999    2.202539
    130          1           0       -6.818782   -1.614430    2.053650
    131          1           0       -5.836337   -2.862348    1.136265
    132          1           0       -9.684519   -5.297852   -0.863645
    133          1           0       -8.143509   -4.724374   -1.301170
    134          1           0       -9.767779   -2.758419   -2.495241
    135          1           0      -10.743499   -4.197737   -2.643885
    136          1           0       -4.917292    2.462234   -2.184664
    137          1           0       -5.294037    0.897682   -1.604866
    138          1           0       -5.001807    2.282812   -0.417571
    139          1           0       -7.976194    6.224597   -0.666293
    140          1           0       -8.839763    5.814295   -2.206879
    141          1           0       -7.319650    6.771382   -2.232846
    142          1           0      -12.583887    5.289637   -1.189475
    143          1           0      -14.244476    4.176959    0.851030
    144          1           0      -13.394467    6.399634    0.865499
    145          1           0      -11.685172    6.550980    0.632931
    146          1           0      -12.267651    5.340986    1.859063
    147          1           0      -14.629598    3.259078   -2.065045
    148          1           0      -14.515496    4.919129   -2.147676
    149          1           0      -16.782881    3.429909   -1.353347
    150          1           0      -16.745311    5.061780   -1.665096
    151          1           0      -16.319584    4.369541    0.039452
    152          1           0      -16.818719   -0.139039    0.552299
    153          1           0      -16.588614   -1.402118    1.726102
    154          1           0      -16.425444   -1.665006   -0.175607
    155          1           0      -12.199243   -4.457492   -0.402366
    156          1           0      -11.478115   -3.970579    4.706533
    157          1           0      -11.047461   -5.574873    4.107905
    158          1           0      -12.767190   -5.080101    4.585161
 ---------------------------------------------------------------------

 SCF Done:  E(RCAM-B3LYP) =  -4069.78149618     A.U. after   19 cycles

 Excitation energies and oscillator strengths:

 Excited State   1:      Singlet-A      1.6741 eV  740.61 nm  f=0.4556  <S**2>=0.000
     309 -> 315       -0.18621
     311 -> 313        0.67699
     309 <- 315       -0.10981
 This state for optimization and/or second-order correction.
 Total Energy, E(TD-HF/TD-DFT) =  -4069.71997521
 Copying the excited state density for this state as the 1-particle RhoCI density.

 Excited State   2:      Singlet-A      1.7192 eV  721.19 nm  f=0.3043  <S**2>=0.000
     310 -> 316       -0.18022
     312 -> 314        0.67707
     310 <- 316       -0.10401

 Excited State   3:      Singlet-A      2.1859 eV  567.20 nm  f=0.0963  <S**2>=0.000
     309 -> 313        0.63502
     311 -> 315        0.29733

 Excited State   4:      Singlet-A      2.2046 eV  562.38 nm  f=0.0918  <S**2>=0.000
     310 -> 314        0.62911
     312 -> 316        0.30491

 Excited State   5:      Singlet-A      2.8286 eV  438.32 nm  f=0.0000  <S**2>=0.000
     312 -> 313        0.70696

 The electronic state is 1-A.
 Alpha  occ. eigenvalues --  -46.89019 -46.88950 -19.24902 -19.24272 -19.20467
 Alpha  occ. eigenvalues --  -19.19392 -19.18923 -19.18743 -19.18366 -19.17388
 Alpha  occ. eigenvalues --  -14.42332 -14.42148 -14.42122 -14.41937 -14.40275
 Alpha  occ. eigenvalues --  -14.39554 -14.39176 -14.39100 -10.39661 -10.39117
 Alpha  occ. eigenvalues --  -10.35041 -10.35007 -10.34220 -10.33711 -10.31724
 Alpha  occ. eigenvalues --  -10.31627 -10.31580 -10.31576 -10.31546 -10.31232
 Alpha  occ. eigenvalues --  -10.31092 -10.31069 -10.31057 -10.30597 -10.30547
 Alpha  occ. eigenvalues --  -10.30480 -10.30106 -10.29989 -10.29872 -10.29265
 Alpha  occ. eigenvalues --  -10.29100 -10.28990 -10.28869 -10.28588 -10.28562
 Alpha  occ. eigenvalues --  -10.28553 -10.28442 -10.28378 -10.28351 -10.28328
 Alpha  occ. eigenvalues --  -10.28323 -10.28264 -10.28226 -10.28130 -10.28118
 Alpha  occ. eigenvalues --  -10.28062 -10.28005 -10.27975 -10.27824 -10.27602
 Alpha  occ. eigenvalues --  -10.27366 -10.27300 -10.27215 -10.27204 -10.27178
 Alpha  occ. eigenvalues --  -10.27148 -10.27099 -10.27053 -10.27013 -10.26904
 Alpha  occ. eigenvalues --  -10.26824 -10.26807 -10.26644 -10.26474 -10.26442
 Alpha  occ. eigenvalues --  -10.26221 -10.26145 -10.25960 -10.25936 -10.25809
 Alpha  occ. eigenvalues --  -10.25698 -10.25548 -10.25300 -10.25194 -10.24870
 Alpha  occ. eigenvalues --  -10.24729  -3.17544  -3.17439  -1.92429  -1.92342
 Alpha  occ. eigenvalues --   -1.92015  -1.91903  -1.91838  -1.91729  -1.15480
 Alpha  occ. eigenvalues --   -1.14747  -1.10285  -1.10067  -1.09850  -1.09271
 Alpha  occ. eigenvalues --   -1.06830  -1.06738  -1.04991  -1.04990  -1.03809
 Alpha  occ. eigenvalues --   -1.03630  -1.03096  -1.02994  -1.02254  -1.01578
 Alpha  occ. eigenvalues --   -0.92663  -0.92382  -0.90769  -0.89598  -0.89586
 Alpha  occ. eigenvalues --   -0.89135  -0.89057  -0.87900  -0.87715  -0.87578
 Alpha  occ. eigenvalues --   -0.87246  -0.86795  -0.86302  -0.86086  -0.85269
 Alpha  occ. eigenvalues --   -0.84751  -0.84551  -0.84379  -0.83467  -0.82633
 Alpha  occ. eigenvalues --   -0.82581  -0.82295  -0.81423  -0.80832  -0.80762
 Alpha  occ. eigenvalues --   -0.80069  -0.78677  -0.78249  -0.77984  -0.77407
 Alpha  occ. eigenvalues --   -0.77126  -0.76745  -0.76328  -0.76139  -0.75649
 Alpha  occ. eigenvalues --   -0.75389  -0.73415  -0.72558  -0.72052  -0.72042
 Alpha  occ. eigenvalues --   -0.69344  -0.69340  -0.69297  -0.69111  -0.68008
 Alpha  occ. eigenvalues --   -0.67998  -0.67521  -0.66740  -0.66474  -0.66338
 Alpha  occ. eigenvalues --   -0.65937  -0.65282  -0.64810  -0.64695  -0.64424
 Alpha  occ. eigenvalues --   -0.63915  -0.62468  -0.62055  -0.60748  -0.60194
 Alpha  occ. eigenvalues --   -0.59503  -0.59471  -0.59287  -0.58968  -0.58859
 Alpha  occ. eigenvalues --   -0.58201  -0.57924  -0.57443  -0.57426  -0.57169
 Alpha  occ. eigenvalues --   -0.56411  -0.56238  -0.55914  -0.55750  -0.55486
 Alpha  occ. eigenvalues --   -0.55261  -0.55151  -0.55021  -0.54522  -0.54451
 Alpha  occ. eigenvalues --   -0.54257  -0.53816  -0.53201  -0.52836  -0.52830
 Alpha  occ. eigenvalues --   -0.52622  -0.52565  -0.52552  -0.52299  -0.52103
 Alpha  occ. eigenvalues --   -0.52096  -0.51900  -0.51746  -0.51686  -0.51537
 Alpha  occ. eigenvalues --   -0.51292  -0.51239  -0.51032  -0.50769  -0.50421
 Alpha  occ. eigenvalues --   -0.50387  -0.50168  -0.50015  -0.49663  -0.49554
 Alpha  occ. eigenvalues --   -0.49472  -0.49393  -0.49180  -0.49128  -0.48858
 Alpha  occ. eigenvalues --   -0.48730  -0.48569  -0.48527  -0.48482  -0.48228
 Alpha  occ. eigenvalues --   -0.48084  -0.47645  -0.47626  -0.47160  -0.47139
 Alpha  occ. eigenvalues --   -0.47005  -0.46833  -0.46796  -0.46606  -0.46411
 Alpha  occ. eigenvalues --   -0.46320  -0.46215  -0.46173  -0.46115  -0.45745
 Alpha  occ. eigenvalues --   -0.45641  -0.45309  -0.45292  -0.45036  -0.44941
 Alpha  occ. eigenvalues --   -0.44916  -0.44889  -0.44609  -0.44602  -0.44565
 Alpha  occ. eigenvalues --   -0.44487  -0.44053  -0.43850  -0.43692  -0.43439
 Alpha  occ. eigenvalues --   -0.43341  -0.43237  -0.43131  -0.43069  -0.43024
 Alpha  occ. eigenvalues --   -0.42970  -0.42663  -0.42570  -0.42396  -0.42092
 Alpha  occ. eigenvalues --   -0.42045  -0.41873  -0.41669  -0.41622  -0.41611
 Alpha  occ. eigenvalues --   -0.41607  -0.41340  -0.41174  -0.41139  -0.40678
 Alpha  occ. eigenvalues --   -0.40371  -0.40270  -0.39922  -0.39213  -0.39013
 Alpha  occ. eigenvalues --   -0.38489  -0.38428  -0.37887  -0.37741  -0.37358
 Alpha  occ. eigenvalues --   -0.37337  -0.36978  -0.36817  -0.36478  -0.36397
 Alpha  occ. eigenvalues --   -0.36343  -0.35585  -0.35072  -0.34723  -0.34353
 Alpha  occ. eigenvalues --   -0.33735  -0.33234  -0.33037  -0.31389  -0.31182
 Alpha  occ. eigenvalues --   -0.31104  -0.30736  -0.30687  -0.29886  -0.29865
 Alpha  occ. eigenvalues --   -0.29663  -0.29572  -0.29446  -0.24315  -0.24011
 Alpha  occ. eigenvalues --   -0.21580  -0.21129
 Alpha virt. eigenvalues --   -0.09169  -0.08577  -0.02518  -0.02162   0.00242
 Alpha virt. eigenvalues --    0.00722   0.01800   0.02341   0.02614   0.02661
 Alpha virt. eigenvalues --    0.04077   0.04158   0.04985   0.05034   0.05449

 Mulliken charges:
               1
     1  Mg   0.815946
     2  C    0.061174
     3  C   -0.041716
     4  C   -0.115224
     5  C   -0.090434
     6  N   -0.274174
     7  C   -0.072810
     8  C    0.029112
     9  C   -0.105814
    10  C    0.020210
    11  C    0.061862
    12  C    0.063503
    13  C   -0.082895
    14  H    0.023151
    15  N   -0.454269
    16  C    0.183554
    17  C   -0.155266
    18  C   -0.020256
    19  C    0.249152
    20  C    0.147985
    21  C   -0.059493
    22  O   -0.208396
    23  C    0.069717
    24  N   -0.300493
    25  C    0.044337
    26  C   -0.028468
    27  C   -0.022866
    28  C    0.032434
    29  C    0.076717
    30  C    0.046856
    31  C    0.037660
    32  N   -0.321527
    33  C    0.100647
    34  C   -0.177579
    35  C    0.038574
    36  C    0.078051
    37  C    0.134634
    38  C    0.030923
    39  O   -0.149679
    40  C   -0.065423
    41  C    0.185980
    42  O   -0.240309
    43  O   -0.329465
    44  C    0.188695
    45  H   -0.024500
    46  H   -0.026467
    47  H   -0.025848
    48  H    0.025311
    49  H    0.016636
    50  H    0.017400
    51  H    0.029653
    52  H    0.010130
    53  H    0.027988
    54  H    0.028832
    55  H    0.041929
    56  H    0.032711
    57  H   -0.022405
    58  H    0.032723
    59  H    0.041424
    60  H    0.021133
    61  H    0.040081
    62  H    0.031056
    63  H    0.007569
    64  H    0.000976
    65  H    0.012584
    66  H    0.023798
    67  H    0.005919
    68  H    0.014863
    69  H   -0.004829
    70  H    0.004434
    71  H    0.009476
    72  H    0.010988
    73  H    0.014563
    74  H    0.043082
    75  H    0.028222
    76  H    0.023862
    77  H    0.039793
    78  H    0.030111
    79  H    0.032484
    80  Mg   0.819728
    81  C   -0.024953
    82  C   -0.097546
    83  C   -0.087094
    84  C   -0.094332
    85  N   -0.283870
    86  C   -0.030154
    87  C   -0.040773
    88  C    0.001881
    89  C    0.000856
    90  C    0.064160
    91  C    0.029225
    92  C   -0.076275
    93  H    0.023071
    94  N   -0.359686
    95  C    0.167024
    96  C   -0.136610
    97  C   -0.064326
    98  C    0.185044
    99  C    0.126906
   100  C    0.000347
   101  O   -0.204041
   102  C    0.054801
   103  N   -0.295333
   104  C   -0.001507
   105  C   -0.034024
   106  C   -0.063394
   107  C    0.012321
   108  C    0.107233
   109  C    0.036562
   110  C    0.030479
   111  N   -0.342641
   112  C    0.151387
   113  C   -0.189798
   114  C   -0.004931
   115  C    0.088648
   116  C    0.130667
   117  C    0.030154
   118  O   -0.149478
   119  C    0.028515
   120  C    0.222623
   121  O   -0.208462
   122  O   -0.379695
   123  C    0.180187
   124  H   -0.028789
   125  H   -0.042432
   126  H   -0.044217
   127  H    0.010418
   128  H    0.006533
   129  H    0.011058
   130  H    0.026993
   131  H    0.022701
   132  H    0.028464
   133  H    0.010480
   134  H    0.047666
   135  H    0.030447
   136  H    0.036319
   137  H    0.016666
   138  H    0.041841
   139  H    0.048664
   140  H    0.044808
   141  H    0.024181
   142  H    0.004572
   143  H    0.007961
   144  H    0.019615
   145  H    0.014428
   146  H    0.025124
   147  H    0.015639
   148  H    0.006914
   149  H    0.005765
   150  H    0.014735
   151  H    0.023330
   152  H   -0.003749
   153  H    0.043541
   154  H    0.053038
   155  H    0.038479
   156  H    0.019008
   157  H    0.058608
   158  H    0.038292
 Sum of Mulliken charges =  -0.00000

 Dipole moment (field-independent basis, Debye):
    X=              0.2251    Y=              6.6587    Z=              2.1725  Tot=              7.0078
 Quadrupole moment (field-independent basis, Debye-Ang):
   XX=           -547.3876   YY=           -488.8160   ZZ=           -503.1425
   XY=            -63.2455   XZ=            -18.3764   YZ=             20.3131

 Normal termination of Gaussian 16 at Wed Sep 15 14:58:15 2021.
