 Gaussian 16, Revision A.03,
 Gaussian 16:  ES64L-G16RevA.03 25-Dec-2016

 ----------------------------------------------------------
 #p cam-b3lyp/Def2SVP td=(nstates=5) density=(transition=1)
 ----------------------------------------------------------

 --------------------------------
 TDDFT excited states in gaussian
 --------------------------------
 Symbolic Z-matrix:
 Charge =  0 Multiplicity = 1

                         Standard orientation:
 ---------------------------------------------------------------------
 Center     Atomic      Atomic             Coordinates (Angstroms)
 Number     Number       Type             X           Y           Z
 ---------------------------------------------------------------------
      1         12           0      -16.016381   -0.693150   -0.031625
      2          6           0      -18.123904    2.007619    0.552794
      3          6           0      -13.778383    1.383098   -1.456429
      4          6           0      -14.367439   -3.370757   -1.276834
      5          6           0      -18.721657   -2.861186    0.699712
      6          7           0      -16.006715    1.420440   -0.280732
      7          6           0      -16.863115    2.412274    0.145143
      8          6           0      -16.328152    3.809589   -0.272968
      9          6           0      -15.271749    3.419447   -1.352307
     10          6           0      -14.907154    2.000377   -0.941626
     11          6           0      -15.800782    3.447077   -2.829452
     12          6           0      -15.931869    4.565070    1.008753
     13          6           0      -16.333522    5.990829    1.024180
     14          1           0      -16.392478    6.600692    2.351096
     15          7           0      -14.210604   -0.925375   -0.998808
     16          6           0      -13.409266    0.075691   -1.446261
     17          6           0      -12.116596   -0.480674   -1.757607
     18          6           0      -12.293205   -1.910193   -1.699122
     19          6           0      -13.709904   -2.124164   -1.389525
     20          6           0      -10.948083    0.334814   -2.181839
     21          6           0      -11.322717   -3.084037   -2.052353
     22          8           0      -11.637435   -4.270122   -1.935558
     23          6           0       -9.888702   -2.825566   -2.421624
     24          7           0      -16.653659   -2.774383   -0.556805
     25          6           0      -15.670521   -3.721684   -0.953097
     26          6           0      -16.156305   -5.132870   -0.916077
     27          6           0      -17.453546   -4.904958   -0.073961
     28          6           0      -17.595223   -3.394959    0.098564
     29          6           0      -16.382432   -5.772444   -2.327834
     30          6           0      -17.415013   -5.602224    1.334896
     31          6           0      -16.163676   -5.302440    2.198992
     32          7           0      -17.981507   -0.519059    0.615875
     33          6           0      -18.948718   -1.489224    0.920831
     34          6           0      -20.101709   -0.788675    1.347524
     35          6           0      -19.798117    0.562863    1.240703
     36          6           0      -18.523871    0.661872    0.787913
     37          6           0      -21.358879   -1.416422    1.859493
     38          6           0      -20.347544    1.831533    1.357777
     39          8           0      -21.495858    2.167624    1.700215
     40          6           0      -19.307657    2.912535    0.934824
     41          6           0      -19.135237    3.772544    2.225647
     42          8           0      -18.592843    3.392958    3.278746
     43          8           0      -19.696364    5.022464    1.987282
     44          6           0      -19.887314    5.948892    3.148240
     45          1           0      -13.182581    2.137627   -1.974419
     46          1           0      -13.938838   -4.352503   -1.492141
     47          1           0      -19.511205   -3.477346    1.135062
     48          1           0      -17.135553    4.417227   -0.680215
     49          1           0      -14.385719    4.040576   -1.224353
     50          1           0      -16.820168    3.808242   -2.968486
     51          1           0      -15.867721    2.436520   -3.230404
     52          1           0      -15.174873    4.123502   -3.411147
     53          1           0      -14.842991    4.587248    1.008098
     54          1           0      -16.344214    4.016368    1.855943
     55          1           0      -17.350633    6.012381    0.632522
     56          1           0      -15.701098    6.535270    0.323225
     57          1           0      -11.068673    1.380873   -1.900848
     58          1           0      -10.727493    0.095803   -3.222726
     59          1           0      -10.067714    0.016029   -1.623673
     60          1           0       -9.602936   -3.693771   -3.015910
     61          1           0       -9.256718   -2.805667   -1.533462
     62          1           0       -9.778830   -1.933342   -3.038819
     63          1           0      -15.506111   -5.809916   -0.360268
     64          1           0      -18.306952   -5.280526   -0.639459
     65          1           0      -16.494240   -4.974856   -3.062805
     66          1           0      -17.255268   -6.415574   -2.441369
     67          1           0      -15.577112   -6.407055   -2.698856
     68          1           0      -17.567503   -6.664453    1.143038
     69          1           0      -18.339603   -5.266728    1.804537
     70          1           0      -16.413763   -4.839327    3.153708
     71          1           0      -15.523067   -4.651069    1.603835
     72          1           0      -15.593639   -6.199578    2.438587
     73          1           0      -22.159155   -1.029058    1.228994
     74          1           0      -21.458143   -1.148261    2.911308
     75          1           0      -21.417171   -2.500095    1.756986
     76          1           0      -19.757345    3.529539    0.157340
     77          1           0      -20.549311    5.430221    3.841297
     78          1           0      -20.320332    6.929095    2.948983
     79          1           0      -18.843626    5.981023    3.461070
     80         12           0       16.491596   -0.551751    0.411960
     81          6           0       15.933745    2.622850   -1.237004
     82          6           0       18.172132    1.122725    2.604974
     83          6           0       17.115350   -3.561187    1.602242
     84          6           0       15.285405   -2.291303   -2.542478
     85          7           0       16.881325    1.694483    0.695390
     86          6           0       16.594943    2.814658   -0.056967
     87          6           0       17.176675    4.026004    0.577936
     88          6           0       18.275417    3.454297    1.510429
     89          6           0       17.795294    1.986179    1.594732
     90          6           0       19.705832    3.532759    0.933326
     91          6           0       16.091929    4.738827    1.441729
     92          6           0       16.018303    6.310294    1.320582
     93          1           0       14.706156    7.076299    1.755936
     94          7           0       17.526354   -1.123837    2.015702
     95          6           0       18.065367   -0.305894    2.880065
     96          6           0       18.583366   -1.091497    3.984233
     97          6           0       18.146291   -2.409183    3.711551
     98          6           0       17.590337   -2.398305    2.385636
     99          6           0       19.255312   -0.412968    5.191748
    100          6           0       18.301188   -3.603782    4.610966
    101          8           0       17.917236   -4.677740    4.255214
    102          6           0       18.845086   -3.413064    5.989256
    103          7           0       16.466055   -2.673202   -0.554225
    104          6           0       16.642861   -3.676406    0.303070
    105          6           0       16.169570   -4.969644   -0.246139
    106          6           0       15.760193   -4.538146   -1.689963
    107          6           0       15.831943   -3.034591   -1.646408
    108          6           0       17.131362   -6.207863   -0.146052
    109          6           0       14.340835   -5.111840   -2.074922
    110          6           0       14.234143   -6.295976   -3.075860
    111          7           0       15.784376   -0.062561   -1.434042
    112          6           0       15.257570   -0.814699   -2.507734
    113          6           0       14.779511    0.103362   -3.562095
    114          6           0       15.012439    1.386002   -3.084170
    115          6           0       15.642815    1.275793   -1.856334
    116          6           0       14.283236   -0.328326   -4.963324
    117          6           0       14.841055    2.826066   -3.460750
    118          8           0       14.339451    3.391508   -4.403528
    119          6           0       15.597716    3.697983   -2.338268
    120          6           0       14.832995    4.822780   -1.941476
    121          8           0       14.056564    4.783003   -0.976792
    122          8           0       14.960575    5.972336   -2.714938
    123          6           0       14.337020    7.242601   -2.232163
    124          1           0       18.724263    1.567979    3.434499
    125          1           0       17.263710   -4.556952    2.024974
    126          1           0       14.911251   -2.798404   -3.433160
    127          1           0       17.687180    4.629688   -0.172887
    128          1           0       18.358792    3.906870    2.498330
    129          1           0       20.345521    4.135329    1.578844
    130          1           0       19.624883    3.995077   -0.050009
    131          1           0       20.184268    2.566671    0.770031
    132          1           0       16.349177    4.485736    2.470420
    133          1           0       15.148465    4.254853    1.190067
    134          1           0       16.268423    6.572099    0.292834
    135          1           0       16.835763    6.626595    1.969604
    136          1           0       18.628376   -0.575163    6.069489
    137          1           0       19.491373    0.644206    5.075210
    138          1           0       20.161759   -0.951244    5.467239
    139          1           0       18.213054   -2.770496    6.601675
    140          1           0       19.793455   -2.882644    6.074273
    141          1           0       18.855424   -4.377900    6.496908
    142          1           0       15.262298   -5.242120    0.293056
    143          1           0       16.545221   -4.829551   -2.388092
    144          1           0       17.984331   -5.882331    0.448501
    145          1           0       17.417223   -6.696932   -1.077954
    146          1           0       16.606138   -7.007137    0.377099
    147          1           0       13.752127   -4.316512   -2.532875
    148          1           0       13.817542   -5.206465   -1.123451
    149          1           0       13.538945   -7.042712   -2.692561
    150          1           0       15.222984   -6.725982   -3.236116
    151          1           0       13.835559   -5.955928   -4.032437
    152          1           0       13.792121   -1.295126   -4.856468
    153          1           0       15.145162   -0.514417   -5.604491
    154          1           0       13.603387    0.402904   -5.401211
    155          1           0       16.541787    4.039035   -2.762119
    156          1           0       14.783016    7.565461   -1.290384
    157          1           0       13.250739    7.208520   -2.306279
    158          1           0       14.718695    8.035680   -2.875039
 ---------------------------------------------------------------------

 SCF Done:  E(RCAM-B3LYP) =  -4069.78683510     A.U. after   19 cycles

 Excitation energies and oscillator strengths:

 Excited State   1:      Singlet-A      1.6607 eV  746.58 nm  f=0.3800  <S**2>=0.000
     309 -> 315        0.16223
     312 -> 314        0.68885
     309 <- 315        0.10410
 This state for optimization and/or second-order correction.
 Total Energy, E(TD-HF/TD-DFT) =  -4069.72580554
 Copying the excited state density for this state as the 1-particle RhoCI density.

 Excited State   2:      Singlet-A      1.7383 eV  713.24 nm  f=0.3791  <S**2>=0.000
     310 -> 316        0.16385
     311 -> 313        0.68886
     310 <- 316        0.10276

 Excited State   3:      Singlet-A      2.1720 eV  570.82 nm  f=0.2226  <S**2>=0.000
     310 -> 313        0.67442
     311 -> 316       -0.20201

 Excited State   4:      Singlet-A      2.2190 eV  558.74 nm  f=0.1300  <S**2>=0.000
     309 -> 314        0.64338
     312 -> 315       -0.27229

 Excited State   5:      Singlet-A      2.9958 eV  413.87 nm  f=0.0000  <S**2>=0.000
     312 -> 313        0.70710

 The electronic state is 1-A.
 Alpha  occ. eigenvalues --  -46.89480 -46.88288 -19.24714 -19.24016 -19.19980
 Alpha  occ. eigenvalues --  -19.19684 -19.19295 -19.18698 -19.18574 -19.17622
 Alpha  occ. eigenvalues --  -14.41909 -14.41800 -14.41449 -14.40211 -14.39863
 Alpha  occ. eigenvalues --  -14.39812 -14.39313 -14.38472 -10.39999 -10.38562
 Alpha  occ. eigenvalues --  -10.35999 -10.35247 -10.35167 -10.33605 -10.31948
 Alpha  occ. eigenvalues --  -10.31666 -10.31179 -10.31063 -10.30922 -10.30637
 Alpha  occ. eigenvalues --  -10.30523 -10.30290 -10.30208 -10.30192 -10.30078
 Alpha  occ. eigenvalues --  -10.30064 -10.29878 -10.29412 -10.29354 -10.29275
 Alpha  occ. eigenvalues --  -10.29172 -10.28987 -10.28751 -10.28294 -10.28287
 Alpha  occ. eigenvalues --  -10.28272 -10.28226 -10.28211 -10.28181 -10.28144
 Alpha  occ. eigenvalues --  -10.28042 -10.27947 -10.27875 -10.27849 -10.27639
 Alpha  occ. eigenvalues --  -10.27523 -10.27421 -10.27303 -10.27201 -10.27179
 Alpha  occ. eigenvalues --  -10.27138 -10.26984 -10.26970 -10.26842 -10.26698
 Alpha  occ. eigenvalues --  -10.26562 -10.26496 -10.26390 -10.26365 -10.26348
 Alpha  occ. eigenvalues --  -10.26330 -10.26321 -10.26090 -10.25960 -10.25905
 Alpha  occ. eigenvalues --  -10.25900 -10.25801 -10.25770 -10.25744 -10.25714
 Alpha  occ. eigenvalues --  -10.25711 -10.25571 -10.25541 -10.25481 -10.25142
 Alpha  occ. eigenvalues --  -10.23750  -3.18004  -3.16884  -1.92890  -1.92466
 Alpha  occ. eigenvalues --   -1.92303  -1.91764  -1.91343  -1.91186  -1.14387
 Alpha  occ. eigenvalues --   -1.14229  -1.12204  -1.10892  -1.09437  -1.07915
 Alpha  occ. eigenvalues --   -1.06619  -1.06449  -1.05701  -1.04995  -1.04923
 Alpha  occ. eigenvalues --   -1.04777  -1.03869  -1.03485  -1.02194  -1.01025
 Alpha  occ. eigenvalues --   -0.92500  -0.91297  -0.89298  -0.89059  -0.89018
 Alpha  occ. eigenvalues --   -0.88909  -0.88556  -0.88030  -0.87835  -0.87766
 Alpha  occ. eigenvalues --   -0.87676  -0.87094  -0.86501  -0.85234  -0.84566
 Alpha  occ. eigenvalues --   -0.84384  -0.83475  -0.83095  -0.82178  -0.82135
 Alpha  occ. eigenvalues --   -0.82053  -0.81585  -0.80996  -0.80958  -0.80443
 Alpha  occ. eigenvalues --   -0.80359  -0.78807  -0.78172  -0.77166  -0.77041
 Alpha  occ. eigenvalues --   -0.76902  -0.76738  -0.76261  -0.76002  -0.75444
 Alpha  occ. eigenvalues --   -0.75438  -0.73218  -0.72815  -0.72017  -0.71140
 Alpha  occ. eigenvalues --   -0.69761  -0.69254  -0.68821  -0.68734  -0.67975
 Alpha  occ. eigenvalues --   -0.67502  -0.67379  -0.66497  -0.66149  -0.65661
 Alpha  occ. eigenvalues --   -0.65305  -0.65013  -0.64626  -0.64422  -0.64262
 Alpha  occ. eigenvalues --   -0.64036  -0.61533  -0.61476  -0.61084  -0.60144
 Alpha  occ. eigenvalues --   -0.59851  -0.59751  -0.59107  -0.59101  -0.58403
 Alpha  occ. eigenvalues --   -0.58092  -0.57609  -0.57533  -0.57220  -0.56969
 Alpha  occ. eigenvalues --   -0.56587  -0.55948  -0.55785  -0.55586  -0.55545
 Alpha  occ. eigenvalues --   -0.55296  -0.55047  -0.54734  -0.54049  -0.53912
 Alpha  occ. eigenvalues --   -0.53514  -0.53430  -0.53072  -0.53010  -0.52901
 Alpha  occ. eigenvalues --   -0.52775  -0.52678  -0.52472  -0.52429  -0.52023
 Alpha  occ. eigenvalues --   -0.51898  -0.51890  -0.51639  -0.51427  -0.51352
 Alpha  occ. eigenvalues --   -0.50585  -0.50455  -0.50313  -0.50277  -0.50123
 Alpha  occ. eigenvalues --   -0.49896  -0.49742  -0.49604  -0.49596  -0.49350
 Alpha  occ. eigenvalues --   -0.49311  -0.49163  -0.48879  -0.48873  -0.48778
 Alpha  occ. eigenvalues --   -0.48726  -0.48486  -0.48346  -0.48051  -0.47977
 Alpha  occ. eigenvalues --   -0.47944  -0.47816  -0.47650  -0.47594  -0.47477
 Alpha  occ. eigenvalues --   -0.47330  -0.47001  -0.46579  -0.46469  -0.46271
 Alpha  occ. eigenvalues --   -0.46264  -0.45959  -0.45823  -0.45670  -0.45569
 Alpha  occ. eigenvalues --   -0.45442  -0.45434  -0.44958  -0.44818  -0.44589
 Alpha  occ. eigenvalues --   -0.44576  -0.44502  -0.44457  -0.44150  -0.44059
 Alpha  occ. eigenvalues --   -0.43718  -0.43477  -0.43433  -0.43407  -0.43372
 Alpha  occ. eigenvalues --   -0.43157  -0.43030  -0.43020  -0.42786  -0.42700
 Alpha  occ. eigenvalues --   -0.42662  -0.42335  -0.42255  -0.41931  -0.41913
 Alpha  occ. eigenvalues --   -0.41705  -0.41558  -0.41338  -0.41080  -0.41033
 Alpha  occ. eigenvalues --   -0.40815  -0.40676  -0.40618  -0.40404  -0.40264
 Alpha  occ. eigenvalues --   -0.40233  -0.39932  -0.39922  -0.39891  -0.39127
 Alpha  occ. eigenvalues --   -0.38363  -0.38173  -0.38002  -0.37700  -0.37333
 Alpha  occ. eigenvalues --   -0.37077  -0.36798  -0.36566  -0.36559  -0.36099
 Alpha  occ. eigenvalues --   -0.36046  -0.35772  -0.34155  -0.34057  -0.33632
 Alpha  occ. eigenvalues --   -0.33194  -0.33096  -0.32645  -0.31881  -0.31564
 Alpha  occ. eigenvalues --   -0.31283  -0.31136  -0.30787  -0.30782  -0.30025
 Alpha  occ. eigenvalues --   -0.29718  -0.29690  -0.29366  -0.24208  -0.23572
 Alpha  occ. eigenvalues --   -0.21661  -0.21159
 Alpha virt. eigenvalues --   -0.09107  -0.08971  -0.01479  -0.00389   0.00567
 Alpha virt. eigenvalues --    0.00900   0.02227   0.02279   0.02457   0.02623
 Alpha virt. eigenvalues --    0.04491   0.04992   0.05102   0.05114   0.06152

 Mulliken charges:
               1
     1  Mg  12.002510
     2  C    5.968086
     3  C    6.010032
     4  C    6.038340
     5  C    6.011400
     6  N    6.977519
     7  C    6.036765
     8  C    5.997419
     9  C    6.006763
    10  C    5.975343
    11  C    6.004121
    12  C    5.992909
    13  C    6.000359
    14  H    0.998940
    15  N    7.010820
    16  C    5.957092
    17  C    5.979807
    18  C    5.986406
    19  C    5.954326
    20  C    6.005439
    21  C    5.987105
    22  O    7.970321
    23  C    6.005852
    24  N    7.018063
    25  C    5.953053
    26  C    6.017053
    27  C    5.992473
    28  C    6.017768
    29  C    5.999932
    30  C    5.991330
    31  C    5.993227
    32  N    6.995118
    33  C    6.034941
    34  C    6.031209
    35  C    6.001534
    36  C    6.033376
    37  C    5.994839
    38  C    6.013395
    39  O    8.031313
    40  C    6.005396
    41  C    6.002765
    42  O    8.003264
    43  O    8.001577
    44  C    5.999087
    45  H    0.984917
    46  H    0.996232
    47  H    1.017863
    48  H    0.998923
    49  H    0.998372
    50  H    0.982619
    51  H    1.000554
    52  H    0.996371
    53  H    1.013508
    54  H    0.993906
    55  H    0.996148
    56  H    1.006144
    57  H    0.983264
    58  H    0.978987
    59  H    0.980071
    60  H    0.985791
    61  H    0.988654
    62  H    0.996109
    63  H    0.998208
    64  H    1.003141
    65  H    1.000187
    66  H    0.989221
    67  H    1.003175
    68  H    1.010693
    69  H    0.992855
    70  H    0.996845
    71  H    1.015251
    72  H    1.007371
    73  H    1.019947
    74  H    1.021323
    75  H    1.018628
    76  H    1.008209
    77  H    0.998884
    78  H    1.004668
    79  H    1.004577
    80  Mg  12.000122
    81  C    5.999571
    82  C    6.000064
    83  C    6.000430
    84  C    5.999907
    85  N    6.999715
    86  C    6.000527
    87  C    5.999911
    88  C    6.000132
    89  C    5.999606
    90  C    6.000120
    91  C    5.999957
    92  C    5.999953
    93  H    1.000117
    94  N    7.000260
    95  C    5.999412
    96  C    5.999562
    97  C    5.999853
    98  C    5.999336
    99  C    6.000141
   100  C    5.999766
   101  O    7.999622
   102  C    6.000137
   103  N    7.000036
   104  C    5.999405
   105  C    6.000249
   106  C    5.999817
   107  C    6.000328
   108  C    6.000000
   109  C    5.999897
   110  C    5.999990
   111  N    7.000011
   112  C    6.000641
   113  C    6.000595
   114  C    6.000048
   115  C    6.000602
   116  C    5.999924
   117  C    6.000323
   118  O    8.000476
   119  C    6.000088
   120  C    6.000068
   121  O    8.000207
   122  O    7.999971
   123  C    5.999971
   124  H    0.999686
   125  H    0.999860
   126  H    1.000257
   127  H    0.999926
   128  H    0.999901
   129  H    0.999827
   130  H    0.999731
   131  H    0.999973
   132  H    1.000188
   133  H    1.000049
   134  H    0.999928
   135  H    0.999969
   136  H    0.999647
   137  H    0.999647
   138  H    0.999565
   139  H    0.999884
   140  H    0.999818
   141  H    0.999684
   142  H    1.000044
   143  H    0.999961
   144  H    0.999984
   145  H    0.999820
   146  H    0.999976
   147  H    1.000044
   148  H    1.000233
   149  H    1.000179
   150  H    0.999924
   151  H    1.000050
   152  H    1.000445
   153  H    1.000279
   154  H    1.000447
   155  H    1.000025
   156  H    1.000001
   157  H    1.000200
   158  H    0.999977
 Sum of Mulliken charges = 624.00000

 Dipole moment (field-independent basis, Debye):
    X=            -10.0957    Y=              0.3698    Z=              4.3167  Tot=             10.9860
 Quadrupole moment (field-independent basis, Debye-Ang):
   XX=            318.2220   YY=              1.3146   ZZ=             -2.3637
   XY=              3.0331   XZ=            -72.8329   YZ=             -2.3455

 Normal termination of Gaussian 16 at Wed Sep 22 11:02:05 2021.
