 Gaussian 16, Revision A.03,
 Gaussian 16:  ES64L-G16RevA.03 25-Dec-2016

 -----------------------------------
 #p cam-b3lyp/Def2SVP td=(nstates=5)
 -----------------------------------

 --------------------------------
 TDDFT excited states in gaussian
 --------------------------------
 Symbolic Z-matrix:
 Charge =  0 Multiplicity = 1

                         Standard orientation:
 ---------------------------------------------------------------------
 Center     Atomic      Atomic             Coordinates (Angstroms)
 Number     Number       Type             X           Y           Z
 ---------------------------------------------------------------------
      1         12           0        8.878274   -0.372892    0.008023
      2          6           0        7.291461    2.549854   -0.873563
      3          6           0       11.098787    1.532206    1.931174
      4          6           0       10.550613   -3.181901    0.848934
      5          6           0        6.931857   -2.110010   -2.162492
      6          7           0        9.300189    1.856048    0.248377
      7          6           0        8.338074    2.832770   -0.037301
      8          6           0        8.620472    4.156866    0.699741
      9          6           0        9.923945    3.774889    1.493278
     10          6           0       10.137837    2.291575    1.281112
     11          6           0       11.137431    4.598791    1.081474
     12          6           0        7.518843    4.775217    1.631470
     13          6           0        6.849707    6.176941    1.157013
     14          1           0        7.069445    7.277546    2.199550
     15          7           0       10.610152   -0.768764    1.109305
     16          6           0       11.298075    0.140628    1.928885
     17          6           0       12.244853   -0.547550    2.812629
     18          6           0       12.183808   -2.004443    2.468852
     19          6           0       11.037983   -2.079138    1.476911
     20          6           0       13.114198    0.175680    3.817487
     21          6           0       12.949109   -3.143327    2.955012
     22          8           0       12.783090   -4.259949    2.442306
     23          6           0       14.012584   -3.027887    4.032977
     24          7           0        8.787896   -2.268749   -0.639774
     25          6           0        9.492317   -3.340086   -0.059928
     26          6           0        9.045351   -4.776932   -0.548544
     27          6           0        7.867841   -4.343340   -1.565399
     28          6           0        7.853725   -2.803891   -1.429949
     29          6           0       10.210367   -5.637930   -1.246157
     30          6           0        6.500879   -5.011364   -1.188540
     31          6           0        5.607853   -5.459345   -2.302892
     32          7           0        7.451275    0.158412   -1.359360
     33          6           0        6.683105   -0.691935   -2.159831
     34          6           0        5.634199    0.023894   -2.802015
     35          6           0        5.782884    1.340924   -2.229024
     36          6           0        6.939803    1.343415   -1.439532
     37          6           0        4.562254   -0.424462   -3.704192
     38          6           0        5.289631    2.680299   -2.306936
     39          8           0        4.340435    3.231194   -2.875392
     40          6           0        6.369396    3.555057   -1.522153
     41          6           0        7.010606    4.494593   -2.479776
     42          8           0        8.041796    4.394689   -3.019007
     43          8           0        6.252795    5.657926   -2.592105
     44          6           0        6.994245    6.836570   -2.989837
     45          1           0       11.730697    2.123037    2.597601
     46          1           0       10.960100   -4.164830    1.090793
     47          1           0        6.208926   -2.685126   -2.744721
     48          1           0        8.888243    4.913024   -0.037460
     49          1           0        9.833854    4.009181    2.554345
     50          1           0       11.864515    3.938150    0.609999
     51          1           0       11.518403    4.954034    2.038190
     52          1           0       10.929809    5.480735    0.475898
     53          1           0        7.961319    4.922873    2.616933
     54          1           0        6.664966    4.105190    1.732739
     55          1           0        5.787647    5.931104    1.154713
     56          1           0        7.246479    6.479234    0.188099
     57          1           0       13.887919    0.689335    3.245518
     58          1           0       13.567689   -0.571135    4.467373
     59          1           0       12.594575    0.975241    4.345938
     60          1           0       14.612867   -3.933760    3.945937
     61          1           0       13.609169   -2.907727    5.038965
     62          1           0       14.794996   -2.283592    3.886125
     63          1           0        8.560853   -5.310049    0.268828
     64          1           0        8.016955   -4.652820   -2.600101
     65          1           0        9.779216   -6.178301   -2.089154
     66          1           0       10.629240   -6.457968   -0.664174
     67          1           0       11.047113   -5.027119   -1.585662
     68          1           0        5.893870   -4.420122   -0.503115
     69          1           0        6.630332   -5.958121   -0.664492
     70          1           0        4.744321   -4.797107   -2.242888
     71          1           0        5.091141   -6.417457   -2.246868
     72          1           0        6.119957   -5.336067   -3.257733
     73          1           0        4.352620   -1.473308   -3.492456
     74          1           0        5.004212   -0.344608   -4.697294
     75          1           0        3.747441    0.298605   -3.662770
     76          1           0        5.881956    4.134336   -0.738372
     77          1           0        7.142759    6.700724   -4.060552
     78          1           0        7.946879    6.773430   -2.464151
     79          1           0        6.424921    7.748890   -2.809662
     80         12           0       -8.455169   -1.031112    0.175029
     81          6           0      -10.592621    1.711260    0.762278
     82          6           0       -5.819316    1.166571   -0.009042
     83          6           0       -6.364511   -3.580118   -0.467033
     84          6           0      -11.222866   -3.138507   -0.201697
     85          7           0       -8.308230    1.126441    0.498536
     86          6           0       -9.204499    2.082316    0.726117
     87          6           0       -8.658829    3.517647    0.876575
     88          6           0       -7.183725    3.222424    0.316999
     89          6           0       -7.107787    1.718537    0.215948
     90          6           0       -6.890721    3.889707   -1.004824
     91          6           0       -8.653212    4.076001    2.405554
     92          6           0       -8.735558    5.603061    2.487739
     93          1           0       -9.988750    6.131453    3.232171
     94          7           0       -6.317974   -1.237179   -0.034414
     95          6           0       -5.414895   -0.149307   -0.127002
     96          6           0       -4.083465   -0.707669   -0.054492
     97          6           0       -4.206193   -2.090010   -0.162502
     98          6           0       -5.672395   -2.386558   -0.208397
     99          6           0       -2.814507    0.122065   -0.106718
    100          6           0       -3.171562   -3.191961   -0.164846
    101          8           0       -3.522014   -4.335620   -0.188395
    102          6           0       -1.706350   -2.907035   -0.062339
    103          7           0       -8.733316   -3.015699   -0.464603
    104          6           0       -7.707837   -3.906148   -0.595809
    105          6           0       -8.362718   -5.290334   -0.860228
    106          6           0       -9.743168   -5.230980   -0.231134
    107          6           0       -9.976962   -3.703673   -0.304938
    108          6           0       -8.502724   -5.503849   -2.366764
    109          6           0       -9.828009   -5.801686    1.136018
    110          6           0       -8.781417   -5.424146    2.154936
    111          7           0      -10.502316   -0.830683    0.283410
    112          6           0      -11.520324   -1.748189    0.103622
    113          6           0      -12.809941   -1.071973    0.312746
    114          6           0      -12.473631    0.263588    0.594261
    115          6           0      -11.108666    0.353312    0.565992
    116          6           0      -14.141506   -1.676851    0.190260
    117          6           0      -12.974679    1.536682    1.038197
    118          8           0      -14.151541    1.913264    1.314150
    119          6           0      -11.716174    2.515787    1.188427
    120          6           0      -11.945487    3.652600    0.226452
    121          8           0      -12.270885    3.484820   -0.911382
    122          8           0      -11.690378    4.952411    0.741561
    123          6           0      -11.601150    6.035608   -0.284376
    124          1           0       -4.977772    1.852277   -0.122640
    125          1           0       -5.731075   -4.414375   -0.776797
    126          1           0      -12.114292   -3.765830   -0.132327
    127          1           0       -9.276918    4.213439    0.307807
    128          1           0       -6.527971    3.621240    1.091955
    129          1           0       -6.344451    4.802463   -0.767536
    130          1           0       -7.783192    4.032973   -1.614349
    131          1           0       -6.138297    3.245298   -1.459346
    132          1           0       -7.733957    3.771544    2.906892
    133          1           0       -9.457146    3.619757    2.983516
    134          1           0       -8.689663    5.877895    1.433753
    135          1           0       -7.834044    6.040561    2.916228
    136          1           0       -3.139876    1.124065    0.170405
    137          1           0       -2.578024    0.131019   -1.170336
    138          1           0       -2.054901   -0.233583    0.589722
    139          1           0       -1.660215   -2.592954    0.980551
    140          1           0       -1.357043   -2.089644   -0.692598
    141          1           0       -1.129617   -3.812535   -0.253985
    142          1           0       -7.793194   -6.149325   -0.507129
    143          1           0      -10.521878   -5.776842   -0.762778
    144          1           0       -9.471657   -5.362681   -2.845770
    145          1           0       -8.171324   -6.519771   -2.581406
    146          1           0       -7.791826   -4.844200   -2.865649
    147          1           0       -9.897286   -6.889607    1.119036
    148          1           0      -10.787643   -5.442854    1.507632
    149          1           0       -9.300642   -4.817542    2.897474
    150          1           0       -7.873437   -4.870876    1.913180
    151          1           0       -8.471361   -6.332395    2.671461
    152          1           0      -14.322960   -1.884438   -0.864240
    153          1           0      -14.804105   -0.932429    0.631589
    154          1           0      -14.190384   -2.641488    0.697207
    155          1           0      -11.699952    2.776450    2.246837
    156          1           0      -12.598311    6.326363   -0.614732
    157          1           0      -11.009760    5.753677   -1.156702
    158          1           0      -11.200010    6.988034    0.060954
 ---------------------------------------------------------------------

 SCF Done:  E(RCAM-B3LYP) =  -4069.79299867     A.U. after   18 cycles

 Excitation energies and oscillator strengths:

 Excited State   1:      Singlet-A      1.6691 eV  742.81 nm  f=0.6215  <S**2>=0.000
     309 -> 315       -0.14512
     311 -> 313        0.64024
     312 -> 314        0.25419
 This state for optimization and/or second-order correction.
 Total Energy, E(TD-HF/TD-DFT) =  -4069.73165934
 Copying the excited state density for this state as the 1-particle RhoCI density.

 Excited State   2:      Singlet-A      1.7007 eV  729.04 nm  f=0.1870  <S**2>=0.000
     310 -> 316       -0.16262
     311 -> 313       -0.25340
     312 -> 314        0.63902

 Excited State   3:      Singlet-A      2.1848 eV  567.49 nm  f=0.0598  <S**2>=0.000
     309 -> 313       -0.15623
     310 -> 314        0.62825
     312 -> 316        0.26194

 Excited State   4:      Singlet-A      2.1922 eV  565.58 nm  f=0.1766  <S**2>=0.000
     309 -> 313        0.62648
     310 -> 314        0.15526
     311 -> 315        0.24995

 Excited State   5:      Singlet-A      2.6699 eV  464.38 nm  f=0.0000  <S**2>=0.000
     312 -> 313        0.70686

 The electronic state is 1-A.
 Alpha  occ. eigenvalues --  -46.88519 -46.88204 -19.24393 -19.22462 -19.19938
 Alpha  occ. eigenvalues --  -19.19871 -19.19101 -19.19012 -19.18275 -19.18142
 Alpha  occ. eigenvalues --  -14.43306 -14.42829 -14.42270 -14.41239 -14.40543
 Alpha  occ. eigenvalues --  -14.39600 -14.38954 -14.38869 -10.39293 -10.38397
 Alpha  occ. eigenvalues --  -10.35573 -10.35117 -10.34642 -10.34526 -10.32110
 Alpha  occ. eigenvalues --  -10.31739 -10.31575 -10.31573 -10.31331 -10.31322
 Alpha  occ. eigenvalues --  -10.31183 -10.31033 -10.31007 -10.30896 -10.30853
 Alpha  occ. eigenvalues --  -10.30747 -10.30537 -10.30497 -10.30422 -10.29836
 Alpha  occ. eigenvalues --  -10.29558 -10.29479 -10.29320 -10.29282 -10.28832
 Alpha  occ. eigenvalues --  -10.28733 -10.28694 -10.28535 -10.28492 -10.28280
 Alpha  occ. eigenvalues --  -10.28260 -10.28209 -10.28101 -10.28078 -10.28038
 Alpha  occ. eigenvalues --  -10.28037 -10.27995 -10.27987 -10.27882 -10.27771
 Alpha  occ. eigenvalues --  -10.27583 -10.27470 -10.27420 -10.27113 -10.27048
 Alpha  occ. eigenvalues --  -10.27019 -10.26817 -10.26757 -10.26697 -10.26669
 Alpha  occ. eigenvalues --  -10.26621 -10.26553 -10.26532 -10.26428 -10.26330
 Alpha  occ. eigenvalues --  -10.26237 -10.26130 -10.26092 -10.25557 -10.25522
 Alpha  occ. eigenvalues --  -10.25340 -10.25036 -10.25030 -10.24779 -10.24415
 Alpha  occ. eigenvalues --  -10.24322  -3.17014  -3.16966  -1.91937  -1.91835
 Alpha  occ. eigenvalues --   -1.91446  -1.91431  -1.91331  -1.91284  -1.17064
 Alpha  occ. eigenvalues --   -1.15508  -1.12050  -1.09803  -1.08443  -1.08011
 Alpha  occ. eigenvalues --   -1.07276  -1.06555  -1.05185  -1.04916  -1.03704
 Alpha  occ. eigenvalues --   -1.03434  -1.02832  -1.02343  -1.01674  -1.00904
 Alpha  occ. eigenvalues --   -0.92881  -0.92847  -0.89939  -0.89452  -0.89333
 Alpha  occ. eigenvalues --   -0.88883  -0.88769  -0.88717  -0.87731  -0.87639
 Alpha  occ. eigenvalues --   -0.87480  -0.86947  -0.86839  -0.86121  -0.84595
 Alpha  occ. eigenvalues --   -0.84499  -0.83722  -0.83498  -0.82674  -0.82544
 Alpha  occ. eigenvalues --   -0.82370  -0.82141  -0.81153  -0.81016  -0.80506
 Alpha  occ. eigenvalues --   -0.79817  -0.79044  -0.78773  -0.77669  -0.77247
 Alpha  occ. eigenvalues --   -0.77008  -0.76967  -0.76162  -0.75540  -0.75501
 Alpha  occ. eigenvalues --   -0.74890  -0.73353  -0.72352  -0.71958  -0.71231
 Alpha  occ. eigenvalues --   -0.69629  -0.69597  -0.68945  -0.68746  -0.68241
 Alpha  occ. eigenvalues --   -0.67821  -0.67735  -0.67020  -0.65928  -0.65714
 Alpha  occ. eigenvalues --   -0.65588  -0.65271  -0.64831  -0.64165  -0.64101
 Alpha  occ. eigenvalues --   -0.63330  -0.61669  -0.61141  -0.60448  -0.60281
 Alpha  occ. eigenvalues --   -0.59822  -0.59686  -0.59282  -0.59041  -0.58886
 Alpha  occ. eigenvalues --   -0.58735  -0.58590  -0.58509  -0.57977  -0.57495
 Alpha  occ. eigenvalues --   -0.56780  -0.56283  -0.55855  -0.55658  -0.55555
 Alpha  occ. eigenvalues --   -0.54676  -0.54468  -0.54194  -0.53980  -0.53909
 Alpha  occ. eigenvalues --   -0.53871  -0.53602  -0.53530  -0.53511  -0.53265
 Alpha  occ. eigenvalues --   -0.52960  -0.52941  -0.52518  -0.52418  -0.52350
 Alpha  occ. eigenvalues --   -0.51873  -0.51788  -0.51635  -0.51510  -0.51462
 Alpha  occ. eigenvalues --   -0.51405  -0.51040  -0.50828  -0.50735  -0.50630
 Alpha  occ. eigenvalues --   -0.50379  -0.50289  -0.50119  -0.50080  -0.49938
 Alpha  occ. eigenvalues --   -0.49885  -0.49576  -0.49474  -0.49222  -0.49104
 Alpha  occ. eigenvalues --   -0.48964  -0.48861  -0.48835  -0.48353  -0.48276
 Alpha  occ. eigenvalues --   -0.48197  -0.48121  -0.47631  -0.47525  -0.47525
 Alpha  occ. eigenvalues --   -0.47214  -0.47134  -0.47082  -0.46766  -0.46589
 Alpha  occ. eigenvalues --   -0.46435  -0.46275  -0.46261  -0.45781  -0.45680
 Alpha  occ. eigenvalues --   -0.45552  -0.45454  -0.45301  -0.45270  -0.45118
 Alpha  occ. eigenvalues --   -0.44901  -0.44856  -0.44446  -0.44213  -0.44066
 Alpha  occ. eigenvalues --   -0.43929  -0.43763  -0.43643  -0.43615  -0.43405
 Alpha  occ. eigenvalues --   -0.43315  -0.43197  -0.43080  -0.43016  -0.42761
 Alpha  occ. eigenvalues --   -0.42731  -0.42430  -0.42360  -0.42253  -0.41926
 Alpha  occ. eigenvalues --   -0.41728  -0.41679  -0.41470  -0.41430  -0.41303
 Alpha  occ. eigenvalues --   -0.40944  -0.40927  -0.40834  -0.40376  -0.40277
 Alpha  occ. eigenvalues --   -0.40191  -0.40167  -0.39666  -0.39410  -0.39334
 Alpha  occ. eigenvalues --   -0.38993  -0.38250  -0.38110  -0.37966  -0.37618
 Alpha  occ. eigenvalues --   -0.37345  -0.37182  -0.37029  -0.36377  -0.36324
 Alpha  occ. eigenvalues --   -0.36094  -0.35209  -0.34734  -0.34580  -0.34422
 Alpha  occ. eigenvalues --   -0.34372  -0.33464  -0.33105  -0.31788  -0.31705
 Alpha  occ. eigenvalues --   -0.31608  -0.31293  -0.30328  -0.30218  -0.30070
 Alpha  occ. eigenvalues --   -0.29909  -0.29581  -0.29231  -0.24658  -0.24043
 Alpha  occ. eigenvalues --   -0.21745  -0.21285
 Alpha virt. eigenvalues --   -0.09560  -0.08854  -0.02439  -0.01633  -0.00514
 Alpha virt. eigenvalues --    0.00534   0.01642   0.02117   0.02268   0.03350
 Alpha virt. eigenvalues --    0.04759   0.04831   0.05072   0.05407   0.05721

 Mulliken charges:
               1
     1  Mg   0.825792
     2  C    0.027751
     3  C   -0.094112
     4  C   -0.058115
     5  C   -0.101883
     6  N   -0.299881
     7  C   -0.077963
     8  C    0.037549
     9  C   -0.089816
    10  C    0.070876
    11  C    0.065503
    12  C    0.032815
    13  C   -0.092685
    14  H    0.020028
    15  N   -0.403953
    16  C    0.188637
    17  C   -0.165856
    18  C    0.012384
    19  C    0.173438
    20  C    0.129692
    21  C   -0.020744
    22  O   -0.221823
    23  C    0.027732
    24  N   -0.333231
    25  C    0.018565
    26  C    0.006249
    27  C   -0.041392
    28  C    0.114379
    29  C    0.046852
    30  C    0.002697
    31  C   -0.000656
    32  N   -0.324701
    33  C    0.108809
    34  C   -0.170485
    35  C    0.000228
    36  C    0.102162
    37  C    0.151034
    38  C    0.019491
    39  O   -0.183432
    40  C   -0.047317
    41  C    0.190184
    42  O   -0.156056
    43  O   -0.359695
    44  C    0.189045
    45  H   -0.036150
    46  H   -0.001154
    47  H   -0.045809
    48  H    0.009435
    49  H    0.007061
    50  H    0.028993
    51  H    0.006048
    52  H    0.024291
    53  H    0.019701
    54  H    0.015555
    55  H    0.051456
    56  H    0.039276
    57  H    0.034782
    58  H    0.013403
    59  H    0.031600
    60  H    0.025221
    61  H    0.050959
    62  H    0.032645
    63  H    0.025323
    64  H    0.016293
    65  H    0.012783
    66  H    0.024615
    67  H    0.036044
    68  H    0.007884
    69  H    0.006064
    70  H    0.004450
    71  H    0.015909
    72  H    0.015675
    73  H    0.020155
    74  H    0.031045
    75  H    0.040844
    76  H    0.022957
    77  H    0.031856
    78  H    0.021871
    79  H    0.040822
    80  Mg   0.813626
    81  C   -0.040270
    82  C   -0.100355
    83  C   -0.056503
    84  C   -0.065377
    85  N   -0.248719
    86  C   -0.044895
    87  C   -0.042127
    88  C   -0.088488
    89  C    0.097173
    90  C    0.104340
    91  C    0.047608
    92  C   -0.047277
    93  H    0.044497
    94  N   -0.365931
    95  C    0.130313
    96  C   -0.165707
    97  C   -0.010243
    98  C    0.116158
    99  C    0.118890
   100  C   -0.027574
   101  O   -0.178676
   102  C    0.053211
   103  N   -0.336454
   104  C    0.059357
   105  C   -0.035990
   106  C    0.001149
   107  C    0.092545
   108  C    0.079033
   109  C    0.053879
   110  C   -0.013821
   111  N   -0.352897
   112  C    0.068041
   113  C   -0.192373
   114  C    0.046558
   115  C    0.100550
   116  C    0.125900
   117  C    0.022877
   118  O   -0.217562
   119  C    0.037728
   120  C    0.193572
   121  O   -0.181783
   122  O   -0.372768
   123  C    0.178897
   124  H   -0.014191
   125  H   -0.007201
   126  H   -0.027129
   127  H    0.020271
   128  H    0.010483
   129  H    0.009400
   130  H    0.034821
   131  H    0.002687
   132  H    0.003044
   133  H    0.018722
   134  H    0.008548
   135  H    0.021022
   136  H    0.009299
   137  H    0.054620
   138  H    0.036811
   139  H    0.037697
   140  H    0.032784
   141  H    0.033287
   142  H   -0.003679
   143  H   -0.010157
   144  H    0.023947
   145  H    0.009293
   146  H    0.009562
   147  H    0.006124
   148  H   -0.008951
   149  H    0.007985
   150  H    0.038148
   151  H    0.005894
   152  H    0.030528
   153  H    0.042095
   154  H    0.013279
   155  H    0.046602
   156  H    0.037511
   157  H    0.033315
   158  H    0.033414
 Sum of Mulliken charges =  -0.00000

 Dipole moment (field-independent basis, Debye):
    X=              9.6260    Y=             -0.4514    Z=              5.0812  Tot=             10.8941
 Quadrupole moment (field-independent basis, Debye-Ang):
   XX=           -613.7942   YY=           -480.0419   ZZ=           -512.1508
   XY=             42.2678   XZ=             48.8823   YZ=             21.9514

 Normal termination of Gaussian 16 at Thu Sep 16 07:55:27 2021.
