 Gaussian 16, Revision A.03,
 Gaussian 16:  ES64L-G16RevA.03 25-Dec-2016

 -----------------------------------
 #p cam-b3lyp/Def2SVP td=(nstates=5)
 -----------------------------------

 --------------------------------
 TDDFT excited states in gaussian
 --------------------------------
 Symbolic Z-matrix:
 Charge =  0 Multiplicity = 1

                         Standard orientation:
 ---------------------------------------------------------------------
 Center     Atomic      Atomic             Coordinates (Angstroms)
 Number     Number       Type             X           Y           Z
 ---------------------------------------------------------------------
      1         12           0       -0.735630   -0.041839   -0.238721
      2          6           0        2.726129    0.059198    0.155699
      3          6           0       -0.667150   -3.430677    0.390300
      4          6           0       -3.998896    0.111192   -0.548524
      5          6           0       -0.773542    3.577891    0.183962
      6          7           0        0.961181   -1.541217    0.172767
      7          6           0        2.293715   -1.276338    0.320472
      8          6           0        3.062229   -2.528320    0.554281
      9          6           0        1.952111   -3.647460    0.672205
     10          6           0        0.615153   -2.856379    0.391928
     11          6           0        2.218102   -4.916212   -0.176538
     12          6           0        3.951989   -2.466195    1.819548
     13          6           0        5.389921   -2.863580    1.490469
     14          1           0        6.041987   -3.984665    2.354750
     15          7           0       -2.143005   -1.482493   -0.128046
     16          6           0       -1.943763   -2.844083    0.095339
     17          6           0       -3.261419   -3.454044   -0.027810
     18          6           0       -4.270239   -2.429788   -0.342939
     19          6           0       -3.475401   -1.163998   -0.428277
     20          6           0       -3.516092   -4.838332    0.304951
     21          6           0       -5.713027   -2.723616   -0.359471
     22          8           0       -6.187142   -3.827117   -0.187919
     23          6           0       -6.770530   -1.683693   -0.490292
     24          7           0       -2.108663    1.561186   -0.143561
     25          6           0       -3.389663    1.362010   -0.592367
     26          6           0       -4.158662    2.666128   -0.569218
     27          6           0       -3.251294    3.611823    0.124731
     28          6           0       -1.992420    2.897156    0.132793
     29          6           0       -4.725735    3.137114   -1.970795
     30          6           0       -3.639688    3.852685    1.623912
     31          6           0       -3.301436    5.155097    2.187033
     32          7           0        0.665751    1.555869    0.074365
     33          6           0        0.525482    2.947428    0.156758
     34          6           0        1.815798    3.552760    0.049384
     35          6           0        2.710577    2.489961    0.088850
     36          6           0        1.955460    1.264495    0.145269
     37          6           0        2.040928    5.018325   -0.015672
     38          6           0        4.077677    2.152664    0.132028
     39          8           0        5.057092    2.864450    0.120280
     40          6           0        4.150476    0.609435    0.119700
     41          6           0        4.958702    0.176038   -1.031124
     42          8           0        4.535944   -0.006126   -2.185287
     43          8           0        6.288366    0.154979   -0.677536
     44          6           0        7.288086   -0.337009   -1.611494
     45          1           0       -0.562763   -4.507468    0.535133
     46          1           0       -5.071438    0.313571   -0.603821
     47          1           0       -0.831835    4.664060    0.280594
     48          1           0        3.503288   -2.754727   -0.416853
     49          1           0        1.861960   -4.067536    1.673487
     50          1           0        3.287263   -4.839368   -0.377926
     51          1           0        1.592273   -5.054773   -1.058213
     52          1           0        2.054266   -5.807196    0.429111
     53          1           0        3.679744   -3.187376    2.589965
     54          1           0        3.876283   -1.445245    2.193315
     55          1           0        5.895915   -1.945699    1.789378
     56          1           0        5.441973   -3.024583    0.414692
     57          1           0       -2.565286   -5.300464    0.571334
     58          1           0       -3.883124   -5.465801   -0.507804
     59          1           0       -4.168406   -4.885091    1.177669
     60          1           0       -6.361314   -1.128736   -1.334507
     61          1           0       -6.776643   -1.077581    0.416012
     62          1           0       -7.736237   -2.128926   -0.730598
     63          1           0       -5.035327    2.420646    0.029067
     64          1           0       -3.009991    4.548768   -0.377378
     65          1           0       -4.625843    2.341968   -2.709858
     66          1           0       -4.363821    4.108056   -2.310812
     67          1           0       -5.811743    3.224820   -1.985871
     68          1           0       -3.202199    3.064828    2.237212
     69          1           0       -4.715805    3.750105    1.762848
     70          1           0       -4.116041    5.848154    1.974026
     71          1           0       -2.343977    5.528180    1.821968
     72          1           0       -3.376590    5.114578    3.274164
     73          1           0        1.276358    5.508013   -0.618629
     74          1           0        3.034768    5.298607   -0.365073
     75          1           0        1.842795    5.351174    1.003222
     76          1           0        4.740968    0.206278    0.942538
     77          1           0        7.549855    0.271327   -2.477295
     78          1           0        7.016280   -1.340185   -1.939289
     79          1           0        8.207580   -0.348620   -1.027439
 ---------------------------------------------------------------------

 SCF Done:  E(RCAM-B3LYP) =  -2034.87667325     A.U. after   19 cycles

 Excitation energies and oscillator strengths:

 Excited State   1:      Singlet-A      1.6751 eV  740.15 nm  f=0.3679  <S**2>=0.000
     155 ->158        -0.18836
     156 ->157         0.68338
     155 <-158        -0.11093
 This state for optimization and/or second-order correction.
 Total Energy, E(TD-HF/TD-DFT) =  -2034.81511379
 Copying the excited state density for this state as the 1-particle RhoCI density.

 Excited State   2:      Singlet-A      2.1859 eV  567.20 nm  f=0.1024  <S**2>=0.000
     155 ->157         0.63547
     156 ->158         0.29777

 Excited State   3:      Singlet-A      3.2402 eV  382.64 nm  f=0.0027  <S**2>=0.000
     152 ->157        -0.20892
     154 ->157         0.64967

 Excited State   4:      Singlet-A      3.3065 eV  374.98 nm  f=0.0026  <S**2>=0.000
     152 ->157        -0.12562
     153 ->157         0.55324
     153 ->158         0.15745
     153 ->159        -0.25547
     153 ->160        -0.20275

 Excited State   5:      Singlet-A      3.3339 eV  371.89 nm  f=0.0467  <S**2>=0.000
     151 ->157        -0.18127
     151 ->159        -0.10071
     152 ->157         0.51378
     153 ->157         0.16195
     154 ->157         0.18557
     156 ->158        -0.31173

 The electronic state is 1-A.
 Alpha  occ. eigenvalues --  -46.88956 -19.24884 -19.19379 -19.18370 -19.17394
 Alpha  occ. eigenvalues --  -14.42340 -14.41944 -14.40281 -14.39182 -10.39105
 Alpha  occ. eigenvalues --  -10.34224 -10.33717 -10.31693 -10.31634 -10.31586
 Alpha  occ. eigenvalues --  -10.31583 -10.31076 -10.31064 -10.30487 -10.29879
 Alpha  occ. eigenvalues --  -10.29106 -10.29000 -10.28568 -10.28560 -10.28386
 Alpha  occ. eigenvalues --  -10.28331 -10.28231 -10.28138 -10.27982 -10.27825
 Alpha  occ. eigenvalues --  -10.27374 -10.27308 -10.27222 -10.27189 -10.27154
 Alpha  occ. eigenvalues --  -10.26808 -10.26481 -10.26454 -10.26236 -10.25564
 Alpha  occ. eigenvalues --  -10.25199 -10.24878 -10.24736  -3.17446  -1.92349
 Alpha  occ. eigenvalues --   -1.91910  -1.91736  -1.15464  -1.10070  -1.09856
 Alpha  occ. eigenvalues --   -1.06723  -1.04998  -1.03815  -1.03001  -1.01585
 Alpha  occ. eigenvalues --   -0.92666  -0.90778  -0.89606  -0.89064  -0.87722
 Alpha  occ. eigenvalues --   -0.87255  -0.86309  -0.85277  -0.84556  -0.83470
 Alpha  occ. eigenvalues --   -0.82585  -0.81423  -0.80837  -0.78683  -0.77990
 Alpha  occ. eigenvalues --   -0.77133  -0.76320  -0.75396  -0.73423  -0.72047
 Alpha  occ. eigenvalues --   -0.69350  -0.69121  -0.68006  -0.67529  -0.66480
 Alpha  occ. eigenvalues --   -0.65944  -0.65288  -0.64696  -0.62046  -0.60752
 Alpha  occ. eigenvalues --   -0.59510  -0.59477  -0.58974  -0.57929  -0.57425
 Alpha  occ. eigenvalues --   -0.56418  -0.55911  -0.55494  -0.55157  -0.54446
 Alpha  occ. eigenvalues --   -0.54256  -0.53206  -0.52844  -0.52562  -0.52304
 Alpha  occ. eigenvalues --   -0.52108  -0.51755  -0.51694  -0.51297  -0.51243
 Alpha  occ. eigenvalues --   -0.50427  -0.50020  -0.49670  -0.49399  -0.49132
 Alpha  occ. eigenvalues --   -0.48863  -0.48574  -0.48521  -0.47633  -0.47146
 Alpha  occ. eigenvalues --   -0.47012  -0.46803  -0.46613  -0.46327  -0.46221
 Alpha  occ. eigenvalues --   -0.45751  -0.45319  -0.44946  -0.44599  -0.44491
 Alpha  occ. eigenvalues --   -0.44060  -0.43696  -0.43441  -0.43243  -0.43075
 Alpha  occ. eigenvalues --   -0.42979  -0.42577  -0.42097  -0.41676  -0.41597
 Alpha  occ. eigenvalues --   -0.41346  -0.41182  -0.40685  -0.40276  -0.39224
 Alpha  occ. eigenvalues --   -0.38498  -0.37749  -0.37345  -0.36985  -0.36397
 Alpha  occ. eigenvalues --   -0.36333  -0.34360  -0.33726  -0.33041  -0.31396
 Alpha  occ. eigenvalues --   -0.30691  -0.29893  -0.29669  -0.29453  -0.24322
 Alpha  occ. eigenvalues --   -0.21587
 Alpha virt. eigenvalues --   -0.09176  -0.02525   0.00237   0.02336   0.02661
 Alpha virt. eigenvalues --    0.04072   0.04981   0.05446   0.06462   0.07621
 Alpha virt. eigenvalues --    0.08121   0.09095   0.09405   0.09539   0.10503

 Mulliken charges:
               1
     1  Mg   0.815988
     2  C    0.061265
     3  C   -0.041717
     4  C   -0.115226
     5  C   -0.090472
     6  N   -0.274134
     7  C   -0.072861
     8  C    0.029138
     9  C   -0.105842
    10  C    0.020200
    11  C    0.061879
    12  C    0.063526
    13  C   -0.082815
    14  H    0.022987
    15  N   -0.454291
    16  C    0.183555
    17  C   -0.155252
    18  C   -0.020246
    19  C    0.249197
    20  C    0.147981
    21  C   -0.059486
    22  O   -0.208394
    23  C    0.069712
    24  N   -0.300524
    25  C    0.044354
    26  C   -0.028485
    27  C   -0.022868
    28  C    0.032464
    29  C    0.076704
    30  C    0.046878
    31  C    0.037671
    32  N   -0.321483
    33  C    0.100602
    34  C   -0.177554
    35  C    0.038593
    36  C    0.077966
    37  C    0.134573
    38  C    0.030847
    39  O   -0.149633
    40  C   -0.065444
    41  C    0.186051
    42  O   -0.240187
    43  O   -0.329526
    44  C    0.188545
    45  H   -0.024512
    46  H   -0.026446
    47  H   -0.025925
    48  H    0.025420
    49  H    0.016566
    50  H    0.017421
    51  H    0.029705
    52  H    0.010080
    53  H    0.027897
    54  H    0.028720
    55  H    0.041904
    56  H    0.032853
    57  H   -0.022423
    58  H    0.032756
    59  H    0.041399
    60  H    0.021177
    61  H    0.040053
    62  H    0.031082
    63  H    0.007558
    64  H    0.001028
    65  H    0.012647
    66  H    0.023868
    67  H    0.005944
    68  H    0.014795
    69  H   -0.004808
    70  H    0.004489
    71  H    0.009392
    72  H    0.010871
    73  H    0.014708
    74  H    0.043134
    75  H    0.027829
    76  H    0.023726
    77  H    0.040287
    78  H    0.029974
    79  H    0.032594
 Sum of Mulliken charges =  -0.00000

 Dipole moment (field-independent basis, Debye):
    X=             -1.2903    Y=              1.0211    Z=              1.0678  Tot=              1.9616
 Quadrupole moment (field-independent basis, Debye-Ang):
   XX=           -266.2581   YY=           -248.3630   ZZ=           -258.4599
   XY=            -48.6848   XZ=              1.5288   YZ=             -2.2262

 Normal termination of Gaussian 16 at Wed Sep 15 15:10:49 2021.
