 Gaussian 16, Revision A.03,
 Gaussian 16:  ES64L-G16RevA.03 25-Dec-2016

 -----------------------------------
 #p cam-b3lyp/Def2SVP td=(nstates=5)
 -----------------------------------

 --------------------------------
 TDDFT excited states in gaussian
 --------------------------------
 Symbolic Z-matrix:
 Charge =  0 Multiplicity = 1

                         Standard orientation:
 ---------------------------------------------------------------------
 Center     Atomic      Atomic             Coordinates (Angstroms)
 Number     Number       Type             X           Y           Z
 ---------------------------------------------------------------------
      1         12           0      -27.990313   -0.073656   -0.314827
      2          6           0      -24.765402    0.807928    0.577524
      3          6           0      -27.415072   -3.272552    0.868356
      4          6           0      -31.314102   -0.633287   -0.499426
      5          6           0      -28.468879    3.320778   -1.143343
      6          7           0      -26.357899   -1.030982    0.883937
      7          6           0      -25.127144   -0.512683    0.921707
      8          6           0      -24.167816   -1.469642    1.694756
      9          6           0      -24.936777   -2.865156    1.534491
     10          6           0      -26.336820   -2.394183    0.983389
     11          6           0      -24.151500   -3.892060    0.683423
     12          6           0      -24.092867   -1.076926    3.152690
     13          6           0      -22.711157   -1.157231    3.782799
     14          1           0      -22.476074   -1.633310    5.265774
     15          7           0      -29.156439   -1.837878   -0.020845
     16          6           0      -28.787060   -3.009677    0.524322
     17          6           0      -29.926252   -3.868840    0.508771
     18          6           0      -31.046074   -3.183701   -0.052893
     19          6           0      -30.545668   -1.819192   -0.260627
     20          6           0      -29.817856   -5.310829    0.842289
     21          6           0      -32.417101   -3.754143   -0.138317
     22          8           0      -32.621374   -4.911214    0.189373
     23          6           0      -33.584140   -2.948237   -0.696097
     24          7           0      -29.700783    1.221468   -0.865684
     25          6           0      -30.958293    0.704998   -0.775224
     26          6           0      -31.982291    1.787461   -0.886163
     27          6           0      -31.039735    3.066688   -1.087481
     28          6           0      -29.621412    2.553137   -1.107605
     29          6           0      -33.044672    1.562422   -1.978318
     30          6           0      -31.246765    4.256099   -0.048548
     31          6           0      -31.475285    5.702994   -0.545429
     32          7           0      -26.896010    1.682227   -0.325337
     33          6           0      -27.194783    2.939242   -0.748299
     34          6           0      -26.023818    3.680063   -0.914309
     35          6           0      -24.987174    2.895235   -0.428682
     36          6           0      -25.575075    1.725824   -0.016094
     37          6           0      -25.974897    5.153939   -1.413392
     38          6           0      -23.620850    2.811035   -0.201682
     39          8           0      -22.778932    3.693950   -0.323291
     40          6           0      -23.323170    1.419640    0.539604
     41          6           0      -22.513131    0.561605   -0.247495
     42          8           0      -22.786472   -0.127909   -1.232864
     43          8           0      -21.244298    0.604548    0.322134
     44          6           0      -20.149420   -0.166881   -0.240886
     45          1           0      -27.196435   -4.318479    1.092472
     46          1           0      -32.400829   -0.663528   -0.606610
     47          1           0      -28.709195    4.321850   -1.507722
     48          1           0      -23.185513   -1.405280    1.227563
     49          1           0      -25.225320   -3.324210    2.479510
     50          1           0      -23.253874   -3.454148    0.247286
     51          1           0      -24.796522   -4.278880   -0.106155
     52          1           0      -23.914550   -4.737743    1.328594
     53          1           0      -24.773718   -1.572264    3.845218
     54          1           0      -24.513569   -0.071839    3.182357
     55          1           0      -22.243738   -0.185860    3.622271
     56          1           0      -22.216266   -1.857717    3.110137
     57          1           0      -29.745219   -5.777303   -0.139993
     58          1           0      -30.685487   -5.658581    1.403317
     59          1           0      -28.938217   -5.548476    1.440602
     60          1           0      -33.907044   -2.298422    0.117416
     61          1           0      -34.399920   -3.660593   -0.816753
     62          1           0      -33.287758   -2.410216   -1.596444
     63          1           0      -32.414192    1.738987    0.112921
     64          1           0      -31.264857    3.587530   -2.018168
     65          1           0      -33.960321    1.293298   -1.450727
     66          1           0      -32.755440    0.799938   -2.702288
     67          1           0      -33.239355    2.504118   -2.490975
     68          1           0      -30.365868    4.305377    0.591362
     69          1           0      -32.121010    4.115495    0.587464
     70          1           0      -30.440386    6.042251   -0.588115
     71          1           0      -32.003361    6.283955    0.209583
     72          1           0      -31.802207    5.886189   -1.568897
     73          1           0      -26.331211    5.800164   -0.612203
     74          1           0      -26.630815    5.400108   -2.248647
     75          1           0      -24.954848    5.446255   -1.664231
     76          1           0      -22.893196    1.686718    1.505072
     77          1           0      -19.235113    0.393842   -0.049097
     78          1           0      -20.278247   -0.465691   -1.281523
     79          1           0      -20.036153   -1.064458    0.367248
     80         12           0       27.923620    0.493340   -0.314602
     81          6           0       25.732523   -2.261789   -0.272217
     82          6           0       25.163748    2.458746    0.469043
     83          6           0       29.949091    3.102172    0.113218
     84          6           0       30.568218   -1.749277   -0.172611
     85          7           0       25.723277    0.043568    0.210324
     86          6           0       24.992128   -1.117073    0.048383
     87          6           0       23.489217   -0.937169    0.004497
     88          6           0       23.308389    0.584470    0.219326
     89          6           0       24.784053    1.091263    0.325657
     90          6           0       22.491198    1.312508   -0.923791
     91          6           0       22.641779   -1.766449    1.069525
     92          6           0       23.287418   -2.059871    2.433584
     93          1           0       22.817946   -1.232233    3.666543
     94          7           0       27.600696    2.458307    0.197573
     95          6           0       26.407704    3.085434    0.419407
     96          6           0       26.626861    4.526238    0.609230
     97          6           0       28.035575    4.738848    0.504196
     98          6           0       28.595209    3.372687    0.267606
     99          6           0       25.502066    5.527568    0.843629
    100          6           0       28.614682    6.179770    0.762071
    101          8           0       27.831097    7.063360    1.080370
    102          6           0       30.179058    6.436025    0.697986
    103          7           0       29.917658    0.626967    0.054637
    104          6           0       30.586837    1.848616    0.039961
    105          6           0       32.202167    1.620398    0.072455
    106          6           0       32.266906   -0.000759    0.134792
    107          6           0       30.829023   -0.382739   -0.010519
    108          6           0       32.920483    2.237217   -1.163713
    109          6           0       32.902006   -0.604149    1.460240
    110          6           0       34.032118   -1.638286    1.340184
    111          7           0       28.168370   -1.603596   -0.359999
    112          6           0       29.281531   -2.401069   -0.285437
    113          6           0       28.848416   -3.814228   -0.303966
    114          6           0       27.433180   -3.768088   -0.419736
    115          6           0       27.094097   -2.386353   -0.397969
    116          6           0       29.710314   -5.041989   -0.201187
    117          6           0       26.240106   -4.635123   -0.445474
    118          8           0       26.092575   -5.862586   -0.537284
    119          6           0       25.090769   -3.643991   -0.552634
    120          6           0       24.377963   -3.751613   -1.780856
    121          8           0       24.812812   -3.251588   -2.850523
    122          8           0       23.157622   -4.435412   -1.611932
    123          6           0       22.233338   -4.488507   -2.740052
    124          1           0       24.319027    3.146222    0.544058
    125          1           0       30.632646    3.952954    0.090056
    126          1           0       31.455688   -2.384726   -0.185476
    127          1           0       23.242663   -1.266280   -1.004247
    128          1           0       22.917082    0.690590    1.230469
    129          1           0       21.527470    1.635903   -0.530512
    130          1           0       22.365912    0.575022   -1.717036
    131          1           0       23.016423    2.196053   -1.288061
    132          1           0       22.530254   -2.719381    0.550687
    133          1           0       21.660026   -1.305365    1.179928
    134          1           0       24.371660   -1.959155    2.374587
    135          1           0       23.146988   -3.117584    2.652402
    136          1           0       25.395042    5.861246    1.875789
    137          1           0       24.582585    5.205880    0.354416
    138          1           0       25.666404    6.435010    0.262823
    139          1           0       30.536018    5.972272   -0.221899
    140          1           0       30.620058    5.972580    1.580103
    141          1           0       30.466208    7.472471    0.875258
    142          1           0       32.566270    2.199343    0.920667
    143          1           0       32.797676   -0.329959   -0.758810
    144          1           0       33.029342    1.445875   -1.905059
    145          1           0       33.857137    2.731690   -0.906011
    146          1           0       32.383360    3.066919   -1.622976
    147          1           0       32.073136   -0.999511    2.048282
    148          1           0       33.310374    0.292186    1.927042
    149          1           0       34.147586   -2.226612    2.250896
    150          1           0       34.903193   -1.007002    1.166108
    151          1           0       33.735812   -2.257480    0.493223
    152          1           0       30.590300   -4.700538    0.343248
    153          1           0       29.991480   -5.213261   -1.240263
    154          1           0       29.209526   -5.932954    0.178761
    155          1           0       24.474872   -3.939906    0.296318
    156          1           0       22.554917   -5.035073   -3.626631
    157          1           0       21.970267   -3.477627   -3.052905
    158          1           0       21.280152   -4.832448   -2.338168
 ---------------------------------------------------------------------

 SCF Done:  E(RCAM-B3LYP) =  -4069.77989601     A.U. after   18 cycles

 Excitation energies and oscillator strengths:

 Excited State   1:      Singlet-A      1.6990 eV  729.74 nm  f=0.3974  <S**2>=0.000
     309 -> 315       -0.18501
     311 -> 313        0.68484
     309 <- 315       -0.10995
 This state for optimization and/or second-order correction.
 Total Energy, E(TD-HF/TD-DFT) =  -4069.71745842
 Copying the excited state density for this state as the 1-particle RhoCI density.

 Excited State   2:      Singlet-A      1.7180 eV  721.69 nm  f=0.3801  <S**2>=0.000
     310 -> 316        0.18148
     312 -> 314        0.68503
     310 <- 316        0.10790

 Excited State   3:      Singlet-A      2.2279 eV  556.51 nm  f=0.1005  <S**2>=0.000
     309 -> 313        0.63665
     311 -> 315        0.29395

 Excited State   4:      Singlet-A      2.3104 eV  536.64 nm  f=0.0713  <S**2>=0.000
     310 -> 314        0.61633
     312 -> 316       -0.33581

 Excited State   5:      Singlet-A      2.9942 eV  414.09 nm  f=0.0000  <S**2>=0.000
     312 -> 313        0.70710

 The electronic state is 1-A.
 Alpha  occ. eigenvalues --  -46.89705 -46.88929 -19.25794 -19.24656 -19.20238
 Alpha  occ. eigenvalues --  -19.20209 -19.19617 -19.19262 -19.19195 -19.18369
 Alpha  occ. eigenvalues --  -14.42639 -14.42366 -14.42084 -14.42035 -14.39960
 Alpha  occ. eigenvalues --  -14.39822 -14.39317 -14.39216 -10.40025 -10.39639
 Alpha  occ. eigenvalues --  -10.36495 -10.35353 -10.35246 -10.34637 -10.32117
 Alpha  occ. eigenvalues --  -10.31881 -10.31600 -10.31561 -10.31411 -10.31351
 Alpha  occ. eigenvalues --  -10.31324 -10.31158 -10.30938 -10.30920 -10.30640
 Alpha  occ. eigenvalues --  -10.30587 -10.30090 -10.29842 -10.29791 -10.29454
 Alpha  occ. eigenvalues --  -10.29301 -10.29002 -10.28848 -10.28735 -10.28517
 Alpha  occ. eigenvalues --  -10.28466 -10.28372 -10.28353 -10.28345 -10.28330
 Alpha  occ. eigenvalues --  -10.28309 -10.28308 -10.28307 -10.28193 -10.28191
 Alpha  occ. eigenvalues --  -10.28033 -10.27828 -10.27813 -10.27776 -10.27763
 Alpha  occ. eigenvalues --  -10.27744 -10.27471 -10.27392 -10.27387 -10.27155
 Alpha  occ. eigenvalues --  -10.27141 -10.27055 -10.26872 -10.26811 -10.26797
 Alpha  occ. eigenvalues --  -10.26733 -10.26661 -10.26620 -10.26586 -10.26572
 Alpha  occ. eigenvalues --  -10.26546 -10.26083 -10.26057 -10.26045 -10.25913
 Alpha  occ. eigenvalues --  -10.25868 -10.25861 -10.25458 -10.25176 -10.24922
 Alpha  occ. eigenvalues --  -10.24866  -3.18027  -3.17555  -1.92941  -1.92477
 Alpha  occ. eigenvalues --   -1.92413  -1.92320  -1.92026  -1.91859  -1.15764
 Alpha  occ. eigenvalues --   -1.14974  -1.10417  -1.10049  -1.10004  -1.09058
 Alpha  occ. eigenvalues --   -1.07541  -1.07024  -1.05527  -1.04148  -1.04101
 Alpha  occ. eigenvalues --   -1.03878  -1.03549  -1.02628  -1.02615  -1.01881
 Alpha  occ. eigenvalues --   -0.93916  -0.93136  -0.89495  -0.89172  -0.89167
 Alpha  occ. eigenvalues --   -0.88849  -0.88421  -0.88051  -0.87912  -0.86896
 Alpha  occ. eigenvalues --   -0.86808  -0.86212  -0.86082  -0.85563  -0.85444
 Alpha  occ. eigenvalues --   -0.84661  -0.84526  -0.83916  -0.83069  -0.82803
 Alpha  occ. eigenvalues --   -0.82275  -0.81664  -0.81501  -0.81011  -0.80817
 Alpha  occ. eigenvalues --   -0.80085  -0.78200  -0.78170  -0.77634  -0.77220
 Alpha  occ. eigenvalues --   -0.76772  -0.76585  -0.76529  -0.76523  -0.75197
 Alpha  occ. eigenvalues --   -0.74905  -0.73533  -0.72411  -0.72334  -0.71752
 Alpha  occ. eigenvalues --   -0.69843  -0.69296  -0.69279  -0.68912  -0.68435
 Alpha  occ. eigenvalues --   -0.68144  -0.67441  -0.66812  -0.66202  -0.65936
 Alpha  occ. eigenvalues --   -0.65781  -0.65507  -0.65189  -0.64882  -0.64580
 Alpha  occ. eigenvalues --   -0.64202  -0.62727  -0.62443  -0.60522  -0.60234
 Alpha  occ. eigenvalues --   -0.59910  -0.59625  -0.59148  -0.59122  -0.59067
 Alpha  occ. eigenvalues --   -0.58654  -0.58205  -0.58017  -0.57742  -0.57186
 Alpha  occ. eigenvalues --   -0.56376  -0.56175  -0.56144  -0.55605  -0.55481
 Alpha  occ. eigenvalues --   -0.54949  -0.54896  -0.54433  -0.54396  -0.54194
 Alpha  occ. eigenvalues --   -0.53766  -0.53562  -0.53420  -0.53086  -0.52675
 Alpha  occ. eigenvalues --   -0.52617  -0.52356  -0.52344  -0.52127  -0.52108
 Alpha  occ. eigenvalues --   -0.52102  -0.51854  -0.51564  -0.51524  -0.51336
 Alpha  occ. eigenvalues --   -0.51188  -0.50948  -0.50710  -0.50400  -0.50302
 Alpha  occ. eigenvalues --   -0.50160  -0.50036  -0.49981  -0.49612  -0.49461
 Alpha  occ. eigenvalues --   -0.49360  -0.49352  -0.49257  -0.49047  -0.49009
 Alpha  occ. eigenvalues --   -0.48966  -0.48574  -0.48408  -0.48347  -0.48315
 Alpha  occ. eigenvalues --   -0.48138  -0.47554  -0.47367  -0.47201  -0.46905
 Alpha  occ. eigenvalues --   -0.46774  -0.46728  -0.46631  -0.46612  -0.46448
 Alpha  occ. eigenvalues --   -0.46239  -0.46160  -0.46148  -0.45984  -0.45841
 Alpha  occ. eigenvalues --   -0.45770  -0.45498  -0.45381  -0.45319  -0.45099
 Alpha  occ. eigenvalues --   -0.44968  -0.44789  -0.44723  -0.44611  -0.44556
 Alpha  occ. eigenvalues --   -0.44540  -0.44181  -0.43926  -0.43923  -0.43631
 Alpha  occ. eigenvalues --   -0.43412  -0.43227  -0.43185  -0.43031  -0.42928
 Alpha  occ. eigenvalues --   -0.42892  -0.42675  -0.42391  -0.42259  -0.42208
 Alpha  occ. eigenvalues --   -0.42096  -0.42076  -0.41944  -0.41857  -0.41561
 Alpha  occ. eigenvalues --   -0.41463  -0.41089  -0.41062  -0.40605  -0.40272
 Alpha  occ. eigenvalues --   -0.40266  -0.39855  -0.39751  -0.39695  -0.38902
 Alpha  occ. eigenvalues --   -0.38311  -0.38234  -0.37989  -0.37642  -0.37510
 Alpha  occ. eigenvalues --   -0.37396  -0.37289  -0.37076  -0.37009  -0.36625
 Alpha  occ. eigenvalues --   -0.36294  -0.35693  -0.34939  -0.34754  -0.34407
 Alpha  occ. eigenvalues --   -0.34383  -0.33637  -0.33194  -0.31847  -0.31409
 Alpha  occ. eigenvalues --   -0.31224  -0.31199  -0.30975  -0.30734  -0.30517
 Alpha  occ. eigenvalues --   -0.30259  -0.29599  -0.29464  -0.24571  -0.24137
 Alpha  occ. eigenvalues --   -0.21565  -0.20826
 Alpha virt. eigenvalues --   -0.09203  -0.08180  -0.02292  -0.01802  -0.00197
 Alpha virt. eigenvalues --    0.00282   0.01656   0.02057   0.02318   0.02499
 Alpha virt. eigenvalues --    0.03442   0.04033   0.04621   0.05039   0.05226

 Mulliken charges:
               1
     1  Mg   0.803435
     2  C   -0.053526
     3  C   -0.077647
     4  C   -0.031488
     5  C   -0.113891
     6  N   -0.266411
     7  C   -0.028600
     8  C   -0.077928
     9  C   -0.056801
    10  C    0.065564
    11  C    0.083067
    12  C    0.065141
    13  C   -0.060425
    14  H    0.028843
    15  N   -0.375692
    16  C    0.137239
    17  C   -0.161470
    18  C   -0.018956
    19  C    0.178070
    20  C    0.123845
    21  C   -0.042897
    22  O   -0.205020
    23  C    0.068029
    24  N   -0.281935
    25  C   -0.040124
    26  C   -0.032404
    27  C   -0.000431
    28  C    0.029940
    29  C    0.073846
    30  C   -0.008459
    31  C   -0.012551
    32  N   -0.343824
    33  C    0.184279
    34  C   -0.180467
    35  C    0.103163
    36  C    0.132000
    37  C    0.117896
    38  C   -0.022207
    39  O   -0.171201
    40  C   -0.002513
    41  C    0.227948
    42  O   -0.227800
    43  O   -0.357579
    44  C    0.177856
    45  H   -0.025142
    46  H   -0.050646
    47  H   -0.029530
    48  H    0.016104
    49  H    0.020249
    50  H    0.026942
    51  H    0.012902
    52  H    0.013830
    53  H    0.013075
    54  H    0.002785
    55  H    0.032690
    56  H    0.023569
    57  H    0.036659
    58  H    0.042132
    59  H    0.002279
    60  H    0.036915
    61  H    0.025009
    62  H    0.043448
    63  H    0.026541
    64  H   -0.001261
    65  H    0.020697
    66  H    0.031763
    67  H    0.017649
    68  H    0.019561
    69  H    0.006266
    70  H    0.003064
    71  H    0.024540
    72  H    0.019080
    73  H    0.024512
    74  H    0.016652
    75  H    0.037797
    76  H    0.052372
    77  H    0.038616
    78  H    0.051826
    79  H    0.019142
    80  Mg   0.851657
    81  C   -0.100092
    82  C   -0.078324
    83  C   -0.099240
    84  C   -0.088975
    85  N   -0.279401
    86  C   -0.081237
    87  C   -0.019288
    88  C   -0.002849
    89  C   -0.000081
    90  C    0.073891
    91  C    0.027085
    92  C   -0.064898
    93  H    0.020884
    94  N   -0.362135
    95  C    0.140215
    96  C   -0.140677
    97  C   -0.078384
    98  C    0.187265
    99  C    0.142635
   100  C    0.026524
   101  O   -0.197133
   102  C    0.035345
   103  N   -0.347413
   104  C    0.055843
   105  C   -0.054202
   106  C   -0.028393
   107  C    0.061106
   108  C    0.055233
   109  C    0.021393
   110  C    0.018572
   111  N   -0.317887
   112  C    0.107226
   113  C   -0.195293
   114  C   -0.057896
   115  C    0.233638
   116  C    0.136017
   117  C    0.071830
   118  O   -0.182082
   119  C    0.008116
   120  C    0.252099
   121  O   -0.249965
   122  O   -0.351336
   123  C    0.193046
   124  H   -0.033188
   125  H   -0.057983
   126  H   -0.041244
   127  H    0.023641
   128  H    0.018851
   129  H    0.021285
   130  H    0.018762
   131  H    0.026162
   132  H    0.015707
   133  H    0.022984
   134  H    0.041901
   135  H    0.033120
   136  H    0.040407
   137  H    0.001803
   138  H    0.020845
   139  H    0.054663
   140  H    0.038696
   141  H    0.026074
   142  H    0.018357
   143  H    0.011702
   144  H    0.016645
   145  H    0.015999
   146  H    0.011107
   147  H    0.024244
   148  H    0.000203
   149  H    0.028352
   150  H    0.019642
   151  H    0.018976
   152  H    0.013660
   153  H    0.031448
   154  H    0.042855
   155  H    0.030565
   156  H    0.050924
   157  H    0.016632
   158  H    0.033764
 Sum of Mulliken charges =  -0.00000

 Dipole moment (field-independent basis, Debye):
    X=             -0.6680    Y=              3.4206    Z=             -0.3411  Tot=              3.5019
 Quadrupole moment (field-independent basis, Debye-Ang):
   XX=           -285.1050   YY=           -567.1378   ZZ=           -518.8049
   XY=            -20.2352   XZ=             -1.6913   YZ=            -11.7976

 Normal termination of Gaussian 16 at Wed Sep  1 09:10:18 2021.
