 Gaussian 16, Revision A.03,
 Gaussian 16:  ES64L-G16RevA.03 25-Dec-2016

 -----------------------------------
 #p cam-b3lyp/Def2SVP td=(nstates=5)
 -----------------------------------

 --------------------------------
 TDDFT excited states in gaussian
 --------------------------------
 Symbolic Z-matrix:
 Charge =  0 Multiplicity = 1

                         Standard orientation:
 ---------------------------------------------------------------------
 Center     Atomic      Atomic             Coordinates (Angstroms)
 Number     Number       Type             X           Y           Z
 ---------------------------------------------------------------------
      1         12           0       -4.584685   -0.533642    1.010269
      2          6           0       -5.541098    2.427302   -0.446405
      3          6           0       -2.774775    1.359178    3.418813
      4          6           0       -3.127189   -3.329609    2.230080
      5          6           0       -6.013397   -2.308847   -1.451045
      6          7           0       -4.203670    1.656693    1.426695
      7          6           0       -4.713033    2.666177    0.654781
      8          6           0       -4.377808    4.035880    1.249320
      9          6           0       -3.321103    3.620709    2.374207
     10          6           0       -3.427724    2.124430    2.418286
     11          6           0       -1.872356    4.185204    2.137190
     12          6           0       -5.642951    4.799132    1.854826
     13          6           0       -5.889018    6.271881    1.631549
     14          1           0       -4.756056    7.216062    1.825150
     15          7           0       -3.173254   -0.972313    2.650821
     16          6           0       -2.716627   -0.114273    3.589412
     17          6           0       -2.037932   -0.800746    4.637066
     18          6           0       -2.150599   -2.194547    4.334960
     19          6           0       -2.783688   -2.190676    2.982362
     20          6           0       -1.376243    0.003593    5.709085
     21          6           0       -1.551438   -3.379481    5.073112
     22          8           0       -1.478724   -4.504628    4.569291
     23          6           0       -0.994230   -3.205232    6.475034
     24          7           0       -4.440149   -2.561465    0.375425
     25          6           0       -3.882915   -3.544671    1.130286
     26          6           0       -4.212358   -4.920512    0.553605
     27          6           0       -5.296668   -4.572338   -0.535809
     28          6           0       -5.263208   -3.056752   -0.542062
     29          6           0       -3.088729   -5.882705    0.066947
     30          6           0       -6.735628   -5.208985   -0.339635
     31          6           0       -7.817162   -4.447668    0.397267
     32          7           0       -5.483794   -0.084998   -0.660919
     33          6           0       -6.170416   -0.873257   -1.549219
     34          6           0       -6.767159   -0.142244   -2.606926
     35          6           0       -6.592004    1.175371   -2.195729
     36          6           0       -5.828728    1.154189   -1.000091
     37          6           0       -7.546230   -0.553399   -3.849480
     38          6           0       -6.821515    2.518474   -2.504813
     39          8           0       -7.372558    2.981329   -3.486580
     40          6           0       -6.123594    3.471986   -1.381223
     41          6           0       -5.138763    4.308975   -2.055319
     42          8           0       -4.102672    3.908009   -2.621646
     43          8           0       -5.468434    5.627675   -2.069388
     44          6           0       -4.745357    6.529258   -2.973303
     45          1           0       -2.332654    2.041686    4.147116
     46          1           0       -2.911627   -4.260382    2.758508
     47          1           0       -6.775168   -2.829388   -2.033911
     48          1           0       -4.008570    4.676771    0.447663
     49          1           0       -3.588759    4.038982    3.344668
     50          1           0       -1.614078    4.802368    2.997031
     51          1           0       -1.930417    4.689717    1.172568
     52          1           0       -1.074427    3.442135    2.150587
     53          1           0       -5.502381    4.622658    2.921366
     54          1           0       -6.557088    4.229126    1.692246
     55          1           0       -6.770556    6.590571    2.187765
     56          1           0       -6.090486    6.371446    0.565578
     57          1           0       -1.653491   -0.492393    6.638548
     58          1           0       -1.800555    1.006719    5.758217
     59          1           0       -0.291842    0.098014    5.642578
     60          1           0       -1.612147   -2.584435    7.124468
     61          1           0        0.067708   -2.961985    6.419346
     62          1           0       -1.049713   -4.204819    6.907198
     63          1           0       -4.597623   -5.460817    1.418592
     64          1           0       -5.068967   -5.003184   -1.510086
     65          1           0       -3.105453   -5.963436   -1.019835
     66          1           0       -3.317639   -6.857954    0.496262
     67          1           0       -2.157503   -5.461842    0.444554
     68          1           0       -6.584914   -6.152104    0.183875
     69          1           0       -7.172374   -5.437193   -1.312151
     70          1           0       -8.260051   -5.043083    1.196009
     71          1           0       -8.622408   -4.096908   -0.249583
     72          1           0       -7.308271   -3.578949    0.814990
     73          1           0       -7.656614   -1.638445   -3.857344
     74          1           0       -7.016501   -0.202949   -4.735657
     75          1           0       -8.526620   -0.079150   -3.814365
     76          1           0       -6.978868    4.084752   -1.094925
     77          1           0       -5.297313    7.431906   -3.235717
     78          1           0       -4.307201    6.060378   -3.853855
     79          1           0       -3.949303    6.954963   -2.362226
     80         12           0        3.918081   -0.636067   -1.007459
     81          6           0        6.591321    1.315250   -0.154180
     82          6           0        1.815886    1.911052   -0.565570
     83          6           0        1.485668   -2.714878   -1.627502
     84          6           0        6.167296   -3.396757   -0.858560
     85          7           0        4.150832    1.383446   -0.247545
     86          6           0        5.355098    2.007547   -0.231487
     87          6           0        5.211576    3.504635   -0.259813
     88          6           0        3.645394    3.655540   -0.101401
     89          6           0        3.152051    2.230462   -0.227665
     90          6           0        3.193655    4.387973    1.184848
     91          6           0        5.904033    4.229396   -1.568482
     92          6           0        6.787461    5.465574   -1.341184
     93          1           0        6.527503    6.290485   -0.041630
     94          7           0        2.026217   -0.403916   -1.248493
     95          6           0        1.273038    0.705185   -1.028687
     96          6           0       -0.143526    0.467069   -1.162383
     97          6           0       -0.237056   -0.796245   -1.663217
     98          6           0        1.111571   -1.391633   -1.409139
     99          6           0       -1.078223    1.578662   -0.721620
    100          6           0       -1.487622   -1.549596   -2.158359
    101          8           0       -1.482370   -2.699545   -2.531601
    102          6           0       -2.747237   -0.736500   -2.105216
    103          7           0        3.852527   -2.792513   -1.037619
    104          6           0        2.703963   -3.357300   -1.451599
    105          6           0        2.881719   -4.863557   -1.666874
    106          6           0        4.438424   -5.025639   -1.731423
    107          6           0        4.870406   -3.664860   -1.147536
    108          6           0        2.191861   -5.860052   -0.640802
    109          6           0        5.064688   -5.203319   -3.165769
    110          6           0        4.892471   -4.186197   -4.263059
    111          7           0        5.980041   -1.057165   -0.687640
    112          6           0        6.754879   -2.214804   -0.562562
    113          6           0        8.154494   -1.897878   -0.251095
    114          6           0        8.140352   -0.504404   -0.089027
    115          6           0        6.802296   -0.085358   -0.372240
    116          6           0        9.333477   -2.834443   -0.184991
    117          6           0        8.900345    0.618024    0.223703
    118          8           0       10.063600    0.770644    0.562293
    119          6           0        8.007464    1.859875   -0.031493
    120          6           0        8.242464    2.676627    1.181267
    121          8           0        7.712809    2.494431    2.280128
    122          8           0        9.219338    3.605654    0.968355
    123          6           0        9.808482    4.307860    2.112875
    124          1           0        1.187801    2.803852   -0.601936
    125          1           0        0.732961   -3.459794   -1.891147
    126          1           0        6.745247   -4.323583   -0.889051
    127          1           0        5.625169    3.947359    0.646363
    128          1           0        3.252622    4.174575   -0.975450
    129          1           0        2.827826    3.651009    1.899692
    130          1           0        2.369735    5.054796    0.930628
    131          1           0        4.071749    4.906791    1.569585
    132          1           0        5.063894    4.502580   -2.207062
    133          1           0        6.561726    3.532253   -2.086685
    134          1           0        6.605160    6.206260   -2.119351
    135          1           0        7.837369    5.192761   -1.447125
    136          1           0       -1.007765    1.853597    0.330897
    137          1           0       -2.154945    1.413882   -0.686089
    138          1           0       -0.824062    2.356419   -1.441784
    139          1           0       -2.632742    0.187835   -2.670934
    140          1           0       -2.910641   -0.651864   -1.031061
    141          1           0       -3.650632   -1.136134   -2.564558
    142          1           0        2.374024   -5.008407   -2.621146
    143          1           0        4.738430   -5.794585   -1.019165
    144          1           0        1.647364   -5.287541    0.109716
    145          1           0        2.941354   -6.386409   -0.050969
    146          1           0        1.543160   -6.626352   -1.067880
    147          1           0        4.617899   -6.160101   -3.437254
    148          1           0        6.146772   -5.325371   -3.129972
    149          1           0        4.160895   -3.438161   -3.954760
    150          1           0        4.495528   -4.657628   -5.161980
    151          1           0        5.770947   -3.594324   -4.519317
    152          1           0        9.673779   -3.002848    0.835779
    153          1           0       10.152201   -2.438660   -0.786186
    154          1           0        8.913072   -3.779043   -0.530998
    155          1           0        8.252370    2.350378   -0.973760
    156          1           0       10.820963    4.656293    1.905571
    157          1           0        9.683316    3.752215    3.040967
    158          1           0        9.250812    5.203541    2.385868
 ---------------------------------------------------------------------

 SCF Done:  E(RCAM-B3LYP) =  -4069.82789254     A.U. after   19 cycles

 Excitation energies and oscillator strengths:

 Excited State   1:      Singlet-A      1.7078 eV  725.97 nm  f=0.3306  <S**2>=0.000
     309 -> 315       -0.17377
     311 -> 313        0.68384
     309 <- 315       -0.10569
 This state for optimization and/or second-order correction.
 Total Energy, E(TD-HF/TD-DFT) =  -4069.76513076
 Copying the excited state density for this state as the 1-particle RhoCI density.

 Excited State   2:      Singlet-A      1.7763 eV  697.98 nm  f=0.4485  <S**2>=0.000
     310 -> 316        0.18689
     312 -> 314        0.67708
     310 <- 316        0.10370

 Excited State   3:      Singlet-A      1.8467 eV  671.39 nm  f=0.0043  <S**2>=0.000
     312 -> 313        0.70247

 Excited State   4:      Singlet-A      2.1778 eV  569.30 nm  f=0.1243  <S**2>=0.000
     309 -> 313        0.66027
     311 -> 315        0.23139

 Excited State   5:      Singlet-A      2.2853 eV  542.52 nm  f=0.0618  <S**2>=0.000
     310 -> 314        0.61003
     312 -> 316       -0.33824

 The electronic state is 1-A.
 Alpha  occ. eigenvalues --  -46.89820 -46.87482 -19.25778 -19.23678 -19.19366
 Alpha  occ. eigenvalues --  -19.19225 -19.19164 -19.19153 -19.18082 -19.17233
 Alpha  occ. eigenvalues --  -14.42813 -14.42098 -14.41279 -14.40576 -14.40183
 Alpha  occ. eigenvalues --  -14.40074 -14.39464 -14.38298 -10.39714 -10.37989
 Alpha  occ. eigenvalues --  -10.35702 -10.35103 -10.35063 -10.33143 -10.32251
 Alpha  occ. eigenvalues --  -10.31712 -10.31566 -10.30881 -10.30678 -10.30642
 Alpha  occ. eigenvalues --  -10.30624 -10.30485 -10.30412 -10.30328 -10.30198
 Alpha  occ. eigenvalues --  -10.29996 -10.29821 -10.29637 -10.29609 -10.29112
 Alpha  occ. eigenvalues --  -10.29070 -10.28894 -10.28865 -10.28804 -10.28698
 Alpha  occ. eigenvalues --  -10.28597 -10.28548 -10.28467 -10.28267 -10.28240
 Alpha  occ. eigenvalues --  -10.28206 -10.27963 -10.27657 -10.27583 -10.27511
 Alpha  occ. eigenvalues --  -10.27493 -10.27463 -10.27410 -10.27302 -10.27228
 Alpha  occ. eigenvalues --  -10.27194 -10.27181 -10.27143 -10.27138 -10.27118
 Alpha  occ. eigenvalues --  -10.26969 -10.26863 -10.26863 -10.26813 -10.26470
 Alpha  occ. eigenvalues --  -10.26414 -10.26387 -10.26007 -10.25897 -10.25886
 Alpha  occ. eigenvalues --  -10.25709 -10.25627 -10.25614 -10.25518 -10.25268
 Alpha  occ. eigenvalues --  -10.25194 -10.25096 -10.25060 -10.24860 -10.24568
 Alpha  occ. eigenvalues --  -10.23583  -3.18450  -3.16338  -1.93352  -1.92858
 Alpha  occ. eigenvalues --   -1.92790  -1.91204  -1.90808  -1.90670  -1.16582
 Alpha  occ. eigenvalues --   -1.14598  -1.10717  -1.10454  -1.09795  -1.08605
 Alpha  occ. eigenvalues --   -1.06628  -1.05983  -1.05667  -1.05216  -1.05117
 Alpha  occ. eigenvalues --   -1.04726  -1.04228  -1.04104  -1.03637  -1.02526
 Alpha  occ. eigenvalues --   -0.93242  -0.91921  -0.89489  -0.88974  -0.88869
 Alpha  occ. eigenvalues --   -0.88473  -0.88359  -0.87867  -0.87857  -0.87713
 Alpha  occ. eigenvalues --   -0.87482  -0.87027  -0.86999  -0.86078  -0.84850
 Alpha  occ. eigenvalues --   -0.84195  -0.83959  -0.83163  -0.83121  -0.82248
 Alpha  occ. eigenvalues --   -0.82219  -0.81756  -0.81680  -0.80804  -0.80614
 Alpha  occ. eigenvalues --   -0.80005  -0.78851  -0.78224  -0.77900  -0.77665
 Alpha  occ. eigenvalues --   -0.77017  -0.76759  -0.76637  -0.75892  -0.75376
 Alpha  occ. eigenvalues --   -0.74780  -0.74069  -0.72181  -0.72076  -0.71252
 Alpha  occ. eigenvalues --   -0.69952  -0.69722  -0.69220  -0.68693  -0.68511
 Alpha  occ. eigenvalues --   -0.67751  -0.67604  -0.66742  -0.66267  -0.65644
 Alpha  occ. eigenvalues --   -0.65160  -0.65064  -0.64723  -0.64532  -0.64283
 Alpha  occ. eigenvalues --   -0.63360  -0.62844  -0.61382  -0.60633  -0.60499
 Alpha  occ. eigenvalues --   -0.60361  -0.59652  -0.58939  -0.58898  -0.58803
 Alpha  occ. eigenvalues --   -0.58501  -0.57666  -0.57588  -0.57370  -0.57067
 Alpha  occ. eigenvalues --   -0.56746  -0.56016  -0.55691  -0.55445  -0.55205
 Alpha  occ. eigenvalues --   -0.54949  -0.54686  -0.54509  -0.54234  -0.53993
 Alpha  occ. eigenvalues --   -0.53654  -0.53575  -0.53280  -0.53217  -0.52911
 Alpha  occ. eigenvalues --   -0.52857  -0.52703  -0.52628  -0.52335  -0.52263
 Alpha  occ. eigenvalues --   -0.52074  -0.51848  -0.51629  -0.51243  -0.51008
 Alpha  occ. eigenvalues --   -0.50941  -0.50772  -0.50699  -0.50250  -0.50206
 Alpha  occ. eigenvalues --   -0.50045  -0.49926  -0.49809  -0.49717  -0.49491
 Alpha  occ. eigenvalues --   -0.49439  -0.49093  -0.48961  -0.48891  -0.48880
 Alpha  occ. eigenvalues --   -0.48735  -0.48603  -0.48380  -0.48288  -0.48042
 Alpha  occ. eigenvalues --   -0.47895  -0.47634  -0.47591  -0.47537  -0.47318
 Alpha  occ. eigenvalues --   -0.47244  -0.47062  -0.46692  -0.46676  -0.46398
 Alpha  occ. eigenvalues --   -0.46324  -0.46290  -0.46165  -0.46051  -0.45811
 Alpha  occ. eigenvalues --   -0.45564  -0.45242  -0.45094  -0.44993  -0.44786
 Alpha  occ. eigenvalues --   -0.44469  -0.44439  -0.44300  -0.44051  -0.43949
 Alpha  occ. eigenvalues --   -0.43838  -0.43736  -0.43643  -0.43551  -0.43406
 Alpha  occ. eigenvalues --   -0.43250  -0.42898  -0.42759  -0.42678  -0.42498
 Alpha  occ. eigenvalues --   -0.42392  -0.42233  -0.42134  -0.42043  -0.41898
 Alpha  occ. eigenvalues --   -0.41807  -0.41731  -0.41573  -0.41386  -0.41220
 Alpha  occ. eigenvalues --   -0.41105  -0.40763  -0.40669  -0.40346  -0.40289
 Alpha  occ. eigenvalues --   -0.40183  -0.40117  -0.39937  -0.39232  -0.38919
 Alpha  occ. eigenvalues --   -0.38804  -0.38656  -0.38053  -0.37856  -0.37742
 Alpha  occ. eigenvalues --   -0.37095  -0.36722  -0.36526  -0.36383  -0.36053
 Alpha  occ. eigenvalues --   -0.35843  -0.35116  -0.34920  -0.34235  -0.33901
 Alpha  occ. eigenvalues --   -0.33462  -0.32946  -0.32508  -0.31862  -0.31812
 Alpha  occ. eigenvalues --   -0.31611  -0.31393  -0.30991  -0.30604  -0.30479
 Alpha  occ. eigenvalues --   -0.30278  -0.29692  -0.29264  -0.24418  -0.23358
 Alpha  occ. eigenvalues --   -0.22030  -0.20138
 Alpha virt. eigenvalues --   -0.09653  -0.07287  -0.01784  -0.01274  -0.00295
 Alpha virt. eigenvalues --    0.00793   0.01370   0.01942   0.02713   0.03524
 Alpha virt. eigenvalues --    0.04029   0.05272   0.05535   0.06238   0.06469

 Mulliken charges:
               1
     1  Mg   0.770794
     2  C    0.018774
     3  C   -0.054866
     4  C   -0.048493
     5  C   -0.067198
     6  N   -0.261354
     7  C   -0.058292
     8  C   -0.036439
     9  C   -0.066944
    10  C    0.015505
    11  C    0.063725
    12  C    0.050514
    13  C   -0.047193
    14  H    0.017230
    15  N   -0.276786
    16  C    0.113001
    17  C   -0.138464
    18  C   -0.036343
    19  C    0.075836
    20  C    0.125980
    21  C   -0.000253
    22  O   -0.214484
    23  C    0.045216
    24  N   -0.283217
    25  C    0.034386
    26  C   -0.033798
    27  C    0.007311
    28  C    0.050752
    29  C    0.084635
    30  C   -0.012418
    31  C    0.011916
    32  N   -0.384693
    33  C    0.074576
    34  C   -0.183216
    35  C    0.097191
    36  C    0.095720
    37  C    0.141191
    38  C   -0.044325
    39  O   -0.169749
    40  C    0.013229
    41  C    0.195291
    42  O   -0.258363
    43  O   -0.326232
    44  C    0.185637
    45  H   -0.033399
    46  H   -0.006662
    47  H   -0.021773
    48  H    0.022874
    49  H    0.020338
    50  H    0.012520
    51  H    0.026433
    52  H    0.027103
    53  H   -0.010293
    54  H    0.009313
    55  H    0.033898
    56  H    0.033089
    57  H    0.010726
    58  H    0.014789
    59  H    0.044115
    60  H    0.033428
    61  H    0.050828
    62  H    0.026151
    63  H    0.009512
    64  H    0.016561
    65  H    0.023930
    66  H    0.015787
    67  H    0.031138
    68  H    0.005257
    69  H    0.005634
    70  H    0.015348
    71  H    0.015409
    72  H    0.016779
    73  H    0.006644
    74  H    0.042980
    75  H    0.039212
    76  H    0.032270
    77  H    0.037352
    78  H    0.058180
    79  H    0.018941
    80  Mg   0.849413
    81  C    0.011568
    82  C   -0.109947
    83  C   -0.070221
    84  C   -0.109607
    85  N   -0.257575
    86  C   -0.053298
    87  C   -0.000605
    88  C   -0.100751
    89  C    0.044715
    90  C    0.093995
    91  C    0.049040
    92  C   -0.071793
    93  H    0.010974
    94  N   -0.420456
    95  C    0.160339
    96  C   -0.104043
    97  C   -0.090174
    98  C    0.163303
    99  C    0.091992
   100  C    0.028299
   101  O   -0.173399
   102  C    0.027916
   103  N   -0.251731
   104  C    0.004401
   105  C   -0.037350
   106  C    0.002444
   107  C   -0.034960
   108  C    0.068653
   109  C    0.035911
   110  C    0.008707
   111  N   -0.312241
   112  C    0.154392
   113  C   -0.184795
   114  C    0.078058
   115  C    0.062071
   116  C    0.144362
   117  C   -0.023574
   118  O   -0.180042
   119  C    0.001978
   120  C    0.195247
   121  O   -0.240771
   122  O   -0.323605
   123  C    0.191207
   124  H   -0.030993
   125  H   -0.011717
   126  H   -0.036570
   127  H    0.020453
   128  H    0.006866
   129  H    0.020822
   130  H    0.016179
   131  H    0.023948
   132  H    0.009242
   133  H    0.018382
   134  H    0.025431
   135  H    0.039864
   136  H    0.032529
   137  H    0.021963
   138  H    0.049670
   139  H    0.054964
   140  H    0.077652
   141  H    0.032248
   142  H    0.007345
   143  H    0.001711
   144  H    0.021480
   145  H    0.004923
   146  H    0.026176
   147  H    0.005283
   148  H    0.006896
   149  H    0.010625
   150  H    0.016911
   151  H    0.021027
   152  H    0.034595
   153  H    0.040336
   154  H   -0.002189
   155  H    0.043268
   156  H    0.042369
   157  H    0.039498
   158  H    0.011062
 Sum of Mulliken charges =  -0.00000

 Dipole moment (field-independent basis, Debye):
    X=             -6.4350    Y=              1.7851    Z=              1.7194  Tot=              6.8958
 Quadrupole moment (field-independent basis, Debye-Ang):
   XX=           -557.3157   YY=           -470.3004   ZZ=           -504.0783
   XY=              9.3005   XZ=            -40.7048   YZ=             15.1202

 Normal termination of Gaussian 16 at Fri Sep  3 02:56:42 2021.
