 Gaussian 16, Revision A.03,
 Gaussian 16:  ES64L-G16RevA.03 25-Dec-2016

 -----------------------------------
 #p cam-b3lyp/Def2SVP td=(nstates=5)
 -----------------------------------

 --------------------------------
 TDDFT excited states in gaussian
 --------------------------------
 Symbolic Z-matrix:
 Charge =  0 Multiplicity = 1

                         Standard orientation:
 ---------------------------------------------------------------------
 Center     Atomic      Atomic             Coordinates (Angstroms)
 Number     Number       Type             X           Y           Z
 ---------------------------------------------------------------------
      1         12           0      -13.155416   -0.597949    0.196474
      2          6           0      -13.341288    2.317956   -1.633529
      3          6           0      -11.688287    1.375233    2.800698
      4          6           0      -12.605916   -3.322336    1.907885
      5          6           0      -14.269026   -2.429171   -2.518614
      6          7           0      -12.390555    1.621931    0.423620
      7          6           0      -12.801742    2.597569   -0.368816
      8          6           0      -12.694362    3.975887    0.342735
      9          6           0      -11.662639    3.614622    1.467894
     10          6           0      -11.888010    2.102024    1.622398
     11          6           0      -10.186423    3.960698    1.060154
     12          6           0      -14.112293    4.300563    0.863185
     13          6           0      -14.312860    5.689692    1.484089
     14          1           0      -13.116035    6.566267    1.793977
     15          7           0      -12.398226   -1.001287    2.090122
     16          6           0      -11.879374   -0.028736    3.012552
     17          6           0      -11.661457   -0.741665    4.263831
     18          6           0      -12.036261   -2.102847    4.036998
     19          6           0      -12.342097   -2.220001    2.611948
     20          6           0      -11.163825   -0.077130    5.601342
     21          6           0      -12.132388   -3.244570    5.102258
     22          8           0      -12.348368   -4.360276    4.715248
     23          6           0      -11.920867   -2.951538    6.552136
     24          7           0      -13.493496   -2.610382   -0.219035
     25          6           0      -13.187115   -3.592885    0.657932
     26          6           0      -13.434996   -4.995350    0.103729
     27          6           0      -14.096443   -4.686431   -1.259391
     28          6           0      -13.941450   -3.113529   -1.342963
     29          6           0      -12.163280   -5.912232   -0.022829
     30          6           0      -15.472244   -5.250820   -1.506361
     31          6           0      -16.593859   -5.128966   -0.446785
     32          7           0      -13.697239   -0.231969   -1.712596
     33          6           0      -14.139654   -1.050577   -2.712017
     34          6           0      -14.524573   -0.201400   -3.819532
     35          6           0      -14.269999    1.168702   -3.467487
     36          6           0      -13.743898    1.067759   -2.150470
     37          6           0      -15.082558   -0.711618   -5.111415
     38          6           0      -14.268537    2.526375   -3.898096
     39          8           0      -14.584461    3.078506   -4.974512
     40          6           0      -13.383791    3.272684   -2.757774
     41          6           0      -14.015082    4.650793   -2.553128
     42          8           0      -15.143175    4.855392   -2.312688
     43          8           0      -13.042799    5.590713   -2.745059
     44          6           0      -13.290092    6.933550   -2.261664
     45          1           0      -11.181724    1.970897    3.562356
     46          1           0      -12.397181   -4.266913    2.414535
     47          1           0      -14.608955   -2.949115   -3.415865
     48          1           0      -12.250007    4.737643   -0.297704
     49          1           0      -12.026530    4.172188    2.331251
     50          1           0       -9.869370    4.861984    1.583361
     51          1           0      -10.162896    4.093873   -0.021595
     52          1           0       -9.463433    3.201137    1.357701
     53          1           0      -14.327204    3.601750    1.671209
     54          1           0      -14.882192    4.065920    0.128774
     55          1           0      -15.071371    5.704093    2.267068
     56          1           0      -14.893992    6.231718    0.737801
     57          1           0      -10.320656   -0.610656    6.041111
     58          1           0      -12.038268   -0.040281    6.250830
     59          1           0      -10.915863    0.968808    5.416720
     60          1           0      -12.527107   -3.724499    7.024999
     61          1           0      -12.374700   -2.010821    6.861781
     62          1           0      -10.920925   -2.753605    6.938094
     63          1           0      -14.139193   -5.450636    0.799734
     64          1           0      -13.484341   -4.991436   -2.108127
     65          1           0      -12.324715   -6.510587   -0.919101
     66          1           0      -12.225957   -6.517972    0.881430
     67          1           0      -11.254488   -5.312291    0.023763
     68          1           0      -15.251491   -6.315447   -1.436986
     69          1           0      -15.953715   -5.012347   -2.455330
     70          1           0      -17.008400   -6.044521   -0.026951
     71          1           0      -17.502471   -4.707948   -0.877150
     72          1           0      -16.225885   -4.545727    0.397455
     73          1           0      -15.205823    0.167820   -5.742828
     74          1           0      -16.078366   -1.126438   -4.949563
     75          1           0      -14.529852   -1.533070   -5.566352
     76          1           0      -12.371228    3.291317   -3.161380
     77          1           0      -13.062081    7.354549   -3.240988
     78          1           0      -12.690578    7.205957   -1.392796
     79          1           0      -14.334735    7.144880   -2.031797
     80         12           0       12.783493   -0.560126   -0.367329
     81          6           0       15.081127    1.960924   -0.049918
     82          6           0       10.360218    1.496863    0.679524
     83          6           0       10.694870   -3.202832   -0.497373
     84          6           0       15.532509   -2.857162   -0.988465
     85          7           0       12.810569    1.473412    0.513506
     86          6           0       13.816800    2.352978    0.439870
     87          6           0       13.337467    3.810494    0.941449
     88          6           0       11.799332    3.536223    1.136127
     89          6           0       11.606562    2.044439    0.796693
     90          6           0       11.259327    3.982372    2.508823
     91          6           0       13.643810    4.953677   -0.067313
     92          6           0       12.922660    6.327358    0.127252
     93          1           0       13.756950    7.510316    0.750036
     94          7           0       10.789348   -0.827532    0.087472
     95          6           0        9.945082    0.134314    0.397370
     96          6           0        8.612959   -0.438312    0.518750
     97          6           0        8.666368   -1.846337    0.290967
     98          6           0       10.092904   -2.014278   -0.063369
     99          6           0        7.373448    0.303267    0.991318
    100          6           0        7.588046   -2.917486    0.417212
    101          8           0        7.881328   -4.108534    0.466389
    102          6           0        6.162694   -2.493358    0.485204
    103          7           0       13.091535   -2.738944   -0.654044
    104          6           0       12.065922   -3.580288   -0.709519
    105          6           0       12.495206   -4.985813   -1.161974
    106          6           0       13.964908   -4.742266   -1.494790
    107          6           0       14.207930   -3.372705   -0.980031
    108          6           0       12.242874   -6.160279   -0.204886
    109          6           0       14.341234   -5.088269   -2.913245
    110          6           0       15.383317   -6.249532   -3.090893
    111          7           0       14.818923   -0.496336   -0.547604
    112          6           0       15.816359   -1.472441   -0.882758
    113          6           0       17.116318   -0.858196   -1.040446
    114          6           0       16.812064    0.495788   -0.727145
    115          6           0       15.449795    0.641574   -0.436378
    116          6           0       18.406391   -1.392799   -1.554466
    117          6           0       17.441054    1.790368   -0.800283
    118          8           0       18.524218    2.202324   -1.241762
    119          6           0       16.453884    2.795072   -0.260908
    120          6           0       16.937816    3.253859    1.132366
    121          8           0       17.405937    2.550606    2.040840
    122          8           0       16.752860    4.602442    1.207601
    123          6           0       17.184461    5.295673    2.462630
    124          1           0        9.466677    2.089326    0.887009
    125          1           0       10.141842   -4.135808   -0.370187
    126          1           0       16.284178   -3.578819   -1.313326
    127          1           0       13.845114    3.933544    1.897449
    128          1           0       11.269444    4.081561    0.355181
    129          1           0       10.303875    4.473383    2.327339
    130          1           0       11.905719    4.722551    2.980555
    131          1           0       11.132910    3.128000    3.173892
    132          1           0       13.220750    4.615238   -1.013121
    133          1           0       14.713228    5.163919   -0.078070
    134          1           0       12.146775    6.171053    0.877405
    135          1           0       12.567688    6.674631   -0.842445
    136          1           0        7.592309    1.350144    1.201559
    137          1           0        6.995936   -0.160260    1.902437
    138          1           0        6.571999    0.265085    0.254627
    139          1           0        6.034195   -1.796969   -0.343901
    140          1           0        5.730156   -2.001030    1.355664
    141          1           0        5.468706   -3.324604    0.365417
    142          1           0       11.951395   -5.215907   -2.077541
    143          1           0       14.550602   -5.421949   -0.876099
    144          1           0       11.931134   -6.971644   -0.862149
    145          1           0       11.521939   -5.881669    0.563565
    146          1           0       13.098641   -6.427398    0.415043
    147          1           0       14.856634   -4.195260   -3.265365
    148          1           0       13.489560   -5.351640   -3.539788
    149          1           0       15.699813   -6.618466   -2.114917
    150          1           0       16.254726   -5.825990   -3.591198
    151          1           0       15.071499   -7.062246   -3.747072
    152          1           0       18.259034   -2.386501   -1.976661
    153          1           0       19.019741   -1.553941   -0.668686
    154          1           0       18.734745   -0.660929   -2.293883
    155          1           0       16.477114    3.606859   -0.988177
    156          1           0       16.874096    4.812846    3.389587
    157          1           0       16.909422    6.348709    2.512418
    158          1           0       18.271760    5.221495    2.471966
 ---------------------------------------------------------------------

 SCF Done:  E(RCAM-B3LYP) =  -4069.80733785     A.U. after   19 cycles

 Excitation energies and oscillator strengths:

 Excited State   1:      Singlet-A      1.7213 eV  720.31 nm  f=0.4189  <S**2>=0.000
     309 -> 316        0.17424
     312 -> 313        0.67804
     309 <- 316        0.10230
 This state for optimization and/or second-order correction.
 Total Energy, E(TD-HF/TD-DFT) =  -4069.74408292
 Copying the excited state density for this state as the 1-particle RhoCI density.

 Excited State   2:      Singlet-A      1.7341 eV  714.99 nm  f=0.3614  <S**2>=0.000
     310 -> 315       -0.19449
     311 -> 314        0.67508
     310 <- 315       -0.10974

 Excited State   3:      Singlet-A      2.2194 eV  558.64 nm  f=0.0895  <S**2>=0.000
     310 -> 314        0.63496
     311 -> 315        0.29931

 Excited State   4:      Singlet-A      2.2690 eV  546.42 nm  f=0.1130  <S**2>=0.000
     309 -> 313        0.63909
     312 -> 316       -0.28650

 Excited State   5:      Singlet-A      3.0650 eV  404.51 nm  f=0.0000  <S**2>=0.000
     311 -> 313        0.70704

 The electronic state is 1-A.
 Alpha  occ. eigenvalues --  -46.89208 -46.88345 -19.25643 -19.24464 -19.20337
 Alpha  occ. eigenvalues --  -19.19560 -19.19471 -19.19167 -19.19092 -19.17694
 Alpha  occ. eigenvalues --  -14.42087 -14.41810 -14.41806 -14.41751 -14.40107
 Alpha  occ. eigenvalues --  -14.39382 -14.39350 -14.39297 -10.39573 -10.38992
 Alpha  occ. eigenvalues --  -10.36119 -10.35346 -10.35134 -10.33360 -10.32200
 Alpha  occ. eigenvalues --  -10.31702 -10.31541 -10.30989 -10.30790 -10.30693
 Alpha  occ. eigenvalues --  -10.30665 -10.30507 -10.30507 -10.30402 -10.30360
 Alpha  occ. eigenvalues --  -10.30330 -10.30040 -10.30005 -10.29700 -10.29390
 Alpha  occ. eigenvalues --  -10.29372 -10.29083 -10.28847 -10.28824 -10.28676
 Alpha  occ. eigenvalues --  -10.28603 -10.28533 -10.28407 -10.28157 -10.28117
 Alpha  occ. eigenvalues --  -10.28084 -10.28009 -10.27886 -10.27851 -10.27794
 Alpha  occ. eigenvalues --  -10.27775 -10.27734 -10.27699 -10.27659 -10.27651
 Alpha  occ. eigenvalues --  -10.27560 -10.27511 -10.27054 -10.27041 -10.26818
 Alpha  occ. eigenvalues --  -10.26773 -10.26728 -10.26633 -10.26551 -10.26542
 Alpha  occ. eigenvalues --  -10.26526 -10.26512 -10.26362 -10.26346 -10.26277
 Alpha  occ. eigenvalues --  -10.26272 -10.26260 -10.26242 -10.26208 -10.25862
 Alpha  occ. eigenvalues --  -10.25821 -10.25726 -10.25679 -10.25331 -10.25021
 Alpha  occ. eigenvalues --  -10.24417  -3.17732  -3.16982  -1.92624  -1.92181
 Alpha  occ. eigenvalues --   -1.92046  -1.91881  -1.91453  -1.91272  -1.17688
 Alpha  occ. eigenvalues --   -1.15578  -1.11594  -1.10410  -1.09877  -1.08084
 Alpha  occ. eigenvalues --   -1.07984  -1.06556  -1.05747  -1.05310  -1.04405
 Alpha  occ. eigenvalues --   -1.04159  -1.03895  -1.03129  -1.02975  -1.02152
 Alpha  occ. eigenvalues --   -0.93098  -0.91289  -0.89935  -0.89448  -0.88751
 Alpha  occ. eigenvalues --   -0.88745  -0.88619  -0.88189  -0.87574  -0.87385
 Alpha  occ. eigenvalues --   -0.87176  -0.87020  -0.86509  -0.85757  -0.84209
 Alpha  occ. eigenvalues --   -0.84146  -0.83807  -0.83349  -0.82506  -0.82382
 Alpha  occ. eigenvalues --   -0.82187  -0.81837  -0.81502  -0.81127  -0.80357
 Alpha  occ. eigenvalues --   -0.80059  -0.78555  -0.78071  -0.77575  -0.77432
 Alpha  occ. eigenvalues --   -0.76903  -0.76760  -0.76118  -0.75952  -0.75588
 Alpha  occ. eigenvalues --   -0.75371  -0.72761  -0.72653  -0.72084  -0.71705
 Alpha  occ. eigenvalues --   -0.70341  -0.69459  -0.69131  -0.68962  -0.68185
 Alpha  occ. eigenvalues --   -0.67729  -0.67597  -0.66279  -0.65863  -0.65268
 Alpha  occ. eigenvalues --   -0.64995  -0.64908  -0.64482  -0.64377  -0.64233
 Alpha  occ. eigenvalues --   -0.63964  -0.62654  -0.62450  -0.60751  -0.60583
 Alpha  occ. eigenvalues --   -0.59728  -0.59676  -0.59243  -0.58901  -0.58901
 Alpha  occ. eigenvalues --   -0.58657  -0.58221  -0.58007  -0.57995  -0.57457
 Alpha  occ. eigenvalues --   -0.56331  -0.56304  -0.56214  -0.55729  -0.55682
 Alpha  occ. eigenvalues --   -0.55424  -0.55163  -0.54558  -0.54303  -0.54212
 Alpha  occ. eigenvalues --   -0.53760  -0.53713  -0.53603  -0.53421  -0.53044
 Alpha  occ. eigenvalues --   -0.52824  -0.52590  -0.52471  -0.52385  -0.52184
 Alpha  occ. eigenvalues --   -0.52157  -0.51888  -0.51702  -0.51208  -0.51133
 Alpha  occ. eigenvalues --   -0.50841  -0.50796  -0.50727  -0.50504  -0.50224
 Alpha  occ. eigenvalues --   -0.50065  -0.49990  -0.49810  -0.49768  -0.49713
 Alpha  occ. eigenvalues --   -0.49637  -0.49403  -0.49388  -0.49386  -0.49065
 Alpha  occ. eigenvalues --   -0.48987  -0.48854  -0.48594  -0.48313  -0.48217
 Alpha  occ. eigenvalues --   -0.48187  -0.48059  -0.47814  -0.47718  -0.47679
 Alpha  occ. eigenvalues --   -0.47321  -0.46926  -0.46805  -0.46702  -0.46630
 Alpha  occ. eigenvalues --   -0.46404  -0.46160  -0.46036  -0.45988  -0.45913
 Alpha  occ. eigenvalues --   -0.45662  -0.45286  -0.45093  -0.45003  -0.44815
 Alpha  occ. eigenvalues --   -0.44715  -0.44540  -0.44425  -0.44152  -0.44026
 Alpha  occ. eigenvalues --   -0.43943  -0.43883  -0.43612  -0.43439  -0.43340
 Alpha  occ. eigenvalues --   -0.43058  -0.42941  -0.42936  -0.42781  -0.42773
 Alpha  occ. eigenvalues --   -0.42385  -0.42230  -0.42168  -0.42064  -0.42039
 Alpha  occ. eigenvalues --   -0.42007  -0.41950  -0.41857  -0.41649  -0.41548
 Alpha  occ. eigenvalues --   -0.41514  -0.41115  -0.41067  -0.40859  -0.40446
 Alpha  occ. eigenvalues --   -0.40308  -0.39632  -0.39513  -0.39294  -0.39111
 Alpha  occ. eigenvalues --   -0.38473  -0.38286  -0.38033  -0.37889  -0.37590
 Alpha  occ. eigenvalues --   -0.37210  -0.37072  -0.36701  -0.36468  -0.36226
 Alpha  occ. eigenvalues --   -0.35976  -0.35929  -0.35213  -0.34307  -0.34038
 Alpha  occ. eigenvalues --   -0.34023  -0.33424  -0.33379  -0.31990  -0.31657
 Alpha  occ. eigenvalues --   -0.31129  -0.31088  -0.30612  -0.30497  -0.29989
 Alpha  occ. eigenvalues --   -0.29899  -0.29688  -0.29440  -0.23935  -0.23888
 Alpha  occ. eigenvalues --   -0.21175  -0.21126
 Alpha virt. eigenvalues --   -0.08573  -0.08514  -0.01966  -0.01792   0.00111
 Alpha virt. eigenvalues --    0.00553   0.01876   0.02530   0.02533   0.02949
 Alpha virt. eigenvalues --    0.04877   0.05256   0.05658   0.05771   0.05987

 Mulliken charges:
               1
     1  Mg   0.826019
     2  C   -0.012335
     3  C   -0.069448
     4  C   -0.074848
     5  C   -0.110712
     6  N   -0.226797
     7  C   -0.083412
     8  C   -0.038279
     9  C   -0.040603
    10  C    0.001477
    11  C    0.086710
    12  C    0.038267
    13  C   -0.033815
    14  H    0.029925
    15  N   -0.395501
    16  C    0.163729
    17  C   -0.171072
    18  C   -0.041608
    19  C    0.168796
    20  C    0.109764
    21  C    0.017420
    22  O   -0.181255
    23  C    0.052822
    24  N   -0.266011
    25  C   -0.012116
    26  C   -0.046945
    27  C   -0.006085
    28  C    0.066899
    29  C    0.083989
    30  C    0.038621
    31  C   -0.018458
    32  N   -0.393971
    33  C    0.127038
    34  C   -0.170454
    35  C    0.015080
    36  C    0.149490
    37  C    0.114093
    38  C    0.076183
    39  O   -0.199694
    40  C   -0.076706
    41  C    0.177564
    42  O   -0.154432
    43  O   -0.338204
    44  C    0.149804
    45  H   -0.021869
    46  H   -0.018141
    47  H   -0.032704
    48  H   -0.002337
    49  H   -0.001969
    50  H    0.017156
    51  H    0.023393
    52  H    0.017809
    53  H    0.001329
    54  H    0.042169
    55  H    0.018806
    56  H    0.015731
    57  H    0.037088
    58  H    0.036475
    59  H    0.006317
    60  H    0.032852
    61  H   -0.000019
    62  H    0.047081
    63  H    0.021908
    64  H    0.003757
    65  H    0.024845
    66  H    0.026083
    67  H    0.031754
    68  H    0.004487
    69  H    0.015923
    70  H    0.010716
    71  H    0.010268
    72  H    0.020172
    73  H    0.037336
    74  H    0.019510
    75  H    0.024890
    76  H    0.054798
    77  H    0.050914
    78  H    0.046055
    79  H    0.046490
    80  Mg   0.832143
    81  C   -0.058938
    82  C   -0.068413
    83  C   -0.048432
    84  C   -0.064208
    85  N   -0.282691
    86  C   -0.070722
    87  C    0.037187
    88  C   -0.103325
    89  C    0.096681
    90  C    0.074362
    91  C    0.030380
    92  C   -0.078900
    93  H   -0.000468
    94  N   -0.351741
    95  C    0.093642
    96  C   -0.163058
    97  C   -0.023588
    98  C    0.114218
    99  C    0.115787
   100  C    0.042802
   101  O   -0.195728
   102  C    0.027086
   103  N   -0.202751
   104  C   -0.029799
   105  C   -0.063753
   106  C   -0.010495
   107  C   -0.014888
   108  C    0.083979
   109  C    0.049298
   110  C   -0.014707
   111  N   -0.364391
   112  C    0.117933
   113  C   -0.165028
   114  C   -0.033226
   115  C    0.166939
   116  C    0.154758
   117  C    0.031431
   118  O   -0.204085
   119  C    0.011462
   120  C    0.227303
   121  O   -0.237194
   122  O   -0.334636
   123  C    0.179437
   124  H   -0.045475
   125  H    0.005828
   126  H   -0.021609
   127  H    0.012717
   128  H    0.012075
   129  H    0.012092
   130  H    0.020257
   131  H    0.026630
   132  H    0.007794
   133  H    0.051227
   134  H    0.027625
   135  H    0.042513
   136  H    0.007448
   137  H    0.029832
   138  H    0.019362
   139  H    0.028847
   140  H    0.041844
   141  H    0.025839
   142  H    0.012645
   143  H   -0.000579
   144  H    0.024265
   145  H    0.022875
   146  H    0.008032
   147  H    0.006271
   148  H    0.012207
   149  H    0.013263
   150  H    0.012289
   151  H    0.019544
   152  H   -0.002830
   153  H    0.041569
   154  H    0.058697
   155  H    0.040294
   156  H    0.041127
   157  H    0.045309
   158  H    0.038512
 Sum of Mulliken charges =  -0.00000

 Dipole moment (field-independent basis, Debye):
    X=             -3.3203    Y=              0.1957    Z=              3.2279  Tot=              4.6349
 Quadrupole moment (field-independent basis, Debye-Ang):
   XX=           -699.8006   YY=           -482.5563   ZZ=           -514.4398
   XY=              8.7132   XZ=            -65.7135   YZ=             52.6882

 Normal termination of Gaussian 16 at Wed Sep 15 01:33:59 2021.
