 Gaussian 16, Revision A.03,
 Gaussian 16:  ES64L-G16RevA.03 25-Dec-2016

 -----------------------------------
 #p cam-b3lyp/Def2SVP td=(nstates=5)
 -----------------------------------

 --------------------------------
 TDDFT excited states in gaussian
 --------------------------------
 Symbolic Z-matrix:
 Charge =  0 Multiplicity = 1

                         Standard orientation:
 ---------------------------------------------------------------------
 Center     Atomic      Atomic             Coordinates (Angstroms)
 Number     Number       Type             X           Y           Z
 ---------------------------------------------------------------------
      1         12           0      -21.435444   -0.791956   -0.312144
      2          6           0      -23.013933    2.131482    1.059142
      3          6           0      -19.502794    1.443414   -2.271448
      4          6           0      -19.866455   -3.493171   -1.873561
      5          6           0      -23.574931   -2.800201    1.284680
      6          7           0      -21.465460    1.599039   -0.689814
      7          6           0      -22.100972    2.516961    0.069692
      8          6           0      -21.777525    3.962127   -0.454769
      9          6           0      -20.818592    3.623163   -1.651513
     10          6           0      -20.490899    2.119414   -1.505591
     11          6           0      -21.442350    3.999719   -3.040649
     12          6           0      -21.119927    4.856019    0.596321
     13          6           0      -21.632067    6.256108    0.686142
     14          1           0      -21.083257    7.174620    1.787522
     15          7           0      -19.796530   -1.027791   -1.669529
     16          6           0      -19.171526    0.012910   -2.348459
     17          6           0      -18.121416   -0.553625   -3.171439
     18          6           0      -18.121223   -1.929699   -3.013989
     19          6           0      -19.353762   -2.224714   -2.208260
     20          6           0      -17.285689    0.224218   -4.146954
     21          6           0      -17.223389   -3.054790   -3.673894
     22          8           0      -17.281336   -4.246084   -3.490659
     23          6           0      -16.037035   -2.632661   -4.513309
     24          7           0      -21.744869   -2.789075   -0.437997
     25          6           0      -21.025681   -3.746511   -1.104687
     26          6           0      -21.701398   -5.136123   -1.039606
     27          6           0      -22.729258   -4.964504    0.158485
     28          6           0      -22.653708   -3.404451    0.371053
     29          6           0      -22.324614   -5.576963   -2.402624
     30          6           0      -22.364849   -5.767468    1.444207
     31          6           0      -21.116809   -5.296408    2.187383
     32          7           0      -22.980194   -0.491615    0.879695
     33          6           0      -23.784649   -1.444836    1.564178
     34          6           0      -24.786154   -0.773355    2.389600
     35          6           0      -24.479029    0.592703    2.256705
     36          6           0      -23.387942    0.731837    1.358544
     37          6           0      -25.804228   -1.423989    3.205819
     38          6           0      -24.919881    1.906080    2.715388
     39          8           0      -25.780382    2.194751    3.530058
     40          6           0      -24.041858    2.989494    1.886023
     41          6           0      -23.489370    3.814890    3.050570
     42          8           0      -22.616270    3.496555    3.877906
     43          8           0      -24.144632    4.961278    3.107349
     44          6           0      -23.609035    6.080624    3.983775
     45          1           0      -18.863365    2.142616   -2.813752
     46          1           0      -19.441078   -4.397572   -2.315510
     47          1           0      -24.190952   -3.515955    1.832472
     48          1           0      -22.755295    4.391426   -0.670728
     49          1           0      -19.860444    4.136026   -1.557565
     50          1           0      -20.846342    4.662476   -3.668044
     51          1           0      -22.485728    4.311483   -2.989409
     52          1           0      -21.508175    3.193471   -3.771563
     53          1           0      -20.176177    5.091921    0.104285
     54          1           0      -20.956800    4.351110    1.549094
     55          1           0      -22.706918    6.442584    0.711664
     56          1           0      -21.294129    6.697855   -0.251344
     57          1           0      -17.437949    1.297233   -4.033391
     58          1           0      -17.455039   -0.015533   -5.197841
     59          1           0      -16.206774    0.118267   -4.032557
     60          1           0      -15.320523   -2.035616   -3.949279
     61          1           0      -16.528978   -2.106782   -5.331627
     62          1           0      -15.685368   -3.574491   -4.934521
     63          1           0      -20.865834   -5.819896   -0.885887
     64          1           0      -23.791756   -5.008424   -0.081844
     65          1           0      -21.792584   -6.412574   -2.857300
     66          1           0      -22.500269   -4.813232   -3.159416
     67          1           0      -23.322861   -5.876668   -2.083079
     68          1           0      -22.474094   -6.826165    1.208571
     69          1           0      -23.173123   -5.614762    2.159180
     70          1           0      -20.534306   -4.518585    1.694982
     71          1           0      -20.474907   -6.173923    2.260947
     72          1           0      -21.292386   -4.796059    3.139014
     73          1           0      -26.465716   -0.745858    3.745339
     74          1           0      -25.247074   -2.045412    3.906788
     75          1           0      -26.374833   -2.084866    2.551781
     76          1           0      -24.665489    3.692065    1.333260
     77          1           0      -24.097594    6.989046    3.630691
     78          1           0      -22.541841    6.252720    3.847175
     79          1           0      -23.754038    5.905092    5.050365
     80         12           0       21.324758   -0.660205    0.515632
     81          6           0       21.035369    2.092781   -1.758604
     82          6           0       21.868346    1.761283    3.022519
     83          6           0       22.317667   -3.007508    2.567086
     84          6           0       21.133620   -2.799237   -2.120743
     85          7           0       21.380144    1.651677    0.590186
     86          6           0       21.123263    2.471111   -0.457592
     87          6           0       21.025751    3.898438    0.055307
     88          6           0       21.254822    3.872991    1.592851
     89          6           0       21.483520    2.359936    1.773248
     90          6           0       22.481813    4.827483    2.088306
     91          6           0       19.623941    4.573085   -0.266573
     92          6           0       19.663005    5.977236   -0.870542
     93          1           0       20.802910    7.001231   -0.479524
     94          7           0       22.057105   -0.619234    2.523546
     95          6           0       22.161725    0.420233    3.324125
     96          6           0       22.672541   -0.054941    4.579006
     97          6           0       22.695122   -1.472707    4.585892
     98          6           0       22.392022   -1.747915    3.205847
     99          6           0       22.828776    0.847665    5.801730
    100          6           0       22.868996   -2.528066    5.666804
    101          8           0       22.920788   -3.720384    5.426568
    102          6           0       22.913627   -2.022994    7.082731
    103          7           0       22.010811   -2.556751    0.156008
    104          6           0       22.179386   -3.418845    1.241122
    105          6           0       22.137094   -4.918415    0.839870
    106          6           0       21.593184   -4.768574   -0.630866
    107          6           0       21.567256   -3.264358   -0.901768
    108          6           0       23.524017   -5.562131    0.981415
    109          6           0       20.098525   -5.312354   -0.819478
    110          6           0       19.897260   -6.606838   -1.533486
    111          7           0       21.017990   -0.451817   -1.468252
    112          6           0       20.996735   -1.434793   -2.433990
    113          6           0       20.902357   -0.896329   -3.788391
    114          6           0       20.908282    0.528729   -3.577786
    115          6           0       21.103282    0.734657   -2.191622
    116          6           0       20.634013   -1.717333   -4.997474
    117          6           0       20.746907    1.826802   -4.214578
    118          8           0       20.533735    2.050393   -5.420144
    119          6           0       20.855649    2.946150   -3.030248
    120          6           0       22.018653    3.746077   -3.380516
    121          8           0       23.125640    3.284944   -3.553380
    122          8           0       21.710778    5.045118   -3.473647
    123          6           0       22.715823    6.077468   -3.878481
    124          1           0       21.969730    2.465671    3.850674
    125          1           0       22.220444   -3.864909    3.237290
    126          1           0       20.992964   -3.526552   -2.922705
    127          1           0       21.839839    4.458334   -0.405022
    128          1           0       20.409828    4.293577    2.138269
    129          1           0       22.680289    5.613760    1.359904
    130          1           0       23.326904    4.149925    2.212843
    131          1           0       22.238982    5.263569    3.057170
    132          1           0       18.918701    4.592251    0.563184
    133          1           0       19.107296    3.979885   -1.020991
    134          1           0       18.724673    6.509028   -0.711559
    135          1           0       19.683877    5.774426   -1.941311
    136          1           0       21.990411    0.806394    6.497300
    137          1           0       23.095009    1.866367    5.518219
    138          1           0       23.719443    0.495664    6.321727
    139          1           0       22.204589   -1.227879    7.315252
    140          1           0       23.883487   -1.644867    7.402954
    141          1           0       22.518322   -2.794362    7.743712
    142          1           0       21.435997   -5.412704    1.511807
    143          1           0       22.263876   -5.318099   -1.291522
    144          1           0       24.257502   -4.945688    1.500941
    145          1           0       23.971679   -5.770109    0.010224
    146          1           0       23.425796   -6.511840    1.508272
    147          1           0       19.431009   -4.638876   -1.356989
    148          1           0       19.560760   -5.394808    0.124320
    149          1           0       19.464029   -7.344950   -0.859711
    150          1           0       20.910243   -6.882870   -1.826944
    151          1           0       19.223050   -6.475322   -2.379745
    152          1           0       20.014192   -1.178774   -5.713521
    153          1           0       20.238359   -2.667155   -4.638230
    154          1           0       21.601874   -1.910884   -5.461969
    155          1           0       19.976866    3.588883   -2.999843
    156          1           0       23.217827    5.754446   -4.790673
    157          1           0       23.479936    6.240044   -3.117951
    158          1           0       22.303558    7.082982   -3.957966
 ---------------------------------------------------------------------

 SCF Done:  E(RCAM-B3LYP) =  -4069.79045710     A.U. after   17 cycles

 Excitation energies and oscillator strengths:

 Excited State   1:      Singlet-A      1.6510 eV  750.98 nm  f=0.3635  <S**2>=0.000
     309 -> 315       -0.18395
     312 -> 314        0.68510
     309 <- 315       -0.11253
 This state for optimization and/or second-order correction.
 Total Energy, E(TD-HF/TD-DFT) =  -4069.72978558
 Copying the excited state density for this state as the 1-particle RhoCI density.

 Excited State   2:      Singlet-A      1.6835 eV  736.48 nm  f=0.4088  <S**2>=0.000
     310 -> 316       -0.17293
     311 -> 313        0.68694
     310 <- 316       -0.10715

 Excited State   3:      Singlet-A      2.1993 eV  563.73 nm  f=0.1309  <S**2>=0.000
     310 -> 313        0.65024
     311 -> 316        0.26298

 Excited State   4:      Singlet-A      2.2173 eV  559.16 nm  f=0.0924  <S**2>=0.000
     309 -> 314        0.62582
     312 -> 315        0.32031

 Excited State   5:      Singlet-A      3.1144 eV  398.10 nm  f=0.0000  <S**2>=0.000
     312 -> 313        0.70710

 The electronic state is 1-A.
 Alpha  occ. eigenvalues --  -46.88630 -46.88303 -19.25273 -19.24950 -19.19538
 Alpha  occ. eigenvalues --  -19.19525 -19.19373 -19.19023 -19.18529 -19.18009
 Alpha  occ. eigenvalues --  -14.42468 -14.41889 -14.41722 -14.41559 -14.40113
 Alpha  occ. eigenvalues --  -14.39687 -14.39384 -14.39097 -10.38512 -10.38474
 Alpha  occ. eigenvalues --  -10.35796 -10.35599 -10.35471 -10.35400 -10.32552
 Alpha  occ. eigenvalues --  -10.32214 -10.31413 -10.31380 -10.31342 -10.31247
 Alpha  occ. eigenvalues --  -10.31096 -10.31048 -10.30753 -10.30637 -10.30528
 Alpha  occ. eigenvalues --  -10.30279 -10.30011 -10.29922 -10.29659 -10.29594
 Alpha  occ. eigenvalues --  -10.29188 -10.29036 -10.28877 -10.28786 -10.28760
 Alpha  occ. eigenvalues --  -10.28751 -10.28606 -10.28576 -10.28424 -10.28420
 Alpha  occ. eigenvalues --  -10.28375 -10.28367 -10.28297 -10.28218 -10.28191
 Alpha  occ. eigenvalues --  -10.28147 -10.28029 -10.27944 -10.27806 -10.27737
 Alpha  occ. eigenvalues --  -10.27627 -10.27542 -10.27295 -10.27096 -10.27017
 Alpha  occ. eigenvalues --  -10.26899 -10.26843 -10.26669 -10.26624 -10.26581
 Alpha  occ. eigenvalues --  -10.26437 -10.26235 -10.26230 -10.26105 -10.26078
 Alpha  occ. eigenvalues --  -10.26077 -10.26066 -10.26027 -10.25816 -10.25719
 Alpha  occ. eigenvalues --  -10.25587 -10.25578 -10.25472 -10.25430 -10.25411
 Alpha  occ. eigenvalues --  -10.25030  -3.17258  -3.16993  -1.92124  -1.91879
 Alpha  occ. eigenvalues --   -1.91719  -1.91569  -1.91465  -1.91298  -1.16571
 Alpha  occ. eigenvalues --   -1.15952  -1.11463  -1.10854  -1.10044  -1.08449
 Alpha  occ. eigenvalues --   -1.07380  -1.05294  -1.04659  -1.03798  -1.03519
 Alpha  occ. eigenvalues --   -1.03154  -1.03136  -1.02226  -1.01895  -1.01711
 Alpha  occ. eigenvalues --   -0.92173  -0.90872  -0.89264  -0.88758  -0.88645
 Alpha  occ. eigenvalues --   -0.88274  -0.88108  -0.88005  -0.87364  -0.87118
 Alpha  occ. eigenvalues --   -0.87031  -0.86964  -0.86457  -0.86417  -0.84238
 Alpha  occ. eigenvalues --   -0.84134  -0.84130  -0.83591  -0.82675  -0.82375
 Alpha  occ. eigenvalues --   -0.81843  -0.81517  -0.81297  -0.81038  -0.80707
 Alpha  occ. eigenvalues --   -0.80175  -0.78275  -0.78143  -0.77685  -0.77313
 Alpha  occ. eigenvalues --   -0.76964  -0.76877  -0.76289  -0.75987  -0.75134
 Alpha  occ. eigenvalues --   -0.74852  -0.72603  -0.72496  -0.71656  -0.71426
 Alpha  occ. eigenvalues --   -0.70076  -0.68761  -0.68761  -0.67810  -0.67660
 Alpha  occ. eigenvalues --   -0.67546  -0.66986  -0.66287  -0.65567  -0.65489
 Alpha  occ. eigenvalues --   -0.65173  -0.65128  -0.64634  -0.64578  -0.64511
 Alpha  occ. eigenvalues --   -0.64066  -0.62435  -0.61788  -0.60512  -0.59604
 Alpha  occ. eigenvalues --   -0.59287  -0.59240  -0.58949  -0.58828  -0.58501
 Alpha  occ. eigenvalues --   -0.58054  -0.57713  -0.57483  -0.57372  -0.56249
 Alpha  occ. eigenvalues --   -0.56093  -0.55769  -0.55652  -0.55500  -0.55174
 Alpha  occ. eigenvalues --   -0.55034  -0.54675  -0.54377  -0.53974  -0.53512
 Alpha  occ. eigenvalues --   -0.53340  -0.53328  -0.53224  -0.53001  -0.52926
 Alpha  occ. eigenvalues --   -0.52903  -0.52729  -0.52630  -0.52435  -0.52372
 Alpha  occ. eigenvalues --   -0.52129  -0.52105  -0.51529  -0.51297  -0.51202
 Alpha  occ. eigenvalues --   -0.50976  -0.50902  -0.50599  -0.50538  -0.50121
 Alpha  occ. eigenvalues --   -0.50082  -0.49983  -0.49809  -0.49615  -0.49297
 Alpha  occ. eigenvalues --   -0.49275  -0.49236  -0.49039  -0.48961  -0.48765
 Alpha  occ. eigenvalues --   -0.48662  -0.48579  -0.48447  -0.48409  -0.48155
 Alpha  occ. eigenvalues --   -0.48141  -0.47729  -0.47531  -0.47461  -0.47440
 Alpha  occ. eigenvalues --   -0.46754  -0.46735  -0.46664  -0.46614  -0.46350
 Alpha  occ. eigenvalues --   -0.46204  -0.46193  -0.46129  -0.45901  -0.45839
 Alpha  occ. eigenvalues --   -0.45512  -0.45316  -0.45247  -0.45111  -0.44921
 Alpha  occ. eigenvalues --   -0.44521  -0.44421  -0.44247  -0.44169  -0.43976
 Alpha  occ. eigenvalues --   -0.43834  -0.43650  -0.43604  -0.43539  -0.43308
 Alpha  occ. eigenvalues --   -0.43165  -0.43028  -0.42999  -0.42977  -0.42769
 Alpha  occ. eigenvalues --   -0.42620  -0.42506  -0.42483  -0.42155  -0.41855
 Alpha  occ. eigenvalues --   -0.41823  -0.41527  -0.41425  -0.41418  -0.41300
 Alpha  occ. eigenvalues --   -0.41020  -0.40920  -0.40561  -0.40375  -0.40302
 Alpha  occ. eigenvalues --   -0.40196  -0.39730  -0.39590  -0.39337  -0.39210
 Alpha  occ. eigenvalues --   -0.38642  -0.38403  -0.38058  -0.37931  -0.37530
 Alpha  occ. eigenvalues --   -0.36984  -0.36632  -0.36563  -0.36232  -0.36160
 Alpha  occ. eigenvalues --   -0.36065  -0.35646  -0.34465  -0.33914  -0.33774
 Alpha  occ. eigenvalues --   -0.33135  -0.33020  -0.32737  -0.31704  -0.31448
 Alpha  occ. eigenvalues --   -0.31249  -0.30994  -0.30807  -0.30751  -0.30365
 Alpha  occ. eigenvalues --   -0.30097  -0.29991  -0.29404  -0.24116  -0.23842
 Alpha  occ. eigenvalues --   -0.20971  -0.20966
 Alpha virt. eigenvalues --   -0.08729  -0.08708  -0.02041  -0.01128   0.00106
 Alpha virt. eigenvalues --    0.00646   0.01769   0.02066   0.02382   0.03399
 Alpha virt. eigenvalues --    0.04755   0.05146   0.05256   0.05511   0.06024

 Mulliken charges:
               1
     1  Mg   0.847219
     2  C    0.045336
     3  C   -0.060546
     4  C   -0.047716
     5  C   -0.098781
     6  N   -0.248857
     7  C   -0.052976
     8  C   -0.041257
     9  C   -0.032683
    10  C    0.025034
    11  C    0.061885
    12  C    0.091694
    13  C   -0.097200
    14  H    0.015870
    15  N   -0.370684
    16  C    0.163348
    17  C   -0.136143
    18  C   -0.047604
    19  C    0.113927
    20  C    0.100989
    21  C    0.008294
    22  O   -0.184749
    23  C    0.055711
    24  N   -0.324669
    25  C    0.018143
    26  C   -0.032840
    27  C   -0.028933
    28  C    0.038290
    29  C    0.074274
    30  C    0.042189
    31  C    0.003858
    32  N   -0.436326
    33  C    0.150815
    34  C   -0.152935
    35  C    0.006756
    36  C    0.125968
    37  C    0.128412
    38  C    0.055359
    39  O   -0.163317
    40  C   -0.066588
    41  C    0.185925
    42  O   -0.258993
    43  O   -0.310138
    44  C    0.186780
    45  H   -0.026641
    46  H   -0.004526
    47  H   -0.031258
    48  H    0.015154
    49  H    0.010143
    50  H    0.011130
    51  H    0.016507
    52  H    0.004611
    53  H   -0.000470
    54  H    0.045797
    55  H    0.027011
    56  H    0.015948
    57  H   -0.001697
    58  H    0.033580
    59  H    0.015856
    60  H    0.054900
    61  H    0.014253
    62  H    0.026520
    63  H    0.013898
    64  H    0.017101
    65  H    0.026046
    66  H    0.025190
    67  H    0.002886
    68  H    0.013567
    69  H   -0.002116
    70  H    0.021586
    71  H    0.022756
    72  H    0.019880
    73  H    0.040185
    74  H    0.029336
    75  H    0.022008
    76  H    0.037326
    77  H    0.039498
    78  H    0.037701
    79  H    0.054194
    80  Mg   0.829335
    81  C   -0.027443
    82  C   -0.081364
    83  C   -0.048343
    84  C   -0.097989
    85  N   -0.248722
    86  C   -0.030234
    87  C    0.007208
    88  C   -0.059265
    89  C    0.026569
    90  C    0.039528
    91  C    0.031808
    92  C   -0.059018
    93  H    0.004047
    94  N   -0.302856
    95  C    0.146127
    96  C   -0.168993
    97  C   -0.020029
    98  C    0.093336
    99  C    0.099917
   100  C    0.033802
   101  O   -0.186969
   102  C    0.024083
   103  N   -0.332268
   104  C   -0.001089
   105  C   -0.024809
   106  C   -0.002660
   107  C    0.080353
   108  C    0.078535
   109  C   -0.015175
   110  C    0.023911
   111  N   -0.395347
   112  C    0.148601
   113  C   -0.178809
   114  C    0.024800
   115  C    0.119068
   116  C    0.137497
   117  C    0.044576
   118  O   -0.191641
   119  C    0.008851
   120  C    0.183307
   121  O   -0.215304
   122  O   -0.324728
   123  C    0.186194
   124  H   -0.034532
   125  H   -0.001820
   126  H   -0.023803
   127  H    0.020285
   128  H    0.020906
   129  H    0.027646
   130  H    0.023997
   131  H    0.016044
   132  H    0.005681
   133  H    0.004816
   134  H    0.020157
   135  H    0.032990
   136  H    0.044427
   137  H    0.015527
   138  H    0.008543
   139  H    0.015416
   140  H    0.052148
   141  H    0.023576
   142  H    0.017660
   143  H    0.012707
   144  H    0.031335
   145  H    0.004854
   146  H    0.019367
   147  H    0.006154
   148  H   -0.004162
   149  H    0.014285
   150  H    0.005120
   151  H    0.017075
   152  H    0.042106
   153  H    0.016893
   154  H    0.031354
   155  H    0.029665
   156  H    0.052777
   157  H    0.029866
   158  H    0.042539
 Sum of Mulliken charges =  -0.00000

 Dipole moment (field-independent basis, Debye):
    X=             -1.2548    Y=              1.9464    Z=              0.1969  Tot=              2.3242
 Quadrupole moment (field-independent basis, Debye-Ang):
   XX=           -662.3939   YY=           -458.3416   ZZ=           -530.4178
   XY=             43.1503   XZ=            172.9315   YZ=              4.8286

 Normal termination of Gaussian 16 at Wed Sep 15 09:25:53 2021.
