 Gaussian 16, Revision A.03,
 Gaussian 16:  ES64L-G16RevA.03 25-Dec-2016

 ----------------------------------------------------------
 #p cam-b3lyp/Def2SVP td=(nstates=5) density=(transition=1)
 ----------------------------------------------------------

 --------------------------------
 TDDFT excited states in gaussian
 --------------------------------
 Symbolic Z-matrix:
 Charge =  0 Multiplicity = 1

                         Standard orientation:
 ---------------------------------------------------------------------
 Center     Atomic      Atomic             Coordinates (Angstroms)
 Number     Number       Type             X           Y           Z
 ---------------------------------------------------------------------
      1         12           0      -17.880904   -0.690360    0.186682
      2          6           0      -17.771477    2.732999   -0.638870
      3          6           0      -16.902303    0.085786    3.344313
      4          6           0      -17.889207   -3.998323    0.891846
      5          6           0      -18.438864   -1.413850   -3.163509
      6          7           0      -17.305106    1.147402    1.194357
      7          6           0      -17.446412    2.446000    0.697526
      8          6           0      -17.212712    3.429893    1.804284
      9          6           0      -16.483098    2.571480    2.864736
     10          6           0      -16.931186    1.149722    2.438341
     11          6           0      -14.923731    2.641210    2.900832
     12          6           0      -18.496271    4.146938    2.369332
     13          6           0      -18.362454    5.629080    2.518172
     14          1           0      -18.881967    6.238037    3.833947
     15          7           0      -17.562409   -1.746835    1.877591
     16          6           0      -17.246939   -1.241084    3.149692
     17          6           0      -17.177500   -2.293003    4.083822
     18          6           0      -17.476928   -3.556720    3.386908
     19          6           0      -17.668356   -3.142355    2.026319
     20          6           0      -16.727226   -2.171622    5.510301
     21          6           0      -17.499998   -5.072198    3.868243
     22          8           0      -17.800652   -5.960515    3.106535
     23          6           0      -17.245152   -5.436034    5.324006
     24          7           0      -18.021415   -2.460441   -1.001817
     25          6           0      -17.975437   -3.701589   -0.452328
     26          6           0      -18.100485   -4.817479   -1.596668
     27          6           0      -18.581315   -3.977621   -2.859820
     28          6           0      -18.333184   -2.503021   -2.325416
     29          6           0      -16.816791   -5.637766   -1.902241
     30          6           0      -20.075957   -4.228447   -3.270653
     31          6           0      -20.188792   -4.584343   -4.693432
     32          7           0      -18.022216    0.401834   -1.565382
     33          6           0      -18.362947   -0.024586   -2.848132
     34          6           0      -18.473716    1.108483   -3.725937
     35          6           0      -18.223871    2.195174   -2.912885
     36          6           0      -17.990346    1.754815   -1.648322
     37          6           0      -18.891456    0.973693   -5.213512
     38          6           0      -18.089650    3.640071   -2.884894
     39          8           0      -18.096751    4.408072   -3.821589
     40          6           0      -17.758033    4.056648   -1.366687
     41          6           0      -16.461034    4.757140   -1.335581
     42          8           0      -15.375620    4.266607   -1.743448
     43          8           0      -16.661451    6.010606   -0.836108
     44          6           0      -15.544791    6.958204   -1.093299
     45          1           0      -16.545378    0.406310    4.325256
     46          1           0      -17.894920   -5.081569    1.028474
     47          1           0      -18.543250   -1.661263   -4.221496
     48          1           0      -16.483717    4.204421    1.562956
     49          1           0      -16.783746    2.795969    3.888266
     50          1           0      -14.518596    3.619838    2.640134
     51          1           0      -14.557431    1.871751    2.220739
     52          1           0      -14.456954    2.327287    3.834118
     53          1           0      -18.702391    3.647967    3.316053
     54          1           0      -19.377872    3.923930    1.767667
     55          1           0      -18.917055    5.975311    1.645881
     56          1           0      -17.307502    5.902861    2.511139
     57          1           0      -17.512027   -2.255445    6.262395
     58          1           0      -16.338665   -1.167753    5.676871
     59          1           0      -15.947265   -2.844309    5.866018
     60          1           0      -17.462451   -6.500671    5.401017
     61          1           0      -17.787755   -4.778568    6.003915
     62          1           0      -16.238198   -5.129351    5.608518
     63          1           0      -18.796296   -5.595115   -1.281238
     64          1           0      -17.909719   -4.196675   -3.691262
     65          1           0      -15.912072   -5.340467   -1.370942
     66          1           0      -16.538102   -5.619125   -2.956142
     67          1           0      -17.040432   -6.673046   -1.643418
     68          1           0      -20.631217   -3.298774   -3.140713
     69          1           0      -20.566452   -5.036845   -2.728819
     70          1           0      -20.290523   -5.667037   -4.772290
     71          1           0      -19.431978   -4.228116   -5.391419
     72          1           0      -21.064631   -4.094210   -5.118752
     73          1           0      -19.346804   -0.005308   -5.364784
     74          1           0      -18.070422    1.229511   -5.884823
     75          1           0      -19.690041    1.705355   -5.330337
     76          1           0      -18.534785    4.696118   -0.946592
     77          1           0      -15.827196    7.966206   -0.789977
     78          1           0      -15.467460    7.010544   -2.179510
     79          1           0      -14.661047    6.539334   -0.611189
     80         12           0       17.861845   -0.793395    0.109020
     81          6           0       16.113724    2.254042    0.629995
     82          6           0       20.807385    1.162115    0.217626
     83          6           0       19.573300   -3.443598   -0.722654
     84          6           0       14.809119   -2.422268   -0.243435
     85          7           0       18.409823    1.501214    0.388380
     86          6           0       17.484163    2.472671    0.680818
     87          6           0       18.111575    3.815438    1.014971
     88          6           0       19.633093    3.448315    0.742116
     89          6           0       19.641771    1.936572    0.467832
     90          6           0       20.232798    4.359883   -0.324473
     91          6           0       17.825045    4.203408    2.482249
     92          6           0       17.585891    5.722692    2.827364
     93          1           0       18.101875    6.786398    1.829817
     94          7           0       19.923110   -1.131441   -0.137343
     95          6           0       20.944138   -0.180687   -0.128586
     96          6           0       22.217720   -0.877082   -0.370117
     97          6           0       21.869184   -2.255593   -0.548802
     98          6           0       20.399681   -2.299088   -0.423547
     99          6           0       23.478580   -0.200500   -0.474784
    100          6           0       22.789334   -3.438998   -0.830997
    101          8           0       22.327480   -4.568148   -1.060038
    102          6           0       24.253123   -3.314148   -0.666524
    103          7           0       17.268083   -2.648246   -0.512512
    104          6           0       18.175971   -3.609388   -0.701825
    105          6           0       17.494613   -4.949780   -1.129584
    106          6           0       15.999589   -4.660372   -0.783058
    107          6           0       15.978443   -3.188154   -0.515036
    108          6           0       17.790263   -5.382103   -2.610850
    109          6           0       15.713452   -5.485709    0.529252
    110          6           0       15.870525   -4.813637    1.936738
    111          7           0       15.868910   -0.277972    0.270445
    112          6           0       14.724568   -1.073287    0.078971
    113          6           0       13.528330   -0.204716    0.209244
    114          6           0       14.046703    1.075878    0.362176
    115          6           0       15.423187    1.036033    0.432175
    116          6           0       12.212035   -0.711911   -0.137950
    117          6           0       13.625278    2.474363    0.388327
    118          8           0       12.488069    2.920476    0.286151
    119          6           0       14.969951    3.329050    0.540594
    120          6           0       15.126035    4.288419   -0.579665
    121          8           0       15.757271    4.097188   -1.615084
    122          8           0       14.445121    5.478738   -0.261579
    123          6           0       14.372383    6.580433   -1.194477
    124          1           0       21.758897    1.631622    0.477307
    125          1           0       20.085435   -4.371784   -0.986090
    126          1           0       13.920648   -3.050677   -0.330555
    127          1           0       17.765987    4.615455    0.359753
    128          1           0       20.173724    3.737129    1.643037
    129          1           0       21.133693    4.891929   -0.020851
    130          1           0       19.565895    5.113817   -0.742782
    131          1           0       20.580591    3.706486   -1.125710
    132          1           0       18.621030    3.851721    3.138511
    133          1           0       16.938963    3.597513    2.674752
    134          1           0       18.115786    5.990696    3.740802
    135          1           0       16.546723    5.777395    3.151733
    136          1           0       24.152010   -0.704161    0.219001
    137          1           0       23.345725    0.880328   -0.438289
    138          1           0       23.702465   -0.378639   -1.527038
    139          1           0       24.731130   -2.726297   -1.450715
    140          1           0       24.707847   -4.303075   -0.721162
    141          1           0       24.434090   -2.738579    0.240803
    142          1           0       18.021749   -5.612664   -0.443387
    143          1           0       15.325272   -5.018863   -1.561206
    144          1           0       18.612177   -6.097803   -2.633380
    145          1           0       17.946832   -4.465014   -3.177851
    146          1           0       16.877287   -5.857717   -2.968743
    147          1           0       16.182056   -6.466464    0.445381
    148          1           0       14.625675   -5.561278    0.533523
    149          1           0       16.387825   -5.575168    2.519602
    150          1           0       14.914945   -4.609149    2.421314
    151          1           0       16.483202   -3.913537    1.973854
    152          1           0       12.277970   -1.212608   -1.103057
    153          1           0       11.566684    0.159731   -0.251495
    154          1           0       11.769533   -1.255731    0.696207
    155          1           0       14.808850    3.881680    1.466719
    156          1           0       13.454860    6.589838   -1.782330
    157          1           0       15.318822    6.722837   -1.716305
    158          1           0       14.409623    7.426294   -0.507419
 ---------------------------------------------------------------------

 SCF Done:  E(RCAM-B3LYP) =  -4069.83126079     A.U. after   18 cycles

 Excitation energies and oscillator strengths:

 Excited State   1:      Singlet-A      1.7437 eV  711.03 nm  f=0.3993  <S**2>=0.000
     309 -> 316        0.17821
     311 -> 313        0.68402
     309 <- 316        0.10685
 This state for optimization and/or second-order correction.
 Total Energy, E(TD-HF/TD-DFT) =  -4069.76718019
 Copying the excited state density for this state as the 1-particle RhoCI density.

 Excited State   2:      Singlet-A      1.7491 eV  708.83 nm  f=0.3697  <S**2>=0.000
     310 -> 315        0.18967
     312 -> 314        0.68071
     310 <- 315        0.10794

 Excited State   3:      Singlet-A      2.2018 eV  563.10 nm  f=0.1582  <S**2>=0.000
     309 -> 313        0.65400
     311 -> 316       -0.24977

 Excited State   4:      Singlet-A      2.2728 eV  545.50 nm  f=0.0725  <S**2>=0.000
     310 -> 314        0.62313
     312 -> 315       -0.32197

 Excited State   5:      Singlet-A      2.9408 eV  421.60 nm  f=0.0000  <S**2>=0.000
     312 -> 313        0.70710

 The electronic state is 1-A.
 Alpha  occ. eigenvalues --  -46.88497 -46.87148 -19.25625 -19.23971 -19.19873
 Alpha  occ. eigenvalues --  -19.19856 -19.19479 -19.19310 -19.19005 -19.18728
 Alpha  occ. eigenvalues --  -14.42116 -14.42030 -14.41470 -14.41276 -14.39676
 Alpha  occ. eigenvalues --  -14.39256 -14.38909 -14.38522 -10.39473 -10.39395
 Alpha  occ. eigenvalues --  -10.36311 -10.35366 -10.35277 -10.35006 -10.32143
 Alpha  occ. eigenvalues --  -10.31174 -10.31016 -10.30999 -10.30760 -10.30597
 Alpha  occ. eigenvalues --  -10.30589 -10.30586 -10.30442 -10.30406 -10.30379
 Alpha  occ. eigenvalues --  -10.30306 -10.30207 -10.29887 -10.29228 -10.29179
 Alpha  occ. eigenvalues --  -10.29066 -10.29020 -10.28908 -10.28863 -10.28637
 Alpha  occ. eigenvalues --  -10.28227 -10.28103 -10.28032 -10.28029 -10.27869
 Alpha  occ. eigenvalues --  -10.27832 -10.27733 -10.27724 -10.27611 -10.27581
 Alpha  occ. eigenvalues --  -10.27574 -10.27545 -10.27437 -10.27385 -10.27378
 Alpha  occ. eigenvalues --  -10.27274 -10.27230 -10.27187 -10.27131 -10.27033
 Alpha  occ. eigenvalues --  -10.26917 -10.26803 -10.26697 -10.26498 -10.26470
 Alpha  occ. eigenvalues --  -10.26421 -10.26362 -10.26320 -10.26090 -10.26049
 Alpha  occ. eigenvalues --  -10.25761 -10.25741 -10.25683 -10.25330 -10.25305
 Alpha  occ. eigenvalues --  -10.25301 -10.25272 -10.25084 -10.24687 -10.24628
 Alpha  occ. eigenvalues --  -10.24323  -3.17040  -3.15877  -1.91947  -1.91507
 Alpha  occ. eigenvalues --   -1.91327  -1.90781  -1.90321  -1.90201  -1.15723
 Alpha  occ. eigenvalues --   -1.14645  -1.11678  -1.10291  -1.09649  -1.09195
 Alpha  occ. eigenvalues --   -1.07236  -1.06300  -1.04910  -1.04750  -1.04032
 Alpha  occ. eigenvalues --   -1.03310  -1.03083  -1.02522  -1.01395  -1.01364
 Alpha  occ. eigenvalues --   -0.92548  -0.91970  -0.89872  -0.89176  -0.88649
 Alpha  occ. eigenvalues --   -0.88632  -0.88376  -0.87999  -0.87324  -0.86997
 Alpha  occ. eigenvalues --   -0.86725  -0.86384  -0.86173  -0.85795  -0.84280
 Alpha  occ. eigenvalues --   -0.84122  -0.83799  -0.83289  -0.82875  -0.82634
 Alpha  occ. eigenvalues --   -0.82081  -0.81983  -0.81162  -0.80821  -0.80632
 Alpha  occ. eigenvalues --   -0.80428  -0.78934  -0.78204  -0.77290  -0.77094
 Alpha  occ. eigenvalues --   -0.76844  -0.76744  -0.75775  -0.75702  -0.74852
 Alpha  occ. eigenvalues --   -0.74768  -0.72851  -0.72115  -0.71291  -0.70897
 Alpha  occ. eigenvalues --   -0.69224  -0.68900  -0.68577  -0.68087  -0.67828
 Alpha  occ. eigenvalues --   -0.67560  -0.66695  -0.66513  -0.65483  -0.65149
 Alpha  occ. eigenvalues --   -0.64992  -0.64668  -0.64539  -0.64447  -0.64172
 Alpha  occ. eigenvalues --   -0.64010  -0.61912  -0.61520  -0.60317  -0.60290
 Alpha  occ. eigenvalues --   -0.60086  -0.59351  -0.59218  -0.59031  -0.58177
 Alpha  occ. eigenvalues --   -0.58049  -0.57861  -0.57658  -0.57590  -0.57152
 Alpha  occ. eigenvalues --   -0.56264  -0.56129  -0.55649  -0.55477  -0.55473
 Alpha  occ. eigenvalues --   -0.55316  -0.54960  -0.54263  -0.53943  -0.53837
 Alpha  occ. eigenvalues --   -0.53813  -0.53527  -0.53402  -0.53311  -0.53139
 Alpha  occ. eigenvalues --   -0.52754  -0.52593  -0.52552  -0.52314  -0.51856
 Alpha  occ. eigenvalues --   -0.51797  -0.51791  -0.51526  -0.51485  -0.51291
 Alpha  occ. eigenvalues --   -0.50998  -0.50862  -0.50749  -0.50593  -0.50430
 Alpha  occ. eigenvalues --   -0.50076  -0.49890  -0.49772  -0.49770  -0.49544
 Alpha  occ. eigenvalues --   -0.49420  -0.49380  -0.49077  -0.49011  -0.48893
 Alpha  occ. eigenvalues --   -0.48685  -0.48511  -0.48371  -0.48065  -0.47918
 Alpha  occ. eigenvalues --   -0.47645  -0.47580  -0.47347  -0.47226  -0.46936
 Alpha  occ. eigenvalues --   -0.46756  -0.46663  -0.46614  -0.46426  -0.46115
 Alpha  occ. eigenvalues --   -0.46090  -0.45978  -0.45815  -0.45740  -0.45377
 Alpha  occ. eigenvalues --   -0.45375  -0.45052  -0.45003  -0.44713  -0.44643
 Alpha  occ. eigenvalues --   -0.44599  -0.44424  -0.44303  -0.44239  -0.44218
 Alpha  occ. eigenvalues --   -0.44033  -0.43916  -0.43648  -0.43404  -0.43368
 Alpha  occ. eigenvalues --   -0.43325  -0.43301  -0.42943  -0.42887  -0.42841
 Alpha  occ. eigenvalues --   -0.42582  -0.42539  -0.42249  -0.41937  -0.41907
 Alpha  occ. eigenvalues --   -0.41847  -0.41679  -0.41288  -0.41193  -0.41006
 Alpha  occ. eigenvalues --   -0.40917  -0.40648  -0.40452  -0.40329  -0.40038
 Alpha  occ. eigenvalues --   -0.39838  -0.39357  -0.39123  -0.38810  -0.38565
 Alpha  occ. eigenvalues --   -0.38323  -0.37816  -0.37799  -0.37734  -0.37409
 Alpha  occ. eigenvalues --   -0.37097  -0.36723  -0.36620  -0.36299  -0.36105
 Alpha  occ. eigenvalues --   -0.35958  -0.35667  -0.34214  -0.34160  -0.34105
 Alpha  occ. eigenvalues --   -0.34021  -0.33279  -0.33123  -0.31732  -0.31240
 Alpha  occ. eigenvalues --   -0.31181  -0.30945  -0.30825  -0.30808  -0.30140
 Alpha  occ. eigenvalues --   -0.29953  -0.29530  -0.29328  -0.23937  -0.23865
 Alpha  occ. eigenvalues --   -0.21496  -0.20768
 Alpha virt. eigenvalues --   -0.08980  -0.08128  -0.01690  -0.01237   0.00252
 Alpha virt. eigenvalues --    0.00770   0.02200   0.02825   0.03343   0.03479
 Alpha virt. eigenvalues --    0.04543   0.04844   0.05102   0.05437   0.05748

 Mulliken charges:
               1
     1  Mg  12.000039
     2  C    6.033386
     3  C    5.997545
     4  C    5.966999
     5  C    6.003316
     6  N    7.016940
     7  C    5.960113
     8  C    6.012840
     9  C    5.993721
    10  C    6.023612
    11  C    5.996009
    12  C    6.003591
    13  C    6.001504
    14  H    0.993044
    15  N    6.994707
    16  C    6.033546
    17  C    6.022597
    18  C    6.018013
    19  C    6.035321
    20  C    5.992400
    21  C    6.013089
    22  O    8.026910
    23  C    5.997662
    24  N    6.986820
    25  C    6.037528
    26  C    5.992310
    27  C    6.007115
    28  C    5.977788
    29  C    5.999625
    30  C    6.003814
    31  C    6.001213
    32  N    7.000907
    33  C    5.965415
    34  C    5.964918
    35  C    6.003091
    36  C    5.962980
    37  C    6.001673
    38  C    5.984386
    39  O    7.973307
    40  C    5.994497
    41  C    5.995882
    42  O    7.997214
    43  O    7.997820
    44  C    6.000848
    45  H    1.016320
    46  H    1.003639
    47  H    0.986216
    48  H    0.997610
    49  H    1.001462
    50  H    1.015882
    51  H    1.002692
    52  H    0.998402
    53  H    0.985674
    54  H    1.003403
    55  H    1.005019
    56  H    0.998243
    57  H    1.023787
    58  H    1.018109
    59  H    1.021423
    60  H    1.014361
    61  H    1.004596
    62  H    1.006156
    63  H    0.998234
    64  H    0.997528
    65  H    0.996455
    66  H    1.009827
    67  H    0.998692
    68  H    1.003197
    69  H    0.987305
    70  H    0.992568
    71  H    1.002260
    72  H    0.999898
    73  H    0.982868
    74  H    0.978197
    75  H    0.980885
    76  H    0.992115
    77  H    0.995485
    78  H    1.001153
    79  H    0.994284
    80  Mg  11.999886
    81  C    6.001150
    82  C    5.999563
    83  C    5.998403
    84  C    6.000562
    85  N    7.000434
    86  C    5.998570
    87  C    6.000760
    88  C    5.999299
    89  C    6.001414
    90  C    5.999965
    91  C    6.000055
    92  C    6.000034
    93  H    0.999869
    94  N    6.999456
    95  C    6.002151
    96  C    6.000647
    97  C    6.000841
    98  C    6.001457
    99  C    5.999714
   100  C    6.000575
   101  O    8.001287
   102  C    5.999770
   103  N    6.999560
   104  C    6.001819
   105  C    5.999795
   106  C    6.000513
   107  C    5.998689
   108  C    5.999874
   109  C    6.000094
   110  C    6.000365
   111  N    7.000299
   112  C    5.998330
   113  C    5.998433
   114  C    6.000167
   115  C    5.998321
   116  C    6.000246
   117  C    5.999238
   118  O    7.998983
   119  C    5.999827
   120  C    5.999933
   121  O    7.999674
   122  O    7.999990
   123  C    6.000134
   124  H    1.000565
   125  H    1.000072
   126  H    0.999456
   127  H    0.999995
   128  H    1.000244
   129  H    1.000155
   130  H    1.000648
   131  H    0.999863
   132  H    0.999544
   133  H    1.000308
   134  H    0.999837
   135  H    1.000156
   136  H    1.000778
   137  H    1.000724
   138  H    1.000842
   139  H    1.000401
   140  H    1.000633
   141  H    1.000181
   142  H    0.999762
   143  H    0.999835
   144  H    0.999846
   145  H    1.000061
   146  H    1.000428
   147  H    0.999457
   148  H    0.999976
   149  H    0.999502
   150  H    1.000036
   151  H    0.999825
   152  H    0.999177
   153  H    0.999327
   154  H    0.998942
   155  H    0.999668
   156  H    1.000024
   157  H    0.999775
   158  H    0.999812
 Sum of Mulliken charges = 624.00000

 Dipole moment (field-independent basis, Debye):
    X=              2.2178    Y=             -5.1349    Z=              9.4601  Tot=             10.9900
 Quadrupole moment (field-independent basis, Debye-Ang):
   XX=            -46.7365   YY=              4.3824   ZZ=              3.9483
   XY=             87.6262   XZ=           -169.4478   YZ=             -9.0347

 Normal termination of Gaussian 16 at Tue Sep 21 21:36:00 2021.
