 Gaussian 16, Revision A.03,
 Gaussian 16:  ES64L-G16RevA.03 25-Dec-2016

 ----------------------------------------------------------
 #p cam-b3lyp/Def2SVP td=(nstates=5) density=(transition=1)
 ----------------------------------------------------------

 --------------------------------
 TDDFT excited states in gaussian
 --------------------------------
 Symbolic Z-matrix:
 Charge =  0 Multiplicity = 1

                         Standard orientation:
 ---------------------------------------------------------------------
 Center     Atomic      Atomic             Coordinates (Angstroms)
 Number     Number       Type             X           Y           Z
 ---------------------------------------------------------------------
      1         12           0      -22.534192    0.549939    0.188097
      2          6           0      -21.736121   -2.440375   -1.223356
      3          6           0      -21.043563    2.245969   -2.407745
      4          6           0      -23.235855    3.443629    1.798996
      5          6           0      -23.620995   -1.218668    3.048630
      6          7           0      -21.305242   -0.046360   -1.511399
      7          6           0      -21.415703   -1.298387   -2.030317
      8          6           0      -20.979534   -1.391879   -3.453178
      9          6           0      -20.520072    0.138636   -3.692849
     10          6           0      -20.978445    0.852649   -2.463776
     11          6           0      -18.945740    0.283246   -3.908717
     12          6           0      -22.239506   -1.791205   -4.354205
     13          6           0      -21.954790   -2.446909   -5.707202
     14          1           0      -20.566621   -2.467992   -6.394255
     15          7           0      -22.299859    2.582470   -0.245843
     16          6           0      -21.626480    3.071055   -1.377361
     17          6           0      -21.637461    4.512608   -1.285154
     18          6           0      -22.293970    4.872486   -0.090647
     19          6           0      -22.675698    3.597583    0.501066
     20          6           0      -21.050404    5.390566   -2.414918
     21          6           0      -22.481463    6.356702    0.524633
     22          8           0      -23.195498    6.586617    1.508889
     23          6           0      -21.842330    7.608692   -0.053090
     24          7           0      -23.401970    1.020993    2.169273
     25          6           0      -23.532663    2.308592    2.568765
     26          6           0      -23.869564    2.400101    4.056131
     27          6           0      -24.326484    0.863605    4.383064
     28          6           0      -23.868468    0.142213    3.105789
     29          6           0      -22.748937    3.045613    4.993216
     30          6           0      -25.912328    0.592989    4.489994
     31          6           0      -26.468998   -0.172750    5.676127
     32          7           0      -22.734660   -1.422391    0.845798
     33          6           0      -23.159550   -1.991674    1.987377
     34          6           0      -23.152348   -3.481305    1.843991
     35          6           0      -22.635959   -3.657882    0.538376
     36          6           0      -22.293868   -2.370440    0.057315
     37          6           0      -23.604098   -4.554252    2.770415
     38          6           0      -22.312606   -4.693845   -0.369406
     39          8           0      -22.421788   -5.931808   -0.253209
     40          6           0      -21.706908   -3.953558   -1.559205
     41          6           0      -20.346665   -4.404379   -1.745427
     42          8           0      -19.424569   -4.429765   -0.991626
     43          8           0      -20.229749   -4.735069   -3.092210
     44          6           0      -18.923148   -5.196690   -3.699726
     45          1           0      -20.797963    2.844677   -3.286890
     46          1           0      -23.369977    4.376233    2.351631
     47          1           0      -23.752513   -1.817857    3.951361
     48          1           0      -20.179901   -2.064557   -3.762695
     49          1           0      -21.010984    0.567490   -4.566436
     50          1           0      -18.631166    1.045878   -4.620757
     51          1           0      -18.522286   -0.700514   -4.110633
     52          1           0      -18.534705    0.597813   -2.948895
     53          1           0      -22.879320   -0.930628   -4.550488
     54          1           0      -22.814723   -2.486558   -3.742360
     55          1           0      -22.668276   -2.001834   -6.401862
     56          1           0      -22.266705   -3.489468   -5.657862
     57          1           0      -20.692468    4.830270   -3.278559
     58          1           0      -20.249768    5.977777   -1.966398
     59          1           0      -21.832045    6.089577   -2.713338
     60          1           0      -22.357319    7.762735   -1.000607
     61          1           0      -20.834776    7.428512   -0.428420
     62          1           0      -21.783923    8.390610    0.703796
     63          1           0      -24.761580    3.020019    4.153774
     64          1           0      -23.864380    0.506994    5.303811
     65          1           0      -22.440432    2.352916    5.776577
     66          1           0      -23.116047    3.973418    5.430492
     67          1           0      -21.839456    3.241830    4.424875
     68          1           0      -26.309324    0.144980    3.579187
     69          1           0      -26.383965    1.575203    4.487552
     70          1           0      -27.013729   -1.022308    5.265752
     71          1           0      -27.100235    0.439057    6.319991
     72          1           0      -25.648557   -0.601751    6.253100
     73          1           0      -24.077079   -4.200798    3.686488
     74          1           0      -22.765030   -5.175988    3.083758
     75          1           0      -24.319641   -5.183475    2.241476
     76          1           0      -22.264367   -4.127582   -2.480022
     77          1           0      -18.127680   -5.169631   -2.954697
     78          1           0      -18.624864   -4.507794   -4.491142
     79          1           0      -19.111867   -6.210104   -4.053854
     80         12           0       22.641168    0.431733   -0.289879
     81          6           0       21.011227   -2.510034    0.594828
     82          6           0       19.569060    1.711504   -1.263542
     83          6           0       23.950812    3.444623   -0.653935
     84          6           0       25.541065   -0.766856    1.170432
     85          7           0       20.524865   -0.239160   -0.182809
     86          6           0       20.114620   -1.529119    0.084772
     87          6           0       18.662592   -1.753106   -0.218132
     88          6           0       18.336506   -0.509996   -1.158153
     89          6           0       19.506892    0.411430   -0.841246
     90          6           0       17.940636   -0.690537   -2.700160
     91          6           0       17.716700   -1.935206    1.057853
     92          6           0       18.095999   -1.164004    2.357014
     93          1           0       16.920544   -0.555647    3.083519
     94          7           0       21.851021    2.360442   -0.766612
     95          6           0       20.541946    2.670641   -1.155608
     96          6           0       20.378026    4.081028   -1.378274
     97          6           0       21.665017    4.636268   -1.182201
     98          6           0       22.571059    3.504379   -0.824615
     99          6           0       19.086824    4.618962   -1.997029
    100          6           0       21.938568    6.145203   -1.375639
    101          8           0       21.032800    6.950292   -1.614756
    102          6           0       23.349249    6.556670   -1.313921
    103          7           0       24.459460    1.199806    0.324374
    104          6           0       24.847402    2.417261   -0.209277
    105          6           0       26.344057    2.724831    0.016854
    106          6           0       26.726667    1.415338    0.821230
    107          6           0       25.519475    0.587278    0.825226
    108          6           0       27.231315    2.968294   -1.162951
    109          6           0       27.168517    1.718742    2.341474
    110          6           0       28.423127    0.966833    2.702127
    111          7           0       23.285580   -1.370885    0.533262
    112          6           0       24.505417   -1.708779    1.089433
    113          6           0       24.459958   -3.099066    1.597219
    114          6           0       23.079708   -3.460726    1.415789
    115          6           0       22.447777   -2.383137    0.784313
    116          6           0       25.443013   -3.861588    2.389061
    117          6           0       22.019577   -4.462429    1.657616
    118          8           0       22.078254   -5.510784    2.257530
    119          6           0       20.667130   -3.907971    1.105080
    120          6           0       20.096400   -4.839034    0.130966
    121          8           0       19.034002   -5.460803    0.157993
    122          8           0       21.132454   -5.159268   -0.785146
    123          6           0       20.742694   -6.053119   -1.896643
    124          1           0       18.648895    1.980554   -1.787367
    125          1           0       24.535191    4.328725   -0.916770
    126          1           0       26.522150   -1.074051    1.536996
    127          1           0       18.531026   -2.687277   -0.764019
    128          1           0       17.459559   -0.107809   -0.650272
    129          1           0       17.816414   -1.718230   -3.041045
    130          1           0       18.687973   -0.305144   -3.393623
    131          1           0       16.933567   -0.303837   -2.858691
    132          1           0       17.569521   -2.992133    1.277546
    133          1           0       16.723392   -1.616600    0.741830
    134          1           0       18.835508   -0.391404    2.144291
    135          1           0       18.560922   -1.846473    3.067946
    136          1           0       18.834107    5.630737   -1.678367
    137          1           0       18.245842    4.024995   -1.640140
    138          1           0       19.251291    4.611952   -3.074786
    139          1           0       23.858799    6.177448   -2.199225
    140          1           0       23.797468    6.196934   -0.387220
    141          1           0       23.324635    7.646091   -1.337907
    142          1           0       26.403182    3.512808    0.768015
    143          1           0       27.414796    0.916690    0.138669
    144          1           0       28.250114    2.948772   -0.775603
    145          1           0       27.065546    3.998495   -1.478143
    146          1           0       27.026570    2.243158   -1.951472
    147          1           0       26.315317    1.455035    2.966326
    148          1           0       27.285941    2.765398    2.625069
    149          1           0       28.153558    0.196761    3.424516
    150          1           0       29.099261    1.559193    3.319508
    151          1           0       28.803609    0.441883    1.826145
    152          1           0       26.379758   -3.346746    2.607600
    153          1           0       25.712326   -4.722502    1.778167
    154          1           0       24.916749   -3.925026    3.341279
    155          1           0       20.032014   -3.815178    1.985744
    156          1           0       21.199641   -5.556856   -2.753577
    157          1           0       19.693864   -6.236323   -2.130249
    158          1           0       21.369464   -6.935202   -1.764230
 ---------------------------------------------------------------------

 SCF Done:  E(RCAM-B3LYP) =  -4069.80972856     A.U. after   19 cycles

 Excitation energies and oscillator strengths:

 Excited State   1:      Singlet-A      1.7178 eV  721.74 nm  f=0.3587  <S**2>=0.000
     309 -> 315        0.18172
     311 -> 313        0.68348
     309 <- 315        0.10498
 This state for optimization and/or second-order correction.
 Total Energy, E(TD-HF/TD-DFT) =  -4069.74659900
 Copying the excited state density for this state as the 1-particle RhoCI density.

 Excited State   2:      Singlet-A      1.7389 eV  713.00 nm  f=0.4087  <S**2>=0.000
     310 -> 316        0.19172
     312 -> 314        0.68282
     310 <- 316        0.10974

 Excited State   3:      Singlet-A      2.2042 eV  562.48 nm  f=0.0884  <S**2>=0.000
     309 -> 313        0.62966
     311 -> 315       -0.30514

 Excited State   4:      Singlet-A      2.2287 eV  556.30 nm  f=0.1026  <S**2>=0.000
     310 -> 314        0.63902
     312 -> 316       -0.29488

 Excited State   5:      Singlet-A      3.1779 eV  390.15 nm  f=0.0000  <S**2>=0.000
     312 -> 313        0.70710

 The electronic state is 1-A.
 Alpha  occ. eigenvalues --  -46.89387 -46.89113 -19.24349 -19.23671 -19.20545
 Alpha  occ. eigenvalues --  -19.19578 -19.19181 -19.19034 -19.18828 -19.18767
 Alpha  occ. eigenvalues --  -14.42465 -14.42243 -14.42214 -14.41658 -14.39652
 Alpha  occ. eigenvalues --  -14.39538 -14.39378 -14.39192 -10.39739 -10.38640
 Alpha  occ. eigenvalues --  -10.36217 -10.35125 -10.35115 -10.34462 -10.31890
 Alpha  occ. eigenvalues --  -10.31733 -10.31631 -10.31305 -10.31191 -10.30688
 Alpha  occ. eigenvalues --  -10.30663 -10.30641 -10.30632 -10.30202 -10.30201
 Alpha  occ. eigenvalues --  -10.30087 -10.29981 -10.29856 -10.29733 -10.29361
 Alpha  occ. eigenvalues --  -10.29002 -10.28967 -10.28842 -10.28761 -10.28685
 Alpha  occ. eigenvalues --  -10.28550 -10.28435 -10.28421 -10.28348 -10.28286
 Alpha  occ. eigenvalues --  -10.28237 -10.28215 -10.28175 -10.28174 -10.28169
 Alpha  occ. eigenvalues --  -10.28083 -10.27950 -10.27946 -10.27811 -10.27680
 Alpha  occ. eigenvalues --  -10.27503 -10.27449 -10.27386 -10.27351 -10.27308
 Alpha  occ. eigenvalues --  -10.27170 -10.27146 -10.27136 -10.26975 -10.26913
 Alpha  occ. eigenvalues --  -10.26737 -10.26649 -10.26423 -10.26223 -10.26198
 Alpha  occ. eigenvalues --  -10.26156 -10.26102 -10.26064 -10.26052 -10.26031
 Alpha  occ. eigenvalues --  -10.25971 -10.25880 -10.25760 -10.25394 -10.25350
 Alpha  occ. eigenvalues --  -10.24735  -3.17794  -3.17639  -1.92714  -1.92523
 Alpha  occ. eigenvalues --   -1.92232  -1.92110  -1.92106  -1.91932  -1.15619
 Alpha  occ. eigenvalues --   -1.14825  -1.10368  -1.09502  -1.09382  -1.08313
 Alpha  occ. eigenvalues --   -1.07190  -1.06907  -1.05550  -1.05080  -1.04447
 Alpha  occ. eigenvalues --   -1.03725  -1.03564  -1.03192  -1.02617  -1.02351
 Alpha  occ. eigenvalues --   -0.93481  -0.92472  -0.89664  -0.89230  -0.88596
 Alpha  occ. eigenvalues --   -0.88250  -0.87994  -0.87676  -0.87504  -0.87052
 Alpha  occ. eigenvalues --   -0.86893  -0.86887  -0.86209  -0.86193  -0.84840
 Alpha  occ. eigenvalues --   -0.84464  -0.84313  -0.83461  -0.82730  -0.82394
 Alpha  occ. eigenvalues --   -0.82352  -0.81596  -0.81176  -0.80851  -0.80287
 Alpha  occ. eigenvalues --   -0.80160  -0.78399  -0.78328  -0.77510  -0.77459
 Alpha  occ. eigenvalues --   -0.77111  -0.76855  -0.76224  -0.76189  -0.75757
 Alpha  occ. eigenvalues --   -0.75174  -0.72652  -0.72577  -0.72148  -0.71973
 Alpha  occ. eigenvalues --   -0.69433  -0.69371  -0.69245  -0.68626  -0.68213
 Alpha  occ. eigenvalues --   -0.68097  -0.66836  -0.66421  -0.65971  -0.65325
 Alpha  occ. eigenvalues --   -0.65192  -0.64911  -0.64516  -0.64502  -0.64239
 Alpha  occ. eigenvalues --   -0.64008  -0.62551  -0.61804  -0.60437  -0.60285
 Alpha  occ. eigenvalues --   -0.59913  -0.59387  -0.59170  -0.58950  -0.58783
 Alpha  occ. eigenvalues --   -0.58460  -0.58294  -0.57742  -0.57535  -0.57259
 Alpha  occ. eigenvalues --   -0.56333  -0.56014  -0.55832  -0.55489  -0.55357
 Alpha  occ. eigenvalues --   -0.55281  -0.55107  -0.54618  -0.54223  -0.53898
 Alpha  occ. eigenvalues --   -0.53758  -0.53031  -0.52963  -0.52915  -0.52748
 Alpha  occ. eigenvalues --   -0.52723  -0.52633  -0.52189  -0.52184  -0.52125
 Alpha  occ. eigenvalues --   -0.51991  -0.51683  -0.51624  -0.51618  -0.51394
 Alpha  occ. eigenvalues --   -0.51118  -0.50858  -0.50794  -0.50529  -0.50480
 Alpha  occ. eigenvalues --   -0.50286  -0.49792  -0.49690  -0.49641  -0.49560
 Alpha  occ. eigenvalues --   -0.49383  -0.49280  -0.49113  -0.48904  -0.48830
 Alpha  occ. eigenvalues --   -0.48572  -0.48306  -0.48293  -0.48179  -0.48132
 Alpha  occ. eigenvalues --   -0.47939  -0.47748  -0.47601  -0.47261  -0.47255
 Alpha  occ. eigenvalues --   -0.46925  -0.46915  -0.46579  -0.46511  -0.46444
 Alpha  occ. eigenvalues --   -0.46282  -0.46234  -0.46217  -0.46156  -0.45739
 Alpha  occ. eigenvalues --   -0.45571  -0.45395  -0.45176  -0.45128  -0.45000
 Alpha  occ. eigenvalues --   -0.44984  -0.44699  -0.44676  -0.44655  -0.44337
 Alpha  occ. eigenvalues --   -0.44250  -0.43967  -0.43935  -0.43885  -0.43679
 Alpha  occ. eigenvalues --   -0.43428  -0.43229  -0.43128  -0.43117  -0.42758
 Alpha  occ. eigenvalues --   -0.42659  -0.42487  -0.42311  -0.42140  -0.41972
 Alpha  occ. eigenvalues --   -0.41735  -0.41719  -0.41692  -0.41618  -0.41283
 Alpha  occ. eigenvalues --   -0.41231  -0.41122  -0.41040  -0.40799  -0.40467
 Alpha  occ. eigenvalues --   -0.40194  -0.40001  -0.39709  -0.39395  -0.39113
 Alpha  occ. eigenvalues --   -0.38518  -0.38407  -0.37985  -0.37773  -0.37524
 Alpha  occ. eigenvalues --   -0.37441  -0.36904  -0.36746  -0.36567  -0.36567
 Alpha  occ. eigenvalues --   -0.36062  -0.35662  -0.35162  -0.34806  -0.34478
 Alpha  occ. eigenvalues --   -0.34219  -0.33328  -0.33142  -0.31282  -0.31237
 Alpha  occ. eigenvalues --   -0.31215  -0.31087  -0.31008  -0.30820  -0.30161
 Alpha  occ. eigenvalues --   -0.30036  -0.29967  -0.29664  -0.24105  -0.23820
 Alpha  occ. eigenvalues --   -0.21223  -0.21118
 Alpha virt. eigenvalues --   -0.08674  -0.08501  -0.02256  -0.01688   0.00010
 Alpha virt. eigenvalues --    0.00623   0.01704   0.02321   0.02519   0.02806
 Alpha virt. eigenvalues --    0.04078   0.04680   0.04942   0.05346   0.05943

 Mulliken charges:
               1
     1  Mg  12.000040
     2  C    6.000628
     3  C    5.999456
     4  C    5.999565
     5  C    6.000352
     6  N    6.999993
     7  C    5.999142
     8  C    6.000385
     9  C    5.999708
    10  C    6.000826
    11  C    5.999936
    12  C    6.000085
    13  C    6.000017
    14  H    0.999902
    15  N    6.999791
    16  C    6.001139
    17  C    6.000152
    18  C    6.000530
    19  C    6.000578
    20  C    5.999946
    21  C    6.000235
    22  O    8.000534
    23  C    5.999941
    24  N    6.999932
    25  C    6.000680
    26  C    5.999749
    27  C    6.000218
    28  C    5.999397
    29  C    5.999960
    30  C    6.000179
    31  C    5.999989
    32  N    7.000170
    33  C    5.999107
    34  C    5.999396
    35  C    5.999919
    36  C    5.999262
    37  C    6.000171
    38  C    5.999671
    39  O    7.999397
    40  C    5.999976
    41  C    5.999918
    42  O    7.999937
    43  O    7.999971
    44  C    6.000043
    45  H    1.000233
    46  H    1.000127
    47  H    0.999793
    48  H    0.999906
    49  H    1.000060
    50  H    1.000060
    51  H    1.000305
    52  H    1.000031
    53  H    0.999761
    54  H    1.000132
    55  H    0.999909
    56  H    1.000028
    57  H    1.000388
    58  H    1.000389
    59  H    1.000350
    60  H    1.000147
    61  H    1.000168
    62  H    1.000299
    63  H    0.999991
    64  H    0.999908
    65  H    1.000209
    66  H    1.000006
    67  H    0.999941
    68  H    1.000001
    69  H    0.999731
    70  H    1.000028
    71  H    0.999867
    72  H    0.999999
    73  H    0.999587
    74  H    0.999555
    75  H    0.999598
    76  H    0.999813
    77  H    0.999939
    78  H    0.999899
    79  H    0.999919
    80  Mg  12.002197
    81  C    5.971898
    82  C    6.017550
    83  C    6.036936
    84  C    5.985916
    85  N    6.993469
    86  C    6.036702
    87  C    5.987853
    88  C    6.013073
    89  C    5.965118
    90  C    6.004490
    91  C    5.997381
    92  C    5.995074
    93  H    1.008207
    94  N    7.009720
    95  C    5.952896
    96  C    5.981273
    97  C    5.986750
    98  C    5.953316
    99  C    6.003927
   100  C    5.987325
   101  O    7.980793
   102  C    6.005073
   103  N    7.002692
   104  C    5.953463
   105  C    6.018920
   106  C    5.986749
   107  C    6.036017
   108  C    6.003037
   109  C    5.994772
   110  C    6.000097
   111  N    6.995918
   112  C    6.040890
   113  C    6.030811
   114  C    6.005423
   115  C    6.033621
   116  C    5.996012
   117  C    6.014918
   118  O    8.027945
   119  C    6.002609
   120  C    6.007968
   121  O    8.008922
   122  O    7.993485
   123  C    5.997370
   124  H    0.987139
   125  H    0.994961
   126  H    1.012199
   127  H    0.999890
   128  H    0.994115
   129  H    0.985161
   130  H    1.000097
   131  H    0.996511
   132  H    0.995848
   133  H    1.009131
   134  H    1.007871
   135  H    0.992769
   136  H    0.983295
   137  H    0.983704
   138  H    0.980941
   139  H    0.990734
   140  H    0.989528
   141  H    0.986885
   142  H    0.997229
   143  H    1.001432
   144  H    0.990087
   145  H    1.004999
   146  H    0.994992
   147  H    0.999772
   148  H    1.013621
   149  H    0.995896
   150  H    1.005953
   151  H    1.000557
   152  H    1.020123
   153  H    1.019383
   154  H    1.017589
   155  H    1.006562
   156  H    1.005036
   157  H    1.006716
   158  H    1.000698
 Sum of Mulliken charges = 624.00000

 Dipole moment (field-independent basis, Debye):
    X=              3.9613    Y=             -8.8852    Z=              3.9338  Tot=             10.4935
 Quadrupole moment (field-independent basis, Debye-Ang):
   XX=            175.5672   YY=             -8.2313   ZZ=              0.9237
   XY=           -205.6828   XZ=             90.7516   YZ=              1.6652

 Normal termination of Gaussian 16 at Wed Sep 22 14:33:00 2021.
