 Gaussian 16, Revision A.03,
 Gaussian 16:  ES64L-G16RevA.03 25-Dec-2016

 -----------------------------------
 #p cam-b3lyp/Def2SVP td=(nstates=5)
 -----------------------------------

 --------------------------------
 TDDFT excited states in gaussian
 --------------------------------
 Symbolic Z-matrix:
 Charge =  0 Multiplicity = 1

                         Standard orientation:
 ---------------------------------------------------------------------
 Center     Atomic      Atomic             Coordinates (Angstroms)
 Number     Number       Type             X           Y           Z
 ---------------------------------------------------------------------
      1         12           0      -26.031893   -0.579216   -0.364884
      2          6           0      -24.209936    2.490533   -0.033100
      3          6           0      -28.646135    0.933006    1.299585
      4          6           0      -27.396432   -3.538756   -0.131726
      5          6           0      -23.186367   -1.920160   -1.819286
      6          7           0      -26.284531    1.458494    0.805244
      7          6           0      -25.432512    2.518265    0.650109
      8          6           0      -26.127947    3.817226    1.138441
      9          6           0      -27.549122    3.314882    1.631618
     10          6           0      -27.540025    1.786849    1.261483
     11          6           0      -27.912120    3.504732    3.164388
     12          6           0      -26.258667    4.937351    0.072119
     13          6           0      -25.926677    6.327885    0.482307
     14          1           0      -25.874464    6.803212    1.984481
     15          7           0      -27.821629   -1.269397    0.493018
     16          6           0      -28.852289   -0.492514    1.021405
     17          6           0      -29.932110   -1.385546    1.483548
     18          6           0      -29.605847   -2.692343    0.952651
     19          6           0      -28.232873   -2.550794    0.414707
     20          6           0      -31.144621   -0.974113    2.262493
     21          6           0      -30.411457   -4.012808    0.938321
     22          8           0      -30.172639   -4.989254    0.196829
     23          6           0      -31.652284   -4.060858    1.735888
     24          7           0      -25.355535   -2.397596   -0.837318
     25          6           0      -26.130458   -3.503714   -0.565743
     26          6           0      -25.541413   -4.778453   -1.230950
     27          6           0      -24.360205   -4.145675   -2.091900
     28          6           0      -24.290387   -2.720055   -1.572610
     29          6           0      -25.075269   -5.965009   -0.292300
     30          6           0      -24.517535   -4.168497   -3.604041
     31          6           0      -23.502293   -5.044400   -4.367681
     32          7           0      -24.157581    0.147950   -1.018365
     33          6           0      -23.094672   -0.530497   -1.566154
     34          6           0      -21.951966    0.377117   -1.732686
     35          6           0      -22.392617    1.572369   -1.192710
     36          6           0      -23.728717    1.392159   -0.770506
     37          6           0      -20.590874    0.089262   -2.274791
     38          6           0      -21.968568    2.908078   -0.971879
     39          8           0      -20.925948    3.534683   -1.315144
     40          6           0      -23.072747    3.540950   -0.236330
     41          6           0      -22.557630    4.177640    1.026081
     42          8           0      -22.175021    3.593652    1.981697
     43          8           0      -22.659941    5.503758    0.939989
     44          6           0      -21.959918    6.321375    1.871641
     45          1           0      -29.515216    1.329010    1.829356
     46          1           0      -27.744142   -4.574223   -0.165233
     47          1           0      -22.271153   -2.371780   -2.205612
     48          1           0      -25.521202    4.184713    1.966865
     49          1           0      -28.334686    3.795925    1.049651
     50          1           0      -27.210820    4.109451    3.738679
     51          1           0      -27.864619    2.515176    3.621278
     52          1           0      -28.928060    3.886273    3.270761
     53          1           0      -27.271123    5.030389   -0.322523
     54          1           0      -25.611372    4.776513   -0.789515
     55          1           0      -26.674915    7.015668    0.087194
     56          1           0      -24.962335    6.572859    0.038048
     57          1           0      -31.214754   -1.577443    3.167315
     58          1           0      -32.003218   -1.193004    1.627664
     59          1           0      -31.194984    0.108337    2.384713
     60          1           0      -31.373263   -3.939956    2.782659
     61          1           0      -32.027807   -5.077436    1.621581
     62          1           0      -32.420151   -3.396476    1.340490
     63          1           0      -26.314429   -5.129461   -1.915318
     64          1           0      -23.458355   -4.705064   -1.843399
     65          1           0      -25.253594   -5.709196    0.751530
     66          1           0      -24.054448   -6.293362   -0.491497
     67          1           0      -25.667475   -6.838890   -0.564293
     68          1           0      -24.613291   -3.202598   -4.100197
     69          1           0      -25.482495   -4.631050   -3.808711
     70          1           0      -23.064740   -4.620397   -5.271268
     71          1           0      -24.072478   -5.856964   -4.818737
     72          1           0      -22.658983   -5.405279   -3.780423
     73          1           0      -20.558236   -0.830376   -2.859706
     74          1           0      -19.907284   -0.147816   -1.459691
     75          1           0      -20.248179    1.008519   -2.749632
     76          1           0      -23.470414    4.307429   -0.900997
     77          1           0      -20.908702    6.277485    1.583355
     78          1           0      -21.988447    5.886515    2.870843
     79          1           0      -22.277323    7.361961    1.799251
     80         12           0       25.568468   -0.769395    0.438657
     81          6           0       25.803608    2.301618   -1.243204
     82          6           0       26.341942    0.680871    3.340377
     83          6           0       25.384878   -3.700829    1.797557
     84          6           0       25.772049   -2.286719   -2.839293
     85          7           0       26.117332    1.259243    0.913693
     86          6           0       25.996432    2.366966    0.171301
     87          6           0       26.417637    3.600894    0.926843
     88          6           0       26.981994    2.996838    2.274945
     89          6           0       26.448423    1.579510    2.196978
     90          6           0       28.523448    3.052574    2.528648
     91          6           0       25.140699    4.536658    1.238618
     92          6           0       25.374363    6.043684    0.892174
     93          1           0       23.986321    6.885566    0.923182
     94          7           0       25.577717   -1.362316    2.290021
     95          6           0       25.879984   -0.608825    3.411469
     96          6           0       25.543020   -1.375370    4.579341
     97          6           0       25.202001   -2.735752    4.192442
     98          6           0       25.259694   -2.650351    2.682896
     99          6           0       25.756678   -0.739577    5.983070
    100          6           0       24.817449   -4.016603    4.924190
    101          8           0       24.465428   -5.089009    4.400464
    102          6           0       24.785835   -3.842388    6.401339
    103          7           0       25.740375   -2.665877   -0.459108
    104          6           0       25.626791   -3.717546    0.416296
    105          6           0       25.821848   -5.052268   -0.303873
    106          6           0       25.626321   -4.630816   -1.783923
    107          6           0       25.779902   -3.109645   -1.727737
    108          6           0       27.197051   -5.701907    0.124998
    109          6           0       24.258866   -5.070756   -2.460006
    110          6           0       24.252094   -5.192357   -3.992249
    111          7           0       25.713135   -0.165736   -1.645788
    112          6           0       25.778945   -0.892598   -2.795719
    113          6           0       25.727616   -0.036117   -3.959378
    114          6           0       25.664232    1.234440   -3.358469
    115          6           0       25.722139    1.115506   -1.962507
    116          6           0       25.734069   -0.343542   -5.474514
    117          6           0       25.558069    2.632884   -3.668394
    118          8           0       25.322915    3.240569   -4.679834
    119          6           0       25.818335    3.392323   -2.265838
    120          6           0       24.779288    4.424168   -2.318328
    121          8           0       23.561810    4.337811   -2.017764
    122          8           0       25.402985    5.520232   -2.783625
    123          6           0       24.610731    6.733537   -2.989240
    124          1           0       26.504359    1.161606    4.307466
    125          1           0       25.247288   -4.685781    2.248988
    126          1           0       25.735927   -2.798347   -3.803340
    127          1           0       27.136025    4.238636    0.411018
    128          1           0       26.547678    3.389624    3.194482
    129          1           0       28.905445    2.033479    2.468704
    130          1           0       28.628054    3.431506    3.545144
    131          1           0       29.143798    3.639264    1.852013
    132          1           0       24.739055    4.472387    2.250571
    133          1           0       24.306512    4.101098    0.688487
    134          1           0       25.811313    6.144432   -0.101103
    135          1           0       25.996700    6.591484    1.599375
    136          1           0       24.834247   -0.233445    6.264414
    137          1           0       26.414138    0.130641    5.974259
    138          1           0       26.246045   -1.355277    6.737385
    139          1           0       24.067455   -3.104406    6.756532
    140          1           0       25.824184   -3.590146    6.619963
    141          1           0       24.592128   -4.765998    6.947529
    142          1           0       25.014457   -5.690493    0.055384
    143          1           0       26.399843   -5.097129   -2.394031
    144          1           0       27.917946   -5.629861   -0.689288
    145          1           0       27.214340   -6.755754    0.401653
    146          1           0       27.746493   -5.203907    0.924152
    147          1           0       23.610921   -4.216530   -2.261761
    148          1           0       23.783686   -5.980726   -2.092960
    149          1           0       23.606767   -4.448044   -4.460586
    150          1           0       23.960962   -6.138327   -4.449309
    151          1           0       25.252988   -4.899804   -4.306507
    152          1           0       26.223669   -1.312096   -5.575994
    153          1           0       26.271858    0.426421   -6.029305
    154          1           0       24.689048   -0.424515   -5.773452
    155          1           0       26.789128    3.887514   -2.293368
    156          1           0       24.910356    7.471068   -2.244882
    157          1           0       23.542637    6.525198   -3.041569
    158          1           0       24.912367    7.178507   -3.937377
 ---------------------------------------------------------------------

 SCF Done:  E(RCAM-B3LYP) =  -4069.80010620     A.U. after   18 cycles

 Excitation energies and oscillator strengths:

 Excited State   1:      Singlet-A      1.7200 eV  720.82 nm  f=0.4162  <S**2>=0.000
     310 -> 316       -0.17635
     311 -> 313        0.68692
     310 <- 316       -0.10596
 This state for optimization and/or second-order correction.
 Total Energy, E(TD-HF/TD-DFT) =  -4069.73689567
 Copying the excited state density for this state as the 1-particle RhoCI density.

 Excited State   2:      Singlet-A      1.7272 eV  717.84 nm  f=0.3860  <S**2>=0.000
     309 -> 315       -0.19742
     312 -> 314        0.68085
     309 <- 315       -0.11060

 Excited State   3:      Singlet-A      2.2103 eV  560.93 nm  f=0.1290  <S**2>=0.000
     310 -> 313        0.65015
     311 -> 316        0.26633

 Excited State   4:      Singlet-A      2.2496 eV  551.13 nm  f=0.0629  <S**2>=0.000
     309 -> 314        0.61703
     312 -> 315        0.33568

 Excited State   5:      Singlet-A      3.1315 eV  395.93 nm  f=0.0000  <S**2>=0.000
     312 -> 313        0.70710

 The electronic state is 1-A.
 Alpha  occ. eigenvalues --  -46.88903 -46.87562 -19.24991 -19.24857 -19.19661
 Alpha  occ. eigenvalues --  -19.19644 -19.19027 -19.19016 -19.18541 -19.18417
 Alpha  occ. eigenvalues --  -14.42588 -14.42048 -14.41720 -14.41612 -14.39687
 Alpha  occ. eigenvalues --  -14.39551 -14.39448 -14.38396 -10.39037 -10.38559
 Alpha  occ. eigenvalues --  -10.35986 -10.34953 -10.34699 -10.34651 -10.31702
 Alpha  occ. eigenvalues --  -10.31693 -10.31495 -10.31182 -10.31020 -10.30994
 Alpha  occ. eigenvalues --  -10.30947 -10.30778 -10.30595 -10.30541 -10.30265
 Alpha  occ. eigenvalues --  -10.30149 -10.30105 -10.30031 -10.29691 -10.29541
 Alpha  occ. eigenvalues --  -10.29457 -10.29289 -10.29220 -10.28749 -10.28742
 Alpha  occ. eigenvalues --  -10.28712 -10.28532 -10.28375 -10.28360 -10.28359
 Alpha  occ. eigenvalues --  -10.28258 -10.28188 -10.28090 -10.27855 -10.27827
 Alpha  occ. eigenvalues --  -10.27733 -10.27726 -10.27704 -10.27670 -10.27600
 Alpha  occ. eigenvalues --  -10.27557 -10.27507 -10.27291 -10.27179 -10.27046
 Alpha  occ. eigenvalues --  -10.26990 -10.26795 -10.26758 -10.26723 -10.26640
 Alpha  occ. eigenvalues --  -10.26494 -10.26461 -10.26423 -10.26249 -10.26198
 Alpha  occ. eigenvalues --  -10.26053 -10.25908 -10.25886 -10.25865 -10.25812
 Alpha  occ. eigenvalues --  -10.25574 -10.25439 -10.25354 -10.25183 -10.25175
 Alpha  occ. eigenvalues --  -10.24430  -3.17480  -3.16406  -1.92363  -1.91950
 Alpha  occ. eigenvalues --   -1.91780  -1.91291  -1.90873  -1.90720  -1.18610
 Alpha  occ. eigenvalues --   -1.15925  -1.10764  -1.09699  -1.09382  -1.08301
 Alpha  occ. eigenvalues --   -1.08074  -1.05538  -1.05182  -1.04823  -1.04294
 Alpha  occ. eigenvalues --   -1.03763  -1.03583  -1.02523  -1.02402  -1.01777
 Alpha  occ. eigenvalues --   -0.93563  -0.92704  -0.89121  -0.89102  -0.88537
 Alpha  occ. eigenvalues --   -0.88363  -0.88252  -0.88038  -0.87732  -0.87439
 Alpha  occ. eigenvalues --   -0.86962  -0.86875  -0.86279  -0.86254  -0.84547
 Alpha  occ. eigenvalues --   -0.84524  -0.83817  -0.83519  -0.82616  -0.82470
 Alpha  occ. eigenvalues --   -0.82261  -0.82053  -0.81709  -0.81258  -0.80500
 Alpha  occ. eigenvalues --   -0.80292  -0.78295  -0.78210  -0.77703  -0.77311
 Alpha  occ. eigenvalues --   -0.77151  -0.76909  -0.76351  -0.75911  -0.75394
 Alpha  occ. eigenvalues --   -0.75194  -0.73167  -0.72778  -0.72123  -0.71485
 Alpha  occ. eigenvalues --   -0.69394  -0.69239  -0.68967  -0.68789  -0.67906
 Alpha  occ. eigenvalues --   -0.67486  -0.67208  -0.66245  -0.66043  -0.65914
 Alpha  occ. eigenvalues --   -0.65537  -0.64910  -0.64853  -0.64842  -0.64466
 Alpha  occ. eigenvalues --   -0.64436  -0.63023  -0.61759  -0.60326  -0.60227
 Alpha  occ. eigenvalues --   -0.59856  -0.59832  -0.59329  -0.59140  -0.59131
 Alpha  occ. eigenvalues --   -0.58630  -0.58204  -0.57967  -0.57749  -0.57146
 Alpha  occ. eigenvalues --   -0.56486  -0.56315  -0.56103  -0.55918  -0.55432
 Alpha  occ. eigenvalues --   -0.55169  -0.54908  -0.54356  -0.53911  -0.53747
 Alpha  occ. eigenvalues --   -0.53425  -0.53422  -0.53242  -0.53206  -0.53011
 Alpha  occ. eigenvalues --   -0.52790  -0.52767  -0.52547  -0.52398  -0.52214
 Alpha  occ. eigenvalues --   -0.51644  -0.51593  -0.51574  -0.51479  -0.51423
 Alpha  occ. eigenvalues --   -0.51109  -0.51017  -0.50721  -0.50379  -0.50158
 Alpha  occ. eigenvalues --   -0.50072  -0.50028  -0.50014  -0.49875  -0.49415
 Alpha  occ. eigenvalues --   -0.49247  -0.49082  -0.49043  -0.48917  -0.48746
 Alpha  occ. eigenvalues --   -0.48571  -0.48476  -0.48325  -0.48230  -0.48105
 Alpha  occ. eigenvalues --   -0.48013  -0.47701  -0.47411  -0.47408  -0.47253
 Alpha  occ. eigenvalues --   -0.46903  -0.46865  -0.46771  -0.46495  -0.46337
 Alpha  occ. eigenvalues --   -0.46205  -0.46106  -0.46044  -0.45900  -0.45797
 Alpha  occ. eigenvalues --   -0.45707  -0.45515  -0.45275  -0.45141  -0.44877
 Alpha  occ. eigenvalues --   -0.44778  -0.44533  -0.44440  -0.44026  -0.43723
 Alpha  occ. eigenvalues --   -0.43635  -0.43552  -0.43469  -0.43434  -0.43088
 Alpha  occ. eigenvalues --   -0.43026  -0.42867  -0.42852  -0.42679  -0.42649
 Alpha  occ. eigenvalues --   -0.42601  -0.42201  -0.42144  -0.42069  -0.41900
 Alpha  occ. eigenvalues --   -0.41850  -0.41619  -0.41425  -0.41336  -0.41190
 Alpha  occ. eigenvalues --   -0.41165  -0.40958  -0.40809  -0.40574  -0.40311
 Alpha  occ. eigenvalues --   -0.40261  -0.40075  -0.39676  -0.39588  -0.39115
 Alpha  occ. eigenvalues --   -0.38772  -0.38177  -0.37903  -0.37835  -0.37373
 Alpha  occ. eigenvalues --   -0.36990  -0.36940  -0.36520  -0.36256  -0.35842
 Alpha  occ. eigenvalues --   -0.35492  -0.35211  -0.34670  -0.34118  -0.33974
 Alpha  occ. eigenvalues --   -0.33926  -0.32963  -0.32898  -0.31718  -0.31588
 Alpha  occ. eigenvalues --   -0.31432  -0.31309  -0.30754  -0.30591  -0.30535
 Alpha  occ. eigenvalues --   -0.30324  -0.29599  -0.29475  -0.24177  -0.24106
 Alpha  occ. eigenvalues --   -0.21298  -0.21108
 Alpha virt. eigenvalues --   -0.08928  -0.08431  -0.02291  -0.01464  -0.00284
 Alpha virt. eigenvalues --   -0.00181   0.01936   0.02370   0.02412   0.03156
 Alpha virt. eigenvalues --    0.04798   0.05148   0.05281   0.06117   0.06124

 Mulliken charges:
               1
     1  Mg   0.831045
     2  C   -0.003500
     3  C   -0.022628
     4  C   -0.061407
     5  C   -0.094173
     6  N   -0.252733
     7  C   -0.054198
     8  C    0.021051
     9  C   -0.061034
    10  C    0.018201
    11  C    0.057388
    12  C    0.048970
    13  C   -0.081532
    14  H    0.000630
    15  N   -0.364177
    16  C    0.090942
    17  C   -0.170522
    18  C   -0.041474
    19  C    0.129268
    20  C    0.140609
    21  C    0.009622
    22  O   -0.229747
    23  C    0.054910
    24  N   -0.351662
    25  C    0.076938
    26  C   -0.074950
    27  C   -0.035830
    28  C    0.084632
    29  C    0.075273
    30  C    0.058343
    31  C   -0.010536
    32  N   -0.321553
    33  C    0.100473
    34  C   -0.161297
    35  C   -0.007616
    36  C    0.104578
    37  C    0.130295
    38  C    0.044995
    39  O   -0.216218
    40  C    0.039348
    41  C    0.154788
    42  O   -0.173639
    43  O   -0.300074
    44  C    0.179697
    45  H   -0.038472
    46  H   -0.005603
    47  H   -0.029168
    48  H    0.021600
    49  H    0.016305
    50  H    0.019318
    51  H    0.019356
    52  H    0.018308
    53  H    0.008901
    54  H    0.007781
    55  H    0.022208
    56  H    0.037197
    57  H    0.036370
    58  H    0.019921
    59  H    0.011620
    60  H    0.032296
    61  H    0.020459
    62  H    0.045020
    63  H    0.021380
    64  H    0.000795
    65  H    0.029697
    66  H    0.014104
    67  H    0.016446
    68  H    0.016411
    69  H   -0.002382
    70  H    0.007294
    71  H    0.010571
    72  H    0.017269
    73  H    0.008825
    74  H    0.034183
    75  H    0.049497
    76  H    0.040257
    77  H    0.029085
    78  H    0.038741
    79  H    0.042915
    80  Mg   0.852796
    81  C    0.059576
    82  C   -0.070823
    83  C   -0.057474
    84  C   -0.106706
    85  N   -0.271025
    86  C    0.000320
    87  C   -0.067200
    88  C   -0.030303
    89  C    0.007077
    90  C    0.073759
    91  C    0.057192
    92  C   -0.089418
    93  H    0.003801
    94  N   -0.473322
    95  C    0.176011
    96  C   -0.108108
    97  C   -0.095510
    98  C    0.154280
    99  C    0.089100
   100  C    0.047431
   101  O   -0.209003
   102  C    0.040318
   103  N   -0.291846
   104  C    0.056786
   105  C   -0.031490
   106  C   -0.009901
   107  C    0.037001
   108  C    0.062910
   109  C    0.033913
   110  C   -0.009104
   111  N   -0.270807
   112  C    0.124365
   113  C   -0.199723
   114  C    0.032761
   115  C    0.059081
   116  C    0.139567
   117  C    0.025846
   118  O   -0.148464
   119  C   -0.069263
   120  C    0.203359
   121  O   -0.256613
   122  O   -0.319721
   123  C    0.175291
   124  H   -0.039462
   125  H    0.000571
   126  H   -0.042880
   127  H    0.011938
   128  H    0.003437
   129  H    0.020774
   130  H    0.015867
   131  H    0.020554
   132  H    0.007600
   133  H    0.035338
   134  H    0.036301
   135  H    0.033617
   136  H    0.029972
   137  H    0.006221
   138  H    0.032719
   139  H    0.052590
   140  H    0.030730
   141  H    0.020733
   142  H    0.015902
   143  H    0.001396
   144  H   -0.000332
   145  H    0.021550
   146  H    0.019814
   147  H    0.012316
   148  H    0.017930
   149  H    0.013143
   150  H    0.020645
   151  H    0.010245
   152  H    0.013423
   153  H    0.043205
   154  H    0.041354
   155  H    0.043554
   156  H    0.032022
   157  H    0.059375
   158  H    0.031123
 Sum of Mulliken charges =  -0.00000

 Dipole moment (field-independent basis, Debye):
    X=              0.6575    Y=              0.8692    Z=              3.0316  Tot=              3.2216
 Quadrupole moment (field-independent basis, Debye-Ang):
   XX=           -216.9153   YY=           -498.2810   ZZ=           -494.5788
   XY=            -44.2264   XZ=             96.8114   YZ=             36.1942

 Normal termination of Gaussian 16 at Thu Sep  2 18:03:54 2021.
