 Gaussian 16, Revision A.03,
 Gaussian 16:  ES64L-G16RevA.03 25-Dec-2016

 -----------------------------------
 #p cam-b3lyp/Def2SVP td=(nstates=5)
 -----------------------------------

 --------------------------------
 TDDFT excited states in gaussian
 --------------------------------
 Symbolic Z-matrix:
 Charge =  0 Multiplicity = 1

                         Standard orientation:
 ---------------------------------------------------------------------
 Center     Atomic      Atomic             Coordinates (Angstroms)
 Number     Number       Type             X           Y           Z
 ---------------------------------------------------------------------
      1         12           0       11.632919   -0.041126    0.189450
      2          6           0        9.088837   -1.496850   -1.637555
      3          6           0       11.343375    2.746512   -1.809441
      4          6           0       13.717552    1.629145    2.349012
      5          6           0       11.782678   -2.821049    2.214491
      6          7           0       10.243904    0.629101   -1.378050
      7          6           0        9.326677   -0.193585   -2.001721
      8          6           0        8.623278    0.512250   -3.157938
      9          6           0        9.593721    1.726698   -3.405896
     10          6           0       10.399216    1.726318   -2.114863
     11          6           0       10.448283    1.719203   -4.753447
     12          6           0        7.124265    0.889455   -2.932946
     13          6           0        6.188217    0.577817   -4.081536
     14          1           0        5.678596    1.837775   -4.763883
     15          7           0       12.377423    1.898351    0.235807
     16          6           0       12.172344    2.864611   -0.666397
     17          6           0       12.958591    4.043661   -0.347214
     18          6           0       13.672536    3.842423    0.822293
     19          6           0       13.248000    2.436155    1.235232
     20          6           0       12.882122    5.391165   -1.211191
     21          6           0       14.708187    4.817514    1.477362
     22          8           0       14.879299    5.956698    0.958140
     23          6           0       15.449216    4.462631    2.709252
     24          7           0       12.465437   -0.445666    2.224605
     25          6           0       13.392453    0.297272    2.784124
     26          6           0       14.152995   -0.431833    3.871974
     27          6           0       13.529801   -1.865725    3.967686
     28          6           0       12.570444   -1.780297    2.685734
     29          6           0       15.708074   -0.309200    3.955027
     30          6           0       12.753835   -2.307477    5.242284
     31          6           0       12.590725   -3.809914    5.344588
     32          7           0       10.615426   -1.836893    0.289704
     33          6           0       10.841404   -2.945845    1.137536
     34          6           0        9.995548   -4.019699    0.692765
     35          6           0        9.289732   -3.528864   -0.432678
     36          6           0        9.695070   -2.204219   -0.570497
     37          6           0       10.048031   -5.467110    1.158678
     38          6           0        8.379643   -3.910254   -1.394652
     39          8           0        7.696569   -4.877831   -1.592819
     40          6           0        8.072521   -2.528949   -2.175969
     41          6           0        6.736231   -2.068977   -1.595189
     42          8           0        6.583380   -1.495599   -0.533843
     43          8           0        5.756896   -2.450466   -2.498037
     44          6           0        4.378969   -2.203053   -2.086034
     45          1           0       11.442236    3.570728   -2.518684
     46          1           0       14.385600    2.214210    2.984027
     47          1           0       11.819689   -3.809255    2.677641
     48          1           0        8.707010   -0.133015   -4.031943
     49          1           0        8.995876    2.630577   -3.283383
     50          1           0       11.288711    2.357711   -4.481472
     51          1           0        9.987253    2.261293   -5.579466
     52          1           0       10.767914    0.746974   -5.128307
     53          1           0        7.163907    1.965667   -2.763500
     54          1           0        6.677545    0.594813   -1.983577
     55          1           0        5.360915   -0.004363   -3.675017
     56          1           0        6.667341   -0.013323   -4.862231
     57          1           0       12.171955    5.372954   -2.038966
     58          1           0       13.863155    5.641946   -1.616037
     59          1           0       12.487521    6.237011   -0.649929
     60          1           0       16.042121    3.566018    2.531343
     61          1           0       14.796536    4.453309    3.582290
     62          1           0       16.234964    5.214909    2.766156
     63          1           0       13.921291   -0.126606    4.892599
     64          1           0       14.203967   -2.639275    3.599202
     65          1           0       15.977724    0.511746    3.289190
     66          1           0       16.234900   -1.246997    3.774973
     67          1           0       16.081592   -0.008588    4.934019
     68          1           0       11.810903   -1.761177    5.223482
     69          1           0       13.325638   -1.877648    6.064648
     70          1           0       12.577770   -4.066003    6.404294
     71          1           0       13.383317   -4.398342    4.880845
     72          1           0       11.597235   -4.083257    4.989022
     73          1           0        9.459081   -6.149758    0.546051
     74          1           0        9.722294   -5.489888    2.197812
     75          1           0       11.069754   -5.846972    1.154755
     76          1           0        8.131123   -2.661864   -3.256686
     77          1           0        4.141944   -2.822722   -1.221047
     78          1           0        3.676573   -2.361550   -2.903622
     79          1           0        4.283832   -1.174265   -1.739841
     80         12           0      -11.350687    0.410798    0.491348
     81          6           0       -8.764762   -0.235081   -1.974380
     82          6           0      -11.685550   -2.938946    0.670159
     83          6           0      -13.663307    1.003381    2.613474
     84          6           0      -10.996391    3.873385   -0.158143
     85          7           0      -10.244568   -1.439280   -0.584412
     86          6           0       -9.206402   -1.429220   -1.438206
     87          6           0       -8.694967   -2.863549   -1.672102
     88          6           0       -9.994956   -3.633385   -1.146828
     89          6           0      -10.643900   -2.650806   -0.265368
     90          6           0      -10.830022   -4.408566   -2.152177
     91          6           0       -7.399984   -3.064246   -0.866089
     92          6           0       -6.475600   -4.162430   -1.469530
     93          1           0       -6.694614   -4.787356   -2.924320
     94          7           0      -12.528962   -0.812519    1.578474
     95          6           0      -12.604925   -2.187955    1.471023
     96          6           0      -13.671012   -2.648891    2.355233
     97          6           0      -14.211884   -1.505775    2.993946
     98          6           0      -13.457339   -0.374389    2.384091
     99          6           0      -14.068948   -4.049297    2.508396
    100          6           0      -15.347890   -1.394285    4.139860
    101          8           0      -15.571750   -0.358235    4.703676
    102          6           0      -15.977654   -2.648188    4.772611
    103          7           0      -12.379306    2.195633    0.921114
    104          6           0      -13.200678    2.172660    1.967686
    105          6           0      -13.679342    3.528663    2.411991
    106          6           0      -12.545927    4.395259    1.810773
    107          6           0      -12.048222    3.439479    0.672382
    108          6           0      -15.111468    3.943575    1.833210
    109          6           0      -11.416075    4.867064    2.819289
    110          6           0      -11.758801    5.086580    4.321579
    111          7           0      -10.248124    1.599538   -0.844371
    112          6           0      -10.135962    2.944660   -0.974065
    113          6           0       -9.100906    3.298588   -1.835751
    114          6           0       -8.603304    2.101054   -2.263975
    115          6           0       -9.286420    1.072769   -1.645234
    116          6           0       -8.628523    4.718100   -2.137748
    117          6           0       -7.548279    1.552847   -3.129495
    118          8           0       -6.817352    2.052077   -3.971845
    119          6           0       -7.597350   -0.017346   -2.878097
    120          6           0       -7.674681   -0.664002   -4.176340
    121          8           0       -8.674677   -0.775738   -4.892606
    122          8           0       -6.406188   -0.887964   -4.578324
    123          6           0       -6.315137   -1.176173   -5.998440
    124          1           0      -11.912045   -4.004056    0.587410
    125          1           0      -14.484992    1.167355    3.312965
    126          1           0      -10.859465    4.952502   -0.252205
    127          1           0       -8.597129   -3.086593   -2.734617
    128          1           0       -9.622795   -4.422093   -0.494392
    129          1           0      -10.779834   -5.484013   -1.984603
    130          1           0      -10.493315   -4.194047   -3.166255
    131          1           0      -11.879965   -4.116776   -2.177290
    132          1           0       -7.685207   -3.458705    0.109436
    133          1           0       -6.847261   -2.144289   -0.676515
    134          1           0       -6.314205   -4.983212   -0.769958
    135          1           0       -5.492021   -3.706278   -1.358162
    136          1           0      -13.260632   -4.730708    2.243902
    137          1           0      -14.924466   -4.174072    1.844380
    138          1           0      -14.357402   -4.321284    3.523974
    139          1           0      -15.275054   -3.251881    5.347028
    140          1           0      -16.498743   -3.135338    3.948153
    141          1           0      -16.803451   -2.358477    5.422928
    142          1           0      -13.717199    3.425936    3.496217
    143          1           0      -12.910078    5.307063    1.338000
    144          1           0      -15.601139    4.332698    2.725614
    145          1           0      -15.695129    3.112494    1.435747
    146          1           0      -15.109078    4.735513    1.085230
    147          1           0      -10.946767    5.764411    2.418536
    148          1           0      -10.775654    3.984876    2.824208
    149          1           0      -11.666954    4.150903    4.872564
    150          1           0      -12.750572    5.538827    4.287197
    151          1           0      -11.123440    5.841717    4.783086
    152          1           0       -8.854706    5.278630   -1.230384
    153          1           0       -9.193664    5.198789   -2.935747
    154          1           0       -7.559685    4.683896   -2.347970
    155          1           0       -6.668606   -0.274606   -2.367277
    156          1           0       -5.293893   -1.336927   -6.342684
    157          1           0       -6.887444   -0.531364   -6.665568
    158          1           0       -6.762009   -2.146550   -6.217443
 ---------------------------------------------------------------------

 SCF Done:  E(RCAM-B3LYP) =  -4069.78523702     A.U. after   18 cycles

 Excitation energies and oscillator strengths:

 Excited State   1:      Singlet-A      1.8345 eV  675.84 nm  f=0.3723  <S**2>=0.000
     310 -> 316       -0.18799
     312 -> 314        0.68158
     310 <- 316       -0.10391
 This state for optimization and/or second-order correction.
 Total Energy, E(TD-HF/TD-DFT) =  -4069.71781945
 Copying the excited state density for this state as the 1-particle RhoCI density.

 Excited State   2:      Singlet-A      1.8658 eV  664.51 nm  f=0.3676  <S**2>=0.000
     309 -> 315       -0.14269
     311 -> 313        0.68808

 Excited State   3:      Singlet-A      2.2401 eV  553.47 nm  f=0.1578  <S**2>=0.000
     310 -> 314        0.65466
     312 -> 316        0.25289

 Excited State   4:      Singlet-A      2.2637 eV  547.71 nm  f=0.1280  <S**2>=0.000
     309 -> 313        0.64624
     311 -> 315        0.24641
     311 -> 317        0.10335

 Excited State   5:      Singlet-A      3.0991 eV  400.07 nm  f=0.0000  <S**2>=0.000
     312 -> 313        0.70705

 The electronic state is 1-A.
 Alpha  occ. eigenvalues --  -46.89368 -46.89300 -19.24827 -19.24469 -19.20470
 Alpha  occ. eigenvalues --  -19.20192 -19.19829 -19.18800 -19.18700 -19.17689
 Alpha  occ. eigenvalues --  -14.42282 -14.42011 -14.41418 -14.41070 -14.40518
 Alpha  occ. eigenvalues --  -14.39892 -14.38583 -14.38458 -10.39045 -10.38149
 Alpha  occ. eigenvalues --  -10.36998 -10.36922 -10.34756 -10.33369 -10.33046
 Alpha  occ. eigenvalues --  -10.32391 -10.31681 -10.31186 -10.31088 -10.31046
 Alpha  occ. eigenvalues --  -10.30731 -10.30674 -10.30563 -10.30464 -10.30328
 Alpha  occ. eigenvalues --  -10.29763 -10.29762 -10.29544 -10.29521 -10.29368
 Alpha  occ. eigenvalues --  -10.29131 -10.29106 -10.28441 -10.28361 -10.28358
 Alpha  occ. eigenvalues --  -10.28349 -10.28325 -10.28197 -10.28046 -10.28026
 Alpha  occ. eigenvalues --  -10.27892 -10.27774 -10.27645 -10.27462 -10.27456
 Alpha  occ. eigenvalues --  -10.27421 -10.27409 -10.27395 -10.27314 -10.27234
 Alpha  occ. eigenvalues --  -10.27208 -10.27200 -10.27151 -10.27096 -10.27067
 Alpha  occ. eigenvalues --  -10.27064 -10.26926 -10.26902 -10.26900 -10.26846
 Alpha  occ. eigenvalues --  -10.26755 -10.26716 -10.26441 -10.26406 -10.26159
 Alpha  occ. eigenvalues --  -10.26012 -10.25939 -10.25865 -10.25797 -10.25487
 Alpha  occ. eigenvalues --  -10.25409 -10.25308 -10.25282 -10.25169 -10.23659
 Alpha  occ. eigenvalues --  -10.23071  -3.17807  -3.17801  -1.92702  -1.92690
 Alpha  occ. eigenvalues --   -1.92274  -1.92268  -1.92110  -1.92086  -1.16420
 Alpha  occ. eigenvalues --   -1.15414  -1.12552  -1.09772  -1.09392  -1.09113
 Alpha  occ. eigenvalues --   -1.07860  -1.06569  -1.05723  -1.05138  -1.04574
 Alpha  occ. eigenvalues --   -1.04548  -1.03811  -1.03351  -1.03161  -1.02517
 Alpha  occ. eigenvalues --   -0.92281  -0.91526  -0.89164  -0.89108  -0.88669
 Alpha  occ. eigenvalues --   -0.88435  -0.88051  -0.87938  -0.87457  -0.87025
 Alpha  occ. eigenvalues --   -0.86842  -0.86598  -0.85798  -0.85528  -0.84473
 Alpha  occ. eigenvalues --   -0.84301  -0.83611  -0.83161  -0.83041  -0.82317
 Alpha  occ. eigenvalues --   -0.82015  -0.81883  -0.80671  -0.80666  -0.80178
 Alpha  occ. eigenvalues --   -0.80032  -0.78544  -0.77616  -0.77136  -0.76763
 Alpha  occ. eigenvalues --   -0.76685  -0.76576  -0.75649  -0.75289  -0.75202
 Alpha  occ. eigenvalues --   -0.75111  -0.72694  -0.72365  -0.71659  -0.71597
 Alpha  occ. eigenvalues --   -0.69704  -0.69598  -0.69077  -0.68692  -0.67855
 Alpha  occ. eigenvalues --   -0.67511  -0.67308  -0.66704  -0.65563  -0.65459
 Alpha  occ. eigenvalues --   -0.65372  -0.65005  -0.64643  -0.64607  -0.64004
 Alpha  occ. eigenvalues --   -0.63621  -0.61742  -0.61663  -0.60752  -0.59942
 Alpha  occ. eigenvalues --   -0.59436  -0.59434  -0.59179  -0.58993  -0.58429
 Alpha  occ. eigenvalues --   -0.58345  -0.57853  -0.57804  -0.57414  -0.57354
 Alpha  occ. eigenvalues --   -0.56476  -0.56407  -0.55455  -0.55412  -0.55124
 Alpha  occ. eigenvalues --   -0.55002  -0.54567  -0.54156  -0.53970  -0.53896
 Alpha  occ. eigenvalues --   -0.53725  -0.53684  -0.53541  -0.53291  -0.53117
 Alpha  occ. eigenvalues --   -0.52897  -0.52806  -0.52686  -0.52197  -0.51983
 Alpha  occ. eigenvalues --   -0.51612  -0.51573  -0.51225  -0.51101  -0.50999
 Alpha  occ. eigenvalues --   -0.50755  -0.50593  -0.50490  -0.50401  -0.50114
 Alpha  occ. eigenvalues --   -0.49977  -0.49966  -0.49779  -0.49639  -0.49408
 Alpha  occ. eigenvalues --   -0.49024  -0.48999  -0.48859  -0.48703  -0.48666
 Alpha  occ. eigenvalues --   -0.48549  -0.48501  -0.48234  -0.48201  -0.47842
 Alpha  occ. eigenvalues --   -0.47560  -0.47440  -0.47327  -0.47317  -0.47148
 Alpha  occ. eigenvalues --   -0.46987  -0.46661  -0.46502  -0.46148  -0.46148
 Alpha  occ. eigenvalues --   -0.46098  -0.45926  -0.45699  -0.45374  -0.45185
 Alpha  occ. eigenvalues --   -0.45162  -0.45005  -0.44873  -0.44850  -0.44612
 Alpha  occ. eigenvalues --   -0.44581  -0.44315  -0.44265  -0.44246  -0.43993
 Alpha  occ. eigenvalues --   -0.43902  -0.43837  -0.43741  -0.43549  -0.43392
 Alpha  occ. eigenvalues --   -0.43241  -0.43183  -0.43051  -0.42902  -0.42675
 Alpha  occ. eigenvalues --   -0.42599  -0.42519  -0.42445  -0.42411  -0.42192
 Alpha  occ. eigenvalues --   -0.42138  -0.42011  -0.42002  -0.41547  -0.41348
 Alpha  occ. eigenvalues --   -0.41290  -0.40735  -0.40388  -0.40345  -0.40130
 Alpha  occ. eigenvalues --   -0.39820  -0.39672  -0.39263  -0.39249  -0.38907
 Alpha  occ. eigenvalues --   -0.38512  -0.38184  -0.38022  -0.38009  -0.37390
 Alpha  occ. eigenvalues --   -0.37282  -0.36534  -0.36449  -0.36288  -0.35858
 Alpha  occ. eigenvalues --   -0.35587  -0.35284  -0.34372  -0.34244  -0.34108
 Alpha  occ. eigenvalues --   -0.33659  -0.33048  -0.32418  -0.32410  -0.31872
 Alpha  occ. eigenvalues --   -0.31847  -0.31463  -0.30822  -0.30546  -0.30306
 Alpha  occ. eigenvalues --   -0.29629  -0.29416  -0.29073  -0.24034  -0.23313
 Alpha  occ. eigenvalues --   -0.21454  -0.21304
 Alpha virt. eigenvalues --   -0.08417  -0.08194  -0.01760  -0.01016   0.00151
 Alpha virt. eigenvalues --    0.00627   0.01837   0.02024   0.02485   0.02806
 Alpha virt. eigenvalues --    0.04297   0.05236   0.05783   0.05889   0.05943

 Mulliken charges:
               1
     1  Mg   0.828917
     2  C   -0.030318
     3  C   -0.118069
     4  C   -0.096134
     5  C   -0.030621
     6  N   -0.261104
     7  C   -0.046041
     8  C   -0.037657
     9  C   -0.022703
    10  C    0.032280
    11  C    0.082803
    12  C    0.069458
    13  C   -0.053419
    14  H    0.009531
    15  N   -0.381685
    16  C    0.167539
    17  C   -0.136961
    18  C   -0.024731
    19  C    0.115610
    20  C    0.116952
    21  C    0.007369
    22  O   -0.226521
    23  C    0.070481
    24  N   -0.264411
    25  C    0.101615
    26  C   -0.027336
    27  C   -0.054111
    28  C    0.007706
    29  C    0.065031
    30  C    0.060311
    31  C    0.025703
    32  N   -0.347623
    33  C    0.034472
    34  C   -0.140471
    35  C    0.052308
    36  C    0.114943
    37  C    0.104392
    38  C   -0.012441
    39  O   -0.157571
    40  C   -0.046168
    41  C    0.232234
    42  O   -0.212030
    43  O   -0.335404
    44  C    0.185401
    45  H   -0.025814
    46  H   -0.042821
    47  H   -0.041298
    48  H   -0.000709
    49  H    0.006374
    50  H    0.004828
    51  H    0.021916
    52  H    0.031699
    53  H   -0.003835
    54  H    0.028838
    55  H    0.025787
    56  H    0.027051
    57  H   -0.002649
    58  H    0.041075
    59  H    0.035969
    60  H    0.040758
    61  H    0.068694
    62  H    0.028161
    63  H    0.010146
    64  H    0.006632
    65  H    0.011401
    66  H    0.019298
    67  H    0.006852
    68  H    0.016810
    69  H    0.001272
    70  H    0.007620
    71  H    0.022083
    72  H    0.031256
    73  H    0.034041
    74  H    0.015912
    75  H    0.019333
    76  H    0.024934
    77  H    0.037637
    78  H    0.042055
    79  H    0.027164
    80  Mg   0.824280
    81  C    0.010032
    82  C   -0.058202
    83  C   -0.077516
    84  C   -0.071184
    85  N   -0.187799
    86  C   -0.104755
    87  C   -0.021599
    88  C   -0.036089
    89  C   -0.028498
    90  C    0.088089
    91  C    0.048949
    92  C   -0.038073
    93  H    0.035356
    94  N   -0.382877
    95  C    0.143274
    96  C   -0.137959
    97  C   -0.053175
    98  C    0.096517
    99  C    0.105599
   100  C    0.029653
   101  O   -0.167323
   102  C    0.040824
   103  N   -0.248110
   104  C    0.043885
   105  C   -0.049658
   106  C   -0.064483
   107  C    0.033743
   108  C    0.074647
   109  C    0.034645
   110  C    0.005253
   111  N   -0.317545
   112  C    0.075673
   113  C   -0.206307
   114  C    0.001020
   115  C    0.122248
   116  C    0.136321
   117  C    0.060763
   118  O   -0.161679
   119  C   -0.025030
   120  C    0.186434
   121  O   -0.243563
   122  O   -0.299432
   123  C    0.194920
   124  H   -0.035290
   125  H   -0.014101
   126  H   -0.022177
   127  H    0.018007
   128  H   -0.009180
   129  H    0.017891
   130  H    0.020698
   131  H    0.014652
   132  H    0.007893
   133  H    0.024729
   134  H    0.016040
   135  H    0.014719
   136  H    0.021528
   137  H    0.041698
   138  H    0.018434
   139  H    0.065227
   140  H    0.023158
   141  H    0.023918
   142  H    0.019488
   143  H   -0.009427
   144  H    0.020027
   145  H    0.023919
   146  H    0.021239
   147  H    0.012374
   148  H    0.003476
   149  H    0.029324
   150  H    0.014270
   151  H    0.015663
   152  H    0.005768
   153  H    0.029732
   154  H    0.032407
   155  H    0.043103
   156  H    0.030108
   157  H    0.042629
   158  H    0.006786
 Sum of Mulliken charges =  -0.00000

 Dipole moment (field-independent basis, Debye):
    X=              2.3619    Y=             -2.6790    Z=              5.5108  Tot=              6.5669
 Quadrupole moment (field-independent basis, Debye-Ang):
   XX=           -393.3188   YY=           -512.8265   ZZ=           -503.3428
   XY=             32.1667   XZ=             -9.8778   YZ=             -8.3179

 Normal termination of Gaussian 16 at Wed Sep  1 18:19:46 2021.
