 Gaussian 16, Revision A.03,
 Gaussian 16:  ES64L-G16RevA.03 25-Dec-2016

 ----------------------------------------------------------
 #p cam-b3lyp/Def2SVP td=(nstates=5) density=(transition=1)
 ----------------------------------------------------------

 --------------------------------
 TDDFT excited states in gaussian
 --------------------------------
 Symbolic Z-matrix:
 Charge =  0 Multiplicity = 1

                         Standard orientation:
 ---------------------------------------------------------------------
 Center     Atomic      Atomic             Coordinates (Angstroms)
 Number     Number       Type             X           Y           Z
 ---------------------------------------------------------------------
      1         12           0       11.002543    0.092162   -0.069410
      2          6           0        7.960058    0.865769    1.345193
      3          6           0       10.374650   -3.206587    0.553730
      4          6           0       13.176325   -0.621639   -2.452239
      5          6           0       11.464230    3.520446   -0.670406
      6          7           0        9.108494   -1.012833    0.437173
      7          6           0        8.109324   -0.491268    1.194563
      8          6           0        7.204759   -1.542785    1.765956
      9          6           0        8.209618   -2.736171    1.861544
     10          6           0        9.343045   -2.273929    0.957792
     11          6           0        8.619151   -3.072692    3.324091
     12          6           0        5.973489   -1.885479    0.785917
     13          6           0        4.595775   -2.243014    1.514318
     14          1           0        4.206386   -3.643236    1.109604
     15          7           0       11.814273   -1.681867   -0.691635
     16          6           0       11.409244   -2.942202   -0.421332
     17          6           0       12.214002   -3.910485   -1.155485
     18          6           0       13.056208   -3.169012   -2.009378
     19          6           0       12.689727   -1.750986   -1.735934
     20          6           0       12.000717   -5.432763   -0.972581
     21          6           0       13.899687   -3.806018   -3.078328
     22          8           0       13.932391   -5.005378   -3.171648
     23          6           0       14.714664   -3.029248   -4.130010
     24          7           0       12.293585    1.271590   -1.329143
     25          6           0       13.043587    0.748890   -2.194069
     26          6           0       13.698459    1.738735   -3.084942
     27          6           0       13.167293    3.112307   -2.514753
     28          6           0       12.264865    2.643188   -1.457731
     29          6           0       15.251460    1.541136   -3.129249
     30          6           0       12.412799    3.974340   -3.629792
     31          6           0       12.230516    5.509902   -3.357505
     32          7           0       10.021281    1.867496    0.310974
     33          6           0       10.388188    3.183837    0.097584
     34          6           0        9.456817    4.077046    0.729001
     35          6           0        8.478076    3.187232    1.295243
     36          6           0        8.812990    1.899619    0.923102
     37          6           0        9.507251    5.570135    0.778900
     38          6           0        7.293650    3.148252    2.081548
     39          8           0        6.566769    3.997614    2.612849
     40          6           0        6.802175    1.666033    1.984067
     41          6           0        6.392380    1.261552    3.360891
     42          8           0        5.236739    1.326696    3.803000
     43          8           0        7.490780    0.865210    4.072749
     44          6           0        7.068679    0.512106    5.457312
     45          1           0       10.343100   -4.264969    0.822136
     46          1           0       13.844588   -0.889391   -3.272650
     47          1           0       11.539182    4.567918   -0.972327
     48          1           0        6.956101   -1.163471    2.756307
     49          1           0        7.722603   -3.640065    1.495259
     50          1           0        8.268499   -4.073519    3.574399
     51          1           0        8.070546   -2.390538    3.974377
     52          1           0        9.694887   -2.920140    3.405598
     53          1           0        6.164223   -2.631275    0.014372
     54          1           0        5.745783   -1.028546    0.152764
     55          1           0        3.875505   -1.557830    1.067039
     56          1           0        4.495346   -2.089460    2.588826
     57          1           0       11.737567   -5.972375   -1.882271
     58          1           0       11.278128   -5.690546   -0.197502
     59          1           0       12.930767   -5.832388   -0.569718
     60          1           0       15.517985   -2.433366   -3.698001
     61          1           0       14.105582   -2.400412   -4.779870
     62          1           0       15.046658   -3.792731   -4.834214
     63          1           0       13.242332    1.539423   -4.054554
     64          1           0       13.866553    3.760182   -1.986720
     65          1           0       15.515404    1.357093   -4.170441
     66          1           0       15.575887    0.719500   -2.490432
     67          1           0       15.822207    2.455258   -2.966498
     68          1           0       11.416498    3.567801   -3.804882
     69          1           0       12.992628    3.830734   -4.540360
     70          1           0       12.652482    6.255237   -4.031130
     71          1           0       12.686987    5.785765   -2.407892
     72          1           0       11.170946    5.756340   -3.288879
     73          1           0       10.421818    6.040961    0.418890
     74          1           0        9.347071    5.712503    1.846866
     75          1           0        8.585005    5.803906    0.246846
     76          1           0        5.982026    1.510417    1.282368
     77          1           0        6.777251    1.418237    5.987484
     78          1           0        7.899149    0.176485    6.078460
     79          1           0        6.285769   -0.242599    5.379792
     80         12           0      -10.722103    0.050314   -0.462993
     81          6           0       -8.071560   -1.358862    1.278620
     82          6           0      -10.137254    3.022230    1.020176
     83          6           0      -13.407738    1.247472   -2.062699
     84          6           0      -11.348842   -3.113361   -1.826933
     85          7           0       -9.205633    0.692600    0.976892
     86          6           0       -8.194900    0.020776    1.474206
     87          6           0       -7.354284    1.024368    2.390524
     88          6           0       -8.483940    1.954408    2.779577
     89          6           0       -9.349419    1.940452    1.479547
     90          6           0       -9.174778    1.449476    4.064683
     91          6           0       -6.071761    1.551591    1.614362
     92          6           0       -4.968309    2.115295    2.514919
     93          1           0       -5.269514    2.343842    3.986050
     94          7           0      -11.526977    1.896936   -0.651975
     95          6           0      -11.073985    3.038370    0.005340
     96          6           0      -11.793699    4.209242   -0.579661
     97          6           0      -12.831297    3.688513   -1.464395
     98          6           0      -12.632154    2.220956   -1.330061
     99          6           0      -11.477004    5.636771   -0.201383
    100          6           0      -13.893405    4.432026   -2.398945
    101          8           0      -14.669188    3.842610   -3.158967
    102          6           0      -13.905735    5.945073   -2.334538
    103          7           0      -12.197825   -0.803930   -1.635326
    104          6           0      -13.208077   -0.123600   -2.170382
    105          6           0      -14.218697   -1.038317   -2.928835
    106          6           0      -13.392751   -2.329219   -3.023289
    107          6           0      -12.196379   -2.079761   -2.159721
    108          6           0      -15.596167   -1.204595   -2.228392
    109          6           0      -13.105358   -2.942035   -4.465750
    110          6           0      -11.740032   -2.744996   -5.037851
    111          7           0      -10.047502   -1.908149   -0.182916
    112          6           0      -10.335312   -3.060259   -0.833854
    113          6           0       -9.568187   -4.165250   -0.380587
    114          6           0       -8.618743   -3.534969    0.483939
    115          6           0       -8.985586   -2.209204    0.525123
    116          6           0       -9.605829   -5.647864   -0.646395
    117          6           0       -7.470008   -3.696393    1.324627
    118          8           0       -6.812302   -4.670459    1.621114
    119          6           0       -6.951392   -2.289856    1.763439
    120          6           0       -6.746314   -2.273002    3.214914
    121          8           0       -7.658037   -2.454978    4.007394
    122          8           0       -5.382941   -2.210776    3.601077
    123          6           0       -5.115617   -2.310192    5.044499
    124          1           0       -9.957374    3.947206    1.569984
    125          1           0      -14.300804    1.659165   -2.535844
    126          1           0      -11.605326   -4.093312   -2.233967
    127          1           0       -6.935667    0.484831    3.239020
    128          1           0       -8.186793    2.995459    2.903640
    129          1           0       -8.913030    2.226144    4.784066
    130          1           0       -8.801475    0.479663    4.396259
    131          1           0      -10.245482    1.521842    3.875029
    132          1           0       -6.353569    2.344112    0.920537
    133          1           0       -5.653017    0.666544    1.134786
    134          1           0       -4.652558    3.056296    2.065504
    135          1           0       -4.119380    1.437110    2.431946
    136          1           0      -10.415837    5.765716    0.014729
    137          1           0      -12.034865    6.065991    0.630248
    138          1           0      -11.659071    6.269365   -1.070034
    139          1           0      -13.988720    6.151477   -1.267743
    140          1           0      -14.768503    6.412953   -2.807804
    141          1           0      -13.010744    6.342373   -2.813615
    142          1           0      -14.439414   -0.648125   -3.922262
    143          1           0      -13.924070   -3.055190   -2.408934
    144          1           0      -15.832027   -2.265167   -2.319218
    145          1           0      -16.418697   -0.598866   -2.605536
    146          1           0      -15.483963   -0.876986   -1.194828
    147          1           0      -13.891155   -2.607450   -5.143105
    148          1           0      -13.164488   -4.028452   -4.404243
    149          1           0      -11.258283   -3.722454   -5.071809
    150          1           0      -11.024988   -2.216308   -4.406328
    151          1           0      -11.727263   -2.359543   -6.057402
    152          1           0      -10.453114   -5.937413   -1.268982
    153          1           0       -9.540939   -6.178942    0.303705
    154          1           0       -8.803858   -6.051692   -1.264722
    155          1           0       -6.008204   -2.037175    1.279756
    156          1           0       -4.090556   -2.087784    5.339928
    157          1           0       -5.362055   -3.348530    5.268022
    158          1           0       -5.861551   -1.673733    5.519074
 ---------------------------------------------------------------------

 SCF Done:  E(RCAM-B3LYP) =  -4069.80808184     A.U. after   19 cycles

 Excitation energies and oscillator strengths:

 Excited State   1:      Singlet-A      1.6898 eV  733.73 nm  f=0.3307  <S**2>=0.000
     309 -> 315       -0.16409
     312 -> 313        0.68748
     309 <- 315       -0.10154
 This state for optimization and/or second-order correction.
 Total Energy, E(TD-HF/TD-DFT) =  -4069.74598389
 Copying the excited state density for this state as the 1-particle RhoCI density.

 Excited State   2:      Singlet-A      1.7355 eV  714.42 nm  f=0.4147  <S**2>=0.000
     310 -> 316        0.17768
     311 -> 314        0.68601
     310 <- 316        0.10683

 Excited State   3:      Singlet-A      2.2115 eV  560.64 nm  f=0.1424  <S**2>=0.000
     309 -> 313        0.58631
     310 -> 314        0.26655
     311 -> 316       -0.10334
     312 -> 315        0.25468

 Excited State   4:      Singlet-A      2.2157 eV  559.58 nm  f=0.1187  <S**2>=0.000
     309 -> 313       -0.25982
     310 -> 314        0.59842
     311 -> 316       -0.23542
     312 -> 315       -0.11484

 Excited State   5:      Singlet-A      2.9535 eV  419.79 nm  f=0.0000  <S**2>=0.000
     311 -> 313        0.70704

 The electronic state is 1-A.
 Alpha  occ. eigenvalues --  -46.89219 -46.87605 -19.25568 -19.23693 -19.20341
 Alpha  occ. eigenvalues --  -19.19514 -19.19287 -19.19054 -19.17911 -19.17737
 Alpha  occ. eigenvalues --  -14.42111 -14.41901 -14.41844 -14.41305 -14.40306
 Alpha  occ. eigenvalues --  -14.39953 -14.38589 -14.38474 -10.38672 -10.38672
 Alpha  occ. eigenvalues --  -10.37098 -10.35748 -10.34083 -10.33938 -10.32311
 Alpha  occ. eigenvalues --  -10.31720 -10.31710 -10.31155 -10.30986 -10.30982
 Alpha  occ. eigenvalues --  -10.30837 -10.30829 -10.30684 -10.30444 -10.30274
 Alpha  occ. eigenvalues --  -10.30251 -10.30156 -10.29960 -10.29703 -10.29369
 Alpha  occ. eigenvalues --  -10.28862 -10.28718 -10.28666 -10.28393 -10.28388
 Alpha  occ. eigenvalues --  -10.28323 -10.28210 -10.28166 -10.28034 -10.27951
 Alpha  occ. eigenvalues --  -10.27930 -10.27848 -10.27793 -10.27755 -10.27723
 Alpha  occ. eigenvalues --  -10.27664 -10.27594 -10.27564 -10.27441 -10.27434
 Alpha  occ. eigenvalues --  -10.27393 -10.27342 -10.27267 -10.27164 -10.27137
 Alpha  occ. eigenvalues --  -10.27113 -10.27032 -10.26998 -10.26787 -10.26669
 Alpha  occ. eigenvalues --  -10.26647 -10.26634 -10.26609 -10.26565 -10.26295
 Alpha  occ. eigenvalues --  -10.26238 -10.26215 -10.26191 -10.25743 -10.25631
 Alpha  occ. eigenvalues --  -10.25624 -10.25472 -10.25425 -10.24434 -10.24406
 Alpha  occ. eigenvalues --  -10.24023  -3.17792  -3.16370  -1.92680  -1.92262
 Alpha  occ. eigenvalues --   -1.92084  -1.91281  -1.90789  -1.90717  -1.15957
 Alpha  occ. eigenvalues --   -1.14288  -1.11947  -1.10348  -1.09408  -1.08119
 Alpha  occ. eigenvalues --   -1.07051  -1.06533  -1.06438  -1.05417  -1.04587
 Alpha  occ. eigenvalues --   -1.04560  -1.03996  -1.03932  -1.03007  -1.02826
 Alpha  occ. eigenvalues --   -0.92499  -0.91959  -0.89734  -0.89067  -0.88690
 Alpha  occ. eigenvalues --   -0.88369  -0.88237  -0.88118  -0.87294  -0.87138
 Alpha  occ. eigenvalues --   -0.86972  -0.86873  -0.86631  -0.86108  -0.84290
 Alpha  occ. eigenvalues --   -0.84117  -0.83809  -0.83524  -0.82579  -0.82421
 Alpha  occ. eigenvalues --   -0.82273  -0.81810  -0.80908  -0.80785  -0.80344
 Alpha  occ. eigenvalues --   -0.79888  -0.78435  -0.78428  -0.77835  -0.77100
 Alpha  occ. eigenvalues --   -0.76789  -0.76464  -0.75975  -0.75647  -0.75483
 Alpha  occ. eigenvalues --   -0.74908  -0.72690  -0.72659  -0.72217  -0.71013
 Alpha  occ. eigenvalues --   -0.70496  -0.69305  -0.69122  -0.68571  -0.68144
 Alpha  occ. eigenvalues --   -0.67729  -0.67715  -0.66826  -0.66437  -0.65344
 Alpha  occ. eigenvalues --   -0.64879  -0.64848  -0.64505  -0.64459  -0.64023
 Alpha  occ. eigenvalues --   -0.63807  -0.62425  -0.61055  -0.60512  -0.60485
 Alpha  occ. eigenvalues --   -0.59618  -0.59414  -0.59177  -0.58961  -0.58799
 Alpha  occ. eigenvalues --   -0.57975  -0.57843  -0.57810  -0.57446  -0.56996
 Alpha  occ. eigenvalues --   -0.56696  -0.56213  -0.55667  -0.55649  -0.55501
 Alpha  occ. eigenvalues --   -0.55282  -0.55043  -0.54624  -0.54143  -0.53749
 Alpha  occ. eigenvalues --   -0.53581  -0.53483  -0.53216  -0.52945  -0.52818
 Alpha  occ. eigenvalues --   -0.52658  -0.52508  -0.52385  -0.52194  -0.51972
 Alpha  occ. eigenvalues --   -0.51955  -0.51703  -0.51601  -0.51240  -0.51188
 Alpha  occ. eigenvalues --   -0.51041  -0.50647  -0.50574  -0.50529  -0.50403
 Alpha  occ. eigenvalues --   -0.50189  -0.50180  -0.49899  -0.49687  -0.49679
 Alpha  occ. eigenvalues --   -0.49366  -0.49144  -0.49054  -0.48941  -0.48856
 Alpha  occ. eigenvalues --   -0.48644  -0.48626  -0.48406  -0.48342  -0.48334
 Alpha  occ. eigenvalues --   -0.47759  -0.47680  -0.47593  -0.47399  -0.47181
 Alpha  occ. eigenvalues --   -0.46915  -0.46815  -0.46712  -0.46293  -0.46269
 Alpha  occ. eigenvalues --   -0.46221  -0.46130  -0.45848  -0.45826  -0.45805
 Alpha  occ. eigenvalues --   -0.45642  -0.45415  -0.45368  -0.45094  -0.44757
 Alpha  occ. eigenvalues --   -0.44648  -0.44486  -0.44415  -0.44299  -0.44199
 Alpha  occ. eigenvalues --   -0.44157  -0.43969  -0.43861  -0.43766  -0.43374
 Alpha  occ. eigenvalues --   -0.43276  -0.43160  -0.43157  -0.43027  -0.42911
 Alpha  occ. eigenvalues --   -0.42824  -0.42603  -0.42306  -0.42189  -0.41968
 Alpha  occ. eigenvalues --   -0.41889  -0.41882  -0.41558  -0.41445  -0.41257
 Alpha  occ. eigenvalues --   -0.41159  -0.40856  -0.40771  -0.40770  -0.40388
 Alpha  occ. eigenvalues --   -0.40054  -0.39978  -0.39823  -0.39622  -0.39000
 Alpha  occ. eigenvalues --   -0.38590  -0.38278  -0.38002  -0.37863  -0.37684
 Alpha  occ. eigenvalues --   -0.37401  -0.36820  -0.36699  -0.36452  -0.36413
 Alpha  occ. eigenvalues --   -0.35987  -0.35408  -0.34958  -0.34267  -0.33739
 Alpha  occ. eigenvalues --   -0.33597  -0.33390  -0.33091  -0.32056  -0.31899
 Alpha  occ. eigenvalues --   -0.31372  -0.30997  -0.30595  -0.30345  -0.30060
 Alpha  occ. eigenvalues --   -0.30014  -0.29404  -0.28962  -0.24179  -0.23734
 Alpha  occ. eigenvalues --   -0.21232  -0.21160
 Alpha virt. eigenvalues --   -0.08793  -0.08677  -0.01795  -0.01091   0.00133
 Alpha virt. eigenvalues --    0.00207   0.01668   0.02362   0.02635   0.03668
 Alpha virt. eigenvalues --    0.04634   0.04990   0.05501   0.05821   0.06014

 Mulliken charges:
               1
     1  Mg  12.000342
     2  C    6.017498
     3  C    5.985367
     4  C    5.976191
     5  C    6.006351
     6  N    7.008207
     7  C    5.963586
     8  C    6.011145
     9  C    5.985018
    10  C    6.034410
    11  C    5.996651
    12  C    5.999184
    13  C    6.002100
    14  H    0.990831
    15  N    6.990090
    16  C    6.043773
    17  C    6.021699
    18  C    6.013970
    19  C    6.039290
    20  C    5.994437
    21  C    6.008101
    22  O    8.018548
    23  C    5.997766
    24  N    6.998970
    25  C    6.034667
    26  C    5.989931
    27  C    6.010824
    28  C    5.966435
    29  C    5.997006
    30  C    6.007502
    31  C    6.001238
    32  N    7.001509
    33  C    5.967586
    34  C    5.967013
    35  C    5.999870
    36  C    5.971610
    37  C    6.001380
    38  C    5.984979
    39  O    7.969716
    40  C    6.000931
    41  C    5.995720
    42  O    7.993151
    43  O    8.001259
    44  C    6.001328
    45  H    1.010354
    46  H    1.005818
    47  H    0.991025
    48  H    1.002917
    49  H    1.006156
    50  H    1.003952
    51  H    1.016340
    52  H    0.999611
    53  H    0.988343
    54  H    1.005413
    55  H    1.002290
    56  H    1.000516
    57  H    1.019294
    58  H    1.019210
    59  H    1.018827
    60  H    1.010767
    61  H    1.011331
    62  H    1.011338
    63  H    0.999200
    64  H    0.998817
    65  H    1.000777
    66  H    0.994331
    67  H    1.010092
    68  H    0.997189
    69  H    0.987131
    70  H    0.993807
    71  H    1.001775
    72  H    1.004089
    73  H    0.980267
    74  H    0.982673
    75  H    0.980479
    76  H    0.991357
    77  H    1.000201
    78  H    0.993319
    79  H    0.993813
    80  Mg  11.999916
    81  C    6.001081
    82  C    5.999831
    83  C    5.998708
    84  C    5.999966
    85  N    7.000636
    86  C    5.998772
    87  C    5.999934
    88  C    5.999871
    89  C    6.001061
    90  C    6.000053
    91  C    6.000204
    92  C    5.999767
    93  H    0.999956
    94  N    6.999606
    95  C    6.001679
    96  C    6.000772
    97  C    6.000757
    98  C    6.001291
    99  C    5.999669
   100  C    6.000452
   101  O    8.000901
   102  C    5.999819
   103  N    6.999567
   104  C    6.001481
   105  C    5.999608
   106  C    6.000404
   107  C    5.999054
   108  C    6.000036
   109  C    6.000101
   110  C    6.000208
   111  N    6.999965
   112  C    5.998794
   113  C    5.998652
   114  C    5.999764
   115  C    5.998964
   116  C    6.000270
   117  C    5.999402
   118  O    7.998564
   119  C    5.999933
   120  C    5.999832
   121  O    7.999650
   122  O    8.000116
   123  C    6.000088
   124  H    1.000789
   125  H    0.999896
   126  H    0.999156
   127  H    1.000240
   128  H    1.000411
   129  H    1.000388
   130  H    1.000497
   131  H    0.999649
   132  H    0.999605
   133  H    1.000221
   134  H    1.000660
   135  H    1.000691
   136  H    1.001019
   137  H    1.000840
   138  H    1.000683
   139  H    1.000153
   140  H    1.000412
   141  H    1.000434
   142  H    0.999847
   143  H    0.999775
   144  H    1.000188
   145  H    0.999762
   146  H    0.999955
   147  H    0.999427
   148  H    0.999789
   149  H    0.999852
   150  H    1.000273
   151  H    0.999473
   152  H    0.999087
   153  H    0.999087
   154  H    0.998762
   155  H    1.000051
   156  H    1.000364
   157  H    0.999553
   158  H    0.999849
 Sum of Mulliken charges = 624.00000

 Dipole moment (field-independent basis, Debye):
    X=              4.3561    Y=             -8.7596    Z=             -2.7379  Tot=             10.1589
 Quadrupole moment (field-independent basis, Debye-Ang):
   XX=             94.0367   YY=             -1.8024   ZZ=              1.3517
   XY=           -104.8102   XZ=            -30.8384   YZ=              2.1297

 Normal termination of Gaussian 16 at Thu Sep 23 05:01:09 2021.
