 Gaussian 16, Revision A.03,
 Gaussian 16:  ES64L-G16RevA.03 25-Dec-2016

 ----------------------------------------------------------
 #p cam-b3lyp/Def2SVP td=(nstates=5) density=(transition=1)
 ----------------------------------------------------------

 --------------------------------
 TDDFT excited states in gaussian
 --------------------------------
 Symbolic Z-matrix:
 Charge =  0 Multiplicity = 1

                         Standard orientation:
 ---------------------------------------------------------------------
 Center     Atomic      Atomic             Coordinates (Angstroms)
 Number     Number       Type             X           Y           Z
 ---------------------------------------------------------------------
      1         12           0      -25.891104    0.289164    0.548440
      2          6           0      -23.294354   -1.778083   -0.378606
      3          6           0      -28.031913   -2.044011   -0.747816
      4          6           0      -28.422421    2.431270    1.187362
      5          6           0      -23.619746    2.814912    1.290502
      6          7           0      -25.586530   -1.655711   -0.585410
      7          6           0      -24.522662   -2.358993   -0.656679
      8          6           0      -24.677875   -3.842758   -1.275333
      9          6           0      -26.207651   -3.759532   -1.660651
     10          6           0      -26.670950   -2.358037   -1.038208
     11          6           0      -26.513908   -3.719936   -3.248646
     12          6           0      -24.326413   -5.036273   -0.285231
     13          6           0      -23.734585   -6.351000   -0.906399
     14          1           0      -23.788230   -6.471970   -2.399420
     15          7           0      -27.893256    0.190107    0.342843
     16          6           0      -28.661852   -0.933062   -0.158080
     17          6           0      -30.073682   -0.586367   -0.032283
     18          6           0      -30.201638    0.750152    0.421362
     19          6           0      -28.812701    1.169421    0.715790
     20          6           0      -31.061099   -1.646535   -0.364392
     21          6           0      -31.452855    1.611658    0.712102
     22          8           0      -31.450004    2.771508    1.000126
     23          6           0      -32.799754    0.917553    0.425482
     24          7           0      -26.071315    2.389125    1.057433
     25          6           0      -27.170983    3.042583    1.262365
     26          6           0      -26.912731    4.567024    1.428565
     27          6           0      -25.375400    4.667960    1.574350
     28          6           0      -24.959141    3.201350    1.312541
     29          6           0      -27.483310    5.359923    0.233474
     30          6           0      -24.942671    5.247597    2.955993
     31          6           0      -25.217486    6.748191    3.145402
     32          7           0      -23.842069    0.522321    0.486970
     33          6           0      -23.067185    1.583020    0.921381
     34          6           0      -21.695159    1.167915    0.792325
     35          6           0      -21.672843   -0.148250    0.241213
     36          6           0      -23.054376   -0.462906    0.126531
     37          6           0      -20.570133    1.972687    1.099099
     38          6           0      -20.895638   -1.281675   -0.147538
     39          8           0      -19.635136   -1.381737   -0.229399
     40          6           0      -21.943180   -2.336675   -0.676178
     41          6           0      -21.626536   -2.600975   -2.063502
     42          8           0      -21.974266   -1.887836   -3.004388
     43          8           0      -20.766055   -3.668984   -2.084804
     44          6           0      -20.152231   -3.892465   -3.410849
     45          1           0      -28.737759   -2.757925   -1.176355
     46          1           0      -29.292256    3.059575    1.393355
     47          1           0      -22.947654    3.617051    1.603941
     48          1           0      -24.062894   -3.806185   -2.174895
     49          1           0      -26.741374   -4.622075   -1.262071
     50          1           0      -25.601474   -3.409521   -3.758560
     51          1           0      -27.311761   -3.005421   -3.450540
     52          1           0      -26.844927   -4.655320   -3.701027
     53          1           0      -25.288069   -5.285574    0.162496
     54          1           0      -23.814531   -4.764230    0.638487
     55          1           0      -24.185662   -7.263237   -0.516133
     56          1           0      -22.664833   -6.388702   -0.700499
     57          1           0      -31.259479   -1.664750   -1.436416
     58          1           0      -31.942685   -1.623876    0.276384
     59          1           0      -30.601092   -2.597583   -0.097115
     60          1           0      -33.089924    0.166559    1.160930
     61          1           0      -32.613649    0.491993   -0.560085
     62          1           0      -33.655838    1.578281    0.292174
     63          1           0      -27.411370    4.785696    2.372532
     64          1           0      -24.969982    5.263728    0.756583
     65          1           0      -27.592510    4.801506   -0.696486
     66          1           0      -26.908126    6.207473   -0.140729
     67          1           0      -28.461866    5.708912    0.563099
     68          1           0      -23.865049    5.130614    3.061960
     69          1           0      -25.422850    4.685566    3.757738
     70          1           0      -25.769665    7.093768    2.271448
     71          1           0      -24.282502    7.294359    3.019582
     72          1           0      -25.652276    7.091338    4.083874
     73          1           0      -20.821864    2.439159    2.051614
     74          1           0      -20.352229    2.784057    0.404815
     75          1           0      -19.679212    1.344320    1.075077
     76          1           0      -21.713148   -3.222814   -0.084033
     77          1           0      -19.512038   -3.029316   -3.595296
     78          1           0      -20.898484   -4.113710   -4.173188
     79          1           0      -19.515452   -4.773223   -3.326461
     80         12           0       26.241721   -0.271954   -0.327639
     81          6           0       22.762436   -0.387543    0.451402
     82          6           0       25.489232    2.222251   -2.383045
     83          6           0       29.507708    0.595676   -0.372931
     84          6           0       26.701142   -2.236773    2.609811
     85          7           0       24.400089    0.673642   -0.964729
     86          6           0       23.059439    0.428500   -0.596519
     87          6           0       22.040625    1.347142   -1.341815
     88          6           0       22.985280    2.136577   -2.291774
     89          6           0       24.385645    1.593605   -1.936638
     90          6           0       22.491465    1.905638   -3.729665
     91          6           0       21.133151    2.309584   -0.460317
     92          6           0       19.634761    2.029670   -0.460633
     93          1           0       18.697195    3.181913   -0.875574
     94          7           0       27.362204    1.102260   -1.287978
     95          6           0       26.832666    2.086020   -2.122884
     96          6           0       27.864161    2.806812   -2.752271
     97          6           0       29.072193    2.285291   -2.327443
     98          6           0       28.729604    1.317244   -1.305246
     99          6           0       27.753211    3.977490   -3.798257
    100          6           0       30.405189    2.754129   -2.861865
    101          8           0       30.533460    3.520687   -3.769659
    102          6           0       31.695442    2.041019   -2.221236
    103          7           0       27.872673   -0.684371    0.970833
    104          6           0       29.132575   -0.228693    0.693224
    105          6           0       30.053748   -0.649849    1.910340
    106          6           0       29.247956   -1.629652    2.779539
    107          6           0       27.830525   -1.511444    2.100191
    108          6           0       31.439218   -1.090961    1.532342
    109          6           0       29.169508   -1.097672    4.205124
    110          6           0       28.903631   -2.095299    5.301040
    111          7           0       24.996051   -1.358847    1.096848
    112          6           0       25.334493   -2.115956    2.192958
    113          6           0       24.170794   -2.665578    2.787791
    114          6           0       23.064778   -2.093301    2.115895
    115          6           0       23.658193   -1.209499    1.170841
    116          6           0       24.092328   -3.525457    3.984957
    117          6           0       21.608499   -1.949837    1.985206
    118          8           0       20.715533   -2.552532    2.595854
    119          6           0       21.330302   -0.856489    0.883459
    120          6           0       20.751452   -1.488120   -0.272241
    121          8           0       21.450791   -2.175301   -1.053702
    122          8           0       19.430452   -1.222601   -0.255111
    123          6           0       18.614072   -1.592671   -1.443635
    124          1           0       25.274744    3.020960   -3.096633
    125          1           0       30.565433    0.852360   -0.462460
    126          1           0       26.782353   -2.941135    3.439919
    127          1           0       21.363388    0.735999   -1.938354
    128          1           0       23.008287    3.207380   -2.091695
    129          1           0       23.249246    2.322581   -4.392381
    130          1           0       21.534566    2.361267   -3.983964
    131          1           0       22.379796    0.846671   -3.965209
    132          1           0       21.207884    3.271640   -0.967278
    133          1           0       21.531515    2.376137    0.552152
    134          1           0       19.370261    1.686547    0.540157
    135          1           0       19.421081    1.229748   -1.170430
    136          1           0       28.351472    4.792122   -3.389628
    137          1           0       26.724501    4.313751   -3.926876
    138          1           0       28.021603    3.725915   -4.824273
    139          1           0       32.546313    2.406438   -2.795427
    140          1           0       31.476222    0.980925   -2.350890
    141          1           0       31.646360    2.379297   -1.186263
    142          1           0       30.182229    0.285320    2.456505
    143          1           0       29.605251   -2.658496    2.822258
    144          1           0       31.783377   -1.809668    2.275559
    145          1           0       32.048097   -0.186672    1.527457
    146          1           0       31.531797   -1.462904    0.512623
    147          1           0       28.440059   -0.295865    4.323242
    148          1           0       30.072397   -0.559278    4.493191
    149          1           0       28.990085   -3.128432    4.964989
    150          1           0       27.888786   -1.928098    5.662495
    151          1           0       29.498406   -1.865131    6.184935
    152          1           0       24.993083   -4.127481    4.108712
    153          1           0       23.224711   -4.166213    3.825696
    154          1           0       24.009895   -2.839125    4.828033
    155          1           0       20.777943    0.015313    1.234147
    156          1           0       17.672142   -1.844389   -0.954111
    157          1           0       19.037342   -2.401347   -2.038715
    158          1           0       18.332210   -0.713645   -2.024243
 ---------------------------------------------------------------------

 SCF Done:  E(RCAM-B3LYP) =  -4069.82472398     A.U. after   18 cycles

 Excitation energies and oscillator strengths:

 Excited State   1:      Singlet-A      1.7225 eV  719.79 nm  f=0.3889  <S**2>=0.000
     309 -> 315       -0.17109
     311 -> 313        0.68746
     309 <- 315       -0.10386
 This state for optimization and/or second-order correction.
 Total Energy, E(TD-HF/TD-DFT) =  -4069.76142350
 Copying the excited state density for this state as the 1-particle RhoCI density.

 Excited State   2:      Singlet-A      1.7724 eV  699.51 nm  f=0.3813  <S**2>=0.000
     310 -> 316       -0.19901
     312 -> 314        0.67934
     310 <- 316       -0.10974

 Excited State   3:      Singlet-A      2.2144 eV  559.90 nm  f=0.1114  <S**2>=0.000
     310 -> 314        0.64302
     312 -> 316        0.28129

 Excited State   4:      Singlet-A      2.2584 eV  549.00 nm  f=0.1173  <S**2>=0.000
     309 -> 313        0.63725
     311 -> 315        0.28974

 Excited State   5:      Singlet-A      3.2153 eV  385.60 nm  f=0.0000  <S**2>=0.000
     312 -> 313        0.70710

 The electronic state is 1-A.
 Alpha  occ. eigenvalues --  -46.88496 -46.88379 -19.26488 -19.24778 -19.20147
 Alpha  occ. eigenvalues --  -19.19650 -19.19622 -19.19288 -19.18717 -19.18221
 Alpha  occ. eigenvalues --  -14.42518 -14.42201 -14.42167 -14.41520 -14.39659
 Alpha  occ. eigenvalues --  -14.39491 -14.38926 -14.38453 -10.39489 -10.38535
 Alpha  occ. eigenvalues --  -10.36256 -10.35464 -10.35374 -10.34742 -10.32821
 Alpha  occ. eigenvalues --  -10.31821 -10.31622 -10.31480 -10.31253 -10.30974
 Alpha  occ. eigenvalues --  -10.30664 -10.30651 -10.30584 -10.30461 -10.30457
 Alpha  occ. eigenvalues --  -10.30406 -10.30319 -10.29601 -10.29416 -10.29195
 Alpha  occ. eigenvalues --  -10.28990 -10.28969 -10.28910 -10.28904 -10.28672
 Alpha  occ. eigenvalues --  -10.28322 -10.28198 -10.28169 -10.28120 -10.28075
 Alpha  occ. eigenvalues --  -10.28008 -10.27938 -10.27768 -10.27764 -10.27749
 Alpha  occ. eigenvalues --  -10.27606 -10.27598 -10.27541 -10.27298 -10.27169
 Alpha  occ. eigenvalues --  -10.27159 -10.27119 -10.27090 -10.27085 -10.27073
 Alpha  occ. eigenvalues --  -10.26906 -10.26901 -10.26823 -10.26663 -10.26545
 Alpha  occ. eigenvalues --  -10.26424 -10.26346 -10.26258 -10.26242 -10.26139
 Alpha  occ. eigenvalues --  -10.25984 -10.25831 -10.25741 -10.25650 -10.25421
 Alpha  occ. eigenvalues --  -10.25379 -10.25311 -10.25153 -10.24820 -10.24634
 Alpha  occ. eigenvalues --  -10.24434  -3.17093  -3.16992  -1.91971  -1.91885
 Alpha  occ. eigenvalues --   -1.91529  -1.91453  -1.91420  -1.91295  -1.16625
 Alpha  occ. eigenvalues --   -1.15504  -1.12500  -1.11968  -1.08649  -1.07378
 Alpha  occ. eigenvalues --   -1.07207  -1.06729  -1.05367  -1.04298  -1.04102
 Alpha  occ. eigenvalues --   -1.03440  -1.03165  -1.02820  -1.01731  -1.00854
 Alpha  occ. eigenvalues --   -0.92505  -0.92196  -0.89652  -0.89330  -0.89303
 Alpha  occ. eigenvalues --   -0.88695  -0.88342  -0.87825  -0.87465  -0.87318
 Alpha  occ. eigenvalues --   -0.86944  -0.86838  -0.86630  -0.86491  -0.84801
 Alpha  occ. eigenvalues --   -0.84222  -0.83895  -0.83465  -0.83280  -0.82308
 Alpha  occ. eigenvalues --   -0.81895  -0.81722  -0.81119  -0.81033  -0.80298
 Alpha  occ. eigenvalues --   -0.80261  -0.78531  -0.77714  -0.77373  -0.77362
 Alpha  occ. eigenvalues --   -0.76668  -0.76366  -0.76241  -0.75735  -0.75115
 Alpha  occ. eigenvalues --   -0.74823  -0.72737  -0.72189  -0.71708  -0.71447
 Alpha  occ. eigenvalues --   -0.69397  -0.69242  -0.68773  -0.68603  -0.68165
 Alpha  occ. eigenvalues --   -0.67739  -0.67227  -0.66974  -0.65804  -0.65682
 Alpha  occ. eigenvalues --   -0.65588  -0.65391  -0.64982  -0.64737  -0.64543
 Alpha  occ. eigenvalues --   -0.64063  -0.62222  -0.61535  -0.60131  -0.60006
 Alpha  occ. eigenvalues --   -0.59617  -0.59415  -0.59351  -0.59115  -0.58502
 Alpha  occ. eigenvalues --   -0.58264  -0.58197  -0.57861  -0.57647  -0.57131
 Alpha  occ. eigenvalues --   -0.56395  -0.56028  -0.55974  -0.55702  -0.55142
 Alpha  occ. eigenvalues --   -0.54959  -0.54674  -0.54533  -0.54263  -0.53958
 Alpha  occ. eigenvalues --   -0.53798  -0.53336  -0.53152  -0.53136  -0.52933
 Alpha  occ. eigenvalues --   -0.52860  -0.52708  -0.52461  -0.52390  -0.52052
 Alpha  occ. eigenvalues --   -0.51891  -0.51667  -0.51460  -0.51354  -0.51219
 Alpha  occ. eigenvalues --   -0.51098  -0.50924  -0.50699  -0.50565  -0.50367
 Alpha  occ. eigenvalues --   -0.50332  -0.50141  -0.49950  -0.49848  -0.49415
 Alpha  occ. eigenvalues --   -0.49160  -0.49124  -0.48939  -0.48905  -0.48512
 Alpha  occ. eigenvalues --   -0.48446  -0.48413  -0.48243  -0.48175  -0.48044
 Alpha  occ. eigenvalues --   -0.47817  -0.47770  -0.47505  -0.47468  -0.47018
 Alpha  occ. eigenvalues --   -0.46942  -0.46611  -0.46436  -0.46403  -0.46279
 Alpha  occ. eigenvalues --   -0.46217  -0.46071  -0.46015  -0.45597  -0.45586
 Alpha  occ. eigenvalues --   -0.45289  -0.45135  -0.45103  -0.44907  -0.44840
 Alpha  occ. eigenvalues --   -0.44717  -0.44390  -0.44299  -0.44265  -0.44149
 Alpha  occ. eigenvalues --   -0.44109  -0.43722  -0.43699  -0.43505  -0.43449
 Alpha  occ. eigenvalues --   -0.43270  -0.43189  -0.43068  -0.42904  -0.42781
 Alpha  occ. eigenvalues --   -0.42758  -0.42648  -0.42544  -0.42291  -0.42248
 Alpha  occ. eigenvalues --   -0.41919  -0.41693  -0.41650  -0.41642  -0.41623
 Alpha  occ. eigenvalues --   -0.41447  -0.41171  -0.40636  -0.40569  -0.40199
 Alpha  occ. eigenvalues --   -0.40187  -0.40097  -0.39792  -0.39376  -0.39142
 Alpha  occ. eigenvalues --   -0.38369  -0.38210  -0.38201  -0.37964  -0.37601
 Alpha  occ. eigenvalues --   -0.37589  -0.37198  -0.36864  -0.36686  -0.36540
 Alpha  occ. eigenvalues --   -0.36303  -0.35983  -0.34320  -0.34292  -0.34150
 Alpha  occ. eigenvalues --   -0.33877  -0.33420  -0.32916  -0.31775  -0.31738
 Alpha  occ. eigenvalues --   -0.31180  -0.30879  -0.30740  -0.30538  -0.30367
 Alpha  occ. eigenvalues --   -0.30128  -0.29151  -0.28913  -0.24256  -0.23651
 Alpha  occ. eigenvalues --   -0.21236  -0.21223
 Alpha virt. eigenvalues --   -0.08738  -0.08404  -0.01683  -0.01676  -0.00016
 Alpha virt. eigenvalues --    0.00585   0.02109   0.02199   0.02621   0.02752
 Alpha virt. eigenvalues --    0.04574   0.04767   0.05484   0.05655   0.05956

 Mulliken charges:
               1
     1  Mg  12.000007
     2  C    6.000043
     3  C    6.000182
     4  C    5.999942
     5  C    5.999845
     6  N    6.999981
     7  C    6.000083
     8  C    5.999962
     9  C    6.000050
    10  C    5.999784
    11  C    6.000034
    12  C    5.999960
    13  C    5.999996
    14  H    1.000006
    15  N    7.000013
    16  C    5.999682
    17  C    5.999953
    18  C    5.999818
    19  C    5.999914
    20  C    6.000046
    21  C    5.999932
    22  O    7.999842
    23  C    6.000026
    24  N    6.999993
    25  C    5.999923
    26  C    6.000018
    27  C    5.999938
    28  C    6.000196
    29  C    6.000033
    30  C    5.999964
    31  C    6.000012
    32  N    6.999991
    33  C    6.000311
    34  C    6.000100
    35  C    6.000077
    36  C    6.000099
    37  C    5.999929
    38  C    6.000166
    39  O    8.000224
    40  C    5.999957
    41  C    6.000024
    42  O    8.000017
    43  O    8.000016
    44  C    5.999984
    45  H    0.999945
    46  H    0.999962
    47  H    1.000050
    48  H    0.999996
    49  H    0.999974
    50  H    0.999925
    51  H    1.000001
    52  H    0.999954
    53  H    1.000052
    54  H    0.999994
    55  H    1.000029
    56  H    1.000010
    57  H    0.999869
    58  H    0.999898
    59  H    0.999921
    60  H    0.999942
    61  H    0.999970
    62  H    0.999887
    63  H    1.000007
    64  H    1.000007
    65  H    0.999999
    66  H    0.999919
    67  H    0.999997
    68  H    0.999994
    69  H    1.000054
    70  H    1.000011
    71  H    0.999995
    72  H    1.000017
    73  H    1.000109
    74  H    1.000138
    75  H    1.000122
    76  H    1.000082
    77  H    1.000008
    78  H    1.000016
    79  H    1.000068
    80  Mg  12.000107
    81  C    6.025017
    82  C    5.991092
    83  C    5.974499
    84  C    6.013207
    85  N    7.015803
    86  C    5.967882
    87  C    6.013490
    88  C    5.984313
    89  C    6.032891
    90  C    5.996506
    91  C    6.002611
    92  C    6.002128
    93  H    0.992838
    94  N    6.993272
    95  C    6.040213
    96  C    6.023127
    97  C    6.010256
    98  C    6.041103
    99  C    5.996578
   100  C    6.007591
   101  O    8.017188
   102  C    6.003209
   103  N    6.995900
   104  C    6.031117
   105  C    5.995754
   106  C    6.007576
   107  C    5.966135
   108  C    5.999558
   109  C    6.008408
   110  C    6.000146
   111  N    7.000397
   112  C    5.960049
   113  C    5.973067
   114  C    5.992286
   115  C    5.965721
   116  C    6.002919
   117  C    5.983298
   118  O    7.968570
   119  C    5.997085
   120  C    5.997704
   121  O    7.994826
   122  O    7.998836
   123  C    6.002246
   124  H    1.014075
   125  H    1.005672
   126  H    0.990980
   127  H    0.998415
   128  H    1.002975
   129  H    0.994213
   130  H    1.012398
   131  H    1.010850
   132  H    0.990232
   133  H    1.002155
   134  H    1.005068
   135  H    1.001047
   136  H    1.016664
   137  H    1.018643
   138  H    1.019944
   139  H    1.012236
   140  H    1.007357
   141  H    1.008264
   142  H    1.000423
   143  H    0.996379
   144  H    1.009278
   145  H    0.995681
   146  H    0.997712
   147  H    0.997597
   148  H    0.986639
   149  H    1.000078
   150  H    1.005803
   151  H    0.994051
   152  H    0.980878
   153  H    0.984150
   154  H    0.977349
   155  H    0.988946
   156  H    0.997921
   157  H    0.996823
   158  H    0.992582
 Sum of Mulliken charges = 624.00000

 Dipole moment (field-independent basis, Debye):
    X=              5.7128    Y=              6.3536    Z=             -6.7878  Tot=             10.9123
 Quadrupole moment (field-independent basis, Debye-Ang):
   XX=            287.2725   YY=              0.8494   ZZ=             -0.0214
   XY=            165.3037   XZ=           -177.9901   YZ=             -1.0993

 Normal termination of Gaussian 16 at Thu Sep 23 06:43:47 2021.
