 Gaussian 16, Revision A.03,
 Gaussian 16:  ES64L-G16RevA.03 25-Dec-2016

 ----------------------------------------------------------
 #p cam-b3lyp/Def2SVP td=(nstates=5) density=(transition=1)
 ----------------------------------------------------------

 --------------------------------
 TDDFT excited states in gaussian
 --------------------------------
 Symbolic Z-matrix:
 Charge =  0 Multiplicity = 1

                         Standard orientation:
 ---------------------------------------------------------------------
 Center     Atomic      Atomic             Coordinates (Angstroms)
 Number     Number       Type             X           Y           Z
 ---------------------------------------------------------------------
      1         12           0      -24.738342    0.675705    0.357550
      2          6           0      -22.922107   -2.190031    0.961605
      3          6           0      -27.367726   -1.335587   -0.507372
      4          6           0      -26.430491    3.465152   -0.514244
      5          6           0      -21.849088    2.581006    0.690971
      6          7           0      -24.982385   -1.571827    0.134022
      7          6           0      -24.228505   -2.489203    0.604752
      8          6           0      -24.806697   -3.996327    0.553256
      9          6           0      -26.149106   -3.688660   -0.220625
     10          6           0      -26.174530   -2.088730   -0.297085
     11          6           0      -26.214029   -4.256449   -1.734061
     12          6           0      -25.022155   -4.694324    1.965589
     13          6           0      -24.847419   -6.252454    2.045039
     14          1           0      -24.745616   -6.984437    0.741021
     15          7           0      -26.606071    1.027022   -0.312418
     16          6           0      -27.644413    0.042966   -0.550439
     17          6           0      -28.852204    0.766955   -0.933015
     18          6           0      -28.566720    2.150240   -1.049089
     19          6           0      -27.169230    2.274636   -0.576681
     20          6           0      -30.093890   -0.032722   -1.100284
     21          6           0      -29.468273    3.347779   -1.430360
     22          8           0      -29.101018    4.472935   -1.595789
     23          6           0      -30.922965    2.978243   -1.784457
     24          7           0      -24.244007    2.756116   -0.001495
     25          6           0      -25.065742    3.697267   -0.343927
     26          6           0      -24.319068    5.018090   -0.684721
     27          6           0      -22.874765    4.764638   -0.190174
     28          6           0      -22.962361    3.275748    0.220061
     29          6           0      -24.419434    5.339346   -2.191112
     30          6           0      -22.450996    5.745616    0.945729
     31          6           0      -22.210831    7.195652    0.495292
     32          7           0      -22.745960    0.313199    0.752122
     33          6           0      -21.714802    1.213050    0.955160
     34          6           0      -20.567275    0.438994    1.349420
     35          6           0      -20.931213   -0.940870    1.343398
     36          6           0      -22.308873   -0.899586    0.995343
     37          6           0      -19.282971    0.971016    1.623221
     38          6           0      -20.551557   -2.291116    1.612702
     39          8           0      -19.404579   -2.743429    1.904989
     40          6           0      -21.821830   -3.155003    1.252234
     41          6           0      -21.439392   -4.062553    0.191630
     42          8           0      -21.393322   -3.759446   -1.000323
     43          8           0      -21.007338   -5.220235    0.787135
     44          6           0      -20.342610   -6.144148   -0.156073
     45          1           0      -28.215326   -1.951395   -0.813789
     46          1           0      -27.047558    4.324732   -0.786574
     47          1           0      -20.987349    3.232440    0.853507
     48          1           0      -24.106064   -4.512594   -0.103503
     49          1           0      -26.995539   -4.122638    0.311278
     50          1           0      -25.192669   -4.446716   -2.065011
     51          1           0      -26.681466   -3.516530   -2.383588
     52          1           0      -26.787065   -5.172190   -1.883104
     53          1           0      -26.060003   -4.465061    2.205806
     54          1           0      -24.572082   -4.196646    2.825261
     55          1           0      -25.633216   -6.754623    2.609224
     56          1           0      -23.893349   -6.477197    2.521931
     57          1           0      -30.145520   -0.457055   -2.103378
     58          1           0      -30.988130    0.493466   -0.765977
     59          1           0      -30.030768   -0.860288   -0.394105
     60          1           0      -31.548147    2.721500   -0.928709
     61          1           0      -30.769772    2.138236   -2.461215
     62          1           0      -31.472032    3.716435   -2.368246
     63          1           0      -24.828918    5.743455   -0.051136
     64          1           0      -22.185635    4.821655   -1.032727
     65          1           0      -24.593838    4.485911   -2.846714
     66          1           0      -23.542838    5.759966   -2.684938
     67          1           0      -25.250332    6.039234   -2.279328
     68          1           0      -21.504134    5.407367    1.364324
     69          1           0      -23.195812    5.730477    1.742138
     70          1           0      -22.490756    7.263571   -0.555969
     71          1           0      -21.136616    7.368208    0.427368
     72          1           0      -22.617513    8.009456    1.095171
     73          1           0      -19.478668    1.849386    2.238378
     74          1           0      -18.709339    1.316571    0.763353
     75          1           0      -18.669926    0.184042    2.063688
     76          1           0      -21.991985   -3.726560    2.165011
     77          1           0      -19.424815   -5.645567   -0.469062
     78          1           0      -21.013740   -6.467106   -0.951238
     79          1           0      -20.067193   -7.035940    0.407129
     80         12           0       24.822889    0.488439   -0.053514
     81          6           0       23.609720   -2.641014   -0.950851
     82          6           0       24.724981   -0.538594    3.218910
     83          6           0       25.776241    3.672427    0.878279
     84          6           0       24.366076    1.650580   -3.307946
     85          7           0       24.322861   -1.412959    0.975987
     86          6           0       23.961577   -2.584751    0.425888
     87          6           0       23.889761   -3.771787    1.414532
     88          6           0       24.021103   -3.014202    2.804741
     89          6           0       24.344134   -1.514794    2.337078
     90          6           0       22.686236   -3.191354    3.612651
     91          6           0       25.122480   -4.753751    1.064675
     92          6           0       24.769322   -6.247421    0.802323
     93          1           0       23.386672   -6.693210    1.401734
     94          7           0       25.139101    1.495674    1.763664
     95          6           0       25.126346    0.843895    3.014152
     96          6           0       25.659099    1.745887    4.012906
     97          6           0       25.918163    2.968759    3.381091
     98          6           0       25.687435    2.740206    1.906608
     99          6           0       25.567168    1.419111    5.510218
    100          6           0       26.395935    4.296356    4.026934
    101          8           0       26.616216    5.355146    3.409645
    102          6           0       26.697907    4.301894    5.535382
    103          7           0       24.949357    2.386475   -1.100628
    104          6           0       25.444650    3.553855   -0.443716
    105          6           0       25.339660    4.779024   -1.375786
    106          6           0       25.157159    4.053935   -2.789971
    107          6           0       24.845940    2.589467   -2.383908
    108          6           0       24.221760    5.688703   -0.893584
    109          6           0       26.486149    4.122052   -3.654376
    110          6           0       27.906756    3.676906   -3.166206
    111          7           0       24.072751   -0.254781   -1.760559
    112          6           0       23.920834    0.319165   -3.026512
    113          6           0       23.379922   -0.655337   -3.917522
    114          6           0       23.281435   -1.823579   -3.183508
    115          6           0       23.612888   -1.526351   -1.838467
    116          6           0       22.943899   -0.448545   -5.353658
    117          6           0       22.918699   -3.182923   -3.262464
    118          8           0       22.436187   -3.746036   -4.192826
    119          6           0       23.008285   -3.733685   -1.779196
    120          6           0       21.596720   -4.049896   -1.368485
    121          8           0       20.946187   -3.373741   -0.599255
    122          8           0       21.224848   -5.152778   -2.029076
    123          6           0       19.792945   -5.316681   -2.087524
    124          1           0       24.775223   -0.880159    4.254663
    125          1           0       25.840851    4.707984    1.216766
    126          1           0       24.206328    2.002381   -4.329816
    127          1           0       22.981577   -4.371141    1.353621
    128          1           0       24.857971   -3.336236    3.424882
    129          1           0       22.319866   -2.289722    4.104072
    130          1           0       23.026415   -3.940683    4.326853
    131          1           0       21.978129   -3.679539    2.943476
    132          1           0       25.877022   -4.607369    1.837269
    133          1           0       25.586511   -4.358284    0.160803
    134          1           0       25.604897   -6.744537    1.293866
    135          1           0       24.765618   -6.542547   -0.246539
    136          1           0       25.024250    2.238524    5.981962
    137          1           0       26.568043    1.431401    5.943814
    138          1           0       25.081321    0.453929    5.649929
    139          1           0       25.736073    4.261135    6.048245
    140          1           0       27.100150    5.292185    5.748327
    141          1           0       27.498253    3.593981    5.749404
    142          1           0       26.337304    5.218910   -1.363287
    143          1           0       24.420020    4.589543   -3.387086
    144          1           0       24.054883    5.629033    0.182037
    145          1           0       23.285128    5.443114   -1.393571
    146          1           0       24.473392    6.734901   -1.066295
    147          1           0       26.570221    5.134866   -4.048507
    148          1           0       26.283132    3.406496   -4.451200
    149          1           0       28.381733    4.528612   -2.679077
    150          1           0       28.448642    3.402391   -4.072006
    151          1           0       27.946028    2.766246   -2.567640
    152          1           0       23.763283   -0.113104   -5.989674
    153          1           0       22.194415    0.339623   -5.284729
    154          1           0       22.647940   -1.349722   -5.892507
    155          1           0       23.577351   -4.647975   -1.609894
    156          1           0       19.442337   -5.824704   -2.985598
    157          1           0       19.112756   -4.497009   -1.856482
    158          1           0       19.399746   -5.971510   -1.309602
 ---------------------------------------------------------------------

 SCF Done:  E(RCAM-B3LYP) =  -4069.82838548     A.U. after   18 cycles

 Excitation energies and oscillator strengths:

 Excited State   1:      Singlet-A      1.7043 eV  727.48 nm  f=0.3900  <S**2>=0.000
     309 -> 316       -0.17575
     312 -> 313        0.68647
     309 <- 316       -0.10652
 This state for optimization and/or second-order correction.
 Total Energy, E(TD-HF/TD-DFT) =  -4069.76575394
 Copying the excited state density for this state as the 1-particle RhoCI density.

 Excited State   2:      Singlet-A      1.7724 eV  699.52 nm  f=0.3821  <S**2>=0.000
     310 -> 315        0.19902
     311 -> 314        0.67935
     310 <- 315        0.10974

 Excited State   3:      Singlet-A      2.2144 eV  559.90 nm  f=0.1098  <S**2>=0.000
     310 -> 314        0.64301
     311 -> 315       -0.28129

 Excited State   4:      Singlet-A      2.2267 eV  556.81 nm  f=0.1283  <S**2>=0.000
     309 -> 313        0.64632
     312 -> 316        0.27555

 Excited State   5:      Singlet-A      3.2244 eV  384.52 nm  f=0.0000  <S**2>=0.000
     312 -> 314        0.70710

 The electronic state is 1-A.
 Alpha  occ. eigenvalues --  -46.88376 -46.88047 -19.26120 -19.24776 -19.20144
 Alpha  occ. eigenvalues --  -19.20033 -19.19329 -19.19286 -19.18583 -19.18218
 Alpha  occ. eigenvalues --  -14.42213 -14.42198 -14.41517 -14.41403 -14.39657
 Alpha  occ. eigenvalues --  -14.39524 -14.39028 -14.38923 -10.39292 -10.38532
 Alpha  occ. eigenvalues --  -10.36253 -10.35091 -10.34797 -10.34739 -10.31818
 Alpha  occ. eigenvalues --  -10.31568 -10.31319 -10.31250 -10.30661 -10.30648
 Alpha  occ. eigenvalues --  -10.30635 -10.30454 -10.30403 -10.30317 -10.30317
 Alpha  occ. eigenvalues --  -10.30125 -10.29869 -10.29797 -10.29630 -10.29605
 Alpha  occ. eigenvalues --  -10.29413 -10.29194 -10.28967 -10.28908 -10.28901
 Alpha  occ. eigenvalues --  -10.28852 -10.28488 -10.28367 -10.28166 -10.28111
 Alpha  occ. eigenvalues --  -10.28106 -10.28073 -10.27824 -10.27767 -10.27747
 Alpha  occ. eigenvalues --  -10.27634 -10.27630 -10.27594 -10.27563 -10.27537
 Alpha  occ. eigenvalues --  -10.27156 -10.27116 -10.27083 -10.27036 -10.26979
 Alpha  occ. eigenvalues --  -10.26898 -10.26701 -10.26683 -10.26660 -10.26655
 Alpha  occ. eigenvalues --  -10.26541 -10.26500 -10.26256 -10.26223 -10.26137
 Alpha  occ. eigenvalues --  -10.25782 -10.25758 -10.25646 -10.25580 -10.25374
 Alpha  occ. eigenvalues --  -10.25308 -10.25228 -10.25172 -10.24650 -10.24631
 Alpha  occ. eigenvalues --  -10.24431  -3.16989  -3.16649  -1.91882  -1.91550
 Alpha  occ. eigenvalues --   -1.91451  -1.91293  -1.91083  -1.90971  -1.18125
 Alpha  occ. eigenvalues --   -1.15501  -1.12497  -1.11984  -1.09049  -1.08303
 Alpha  occ. eigenvalues --   -1.07204  -1.06726  -1.05364  -1.04295  -1.04123
 Alpha  occ. eigenvalues --   -1.03437  -1.03287  -1.02678  -1.01131  -1.00852
 Alpha  occ. eigenvalues --   -0.92767  -0.92503  -0.89300  -0.88503  -0.88339
 Alpha  occ. eigenvalues --   -0.88100  -0.87822  -0.87723  -0.87463  -0.87046
 Alpha  occ. eigenvalues --   -0.86941  -0.86835  -0.86467  -0.85985  -0.83900
 Alpha  occ. eigenvalues --   -0.83892  -0.83461  -0.83368  -0.82305  -0.82254
 Alpha  occ. eigenvalues --   -0.81720  -0.81166  -0.81030  -0.80877  -0.80258
 Alpha  occ. eigenvalues --   -0.79905  -0.78528  -0.77683  -0.77369  -0.77078
 Alpha  occ. eigenvalues --   -0.76702  -0.76364  -0.75827  -0.75732  -0.74926
 Alpha  occ. eigenvalues --   -0.74820  -0.72928  -0.72186  -0.71444  -0.71151
 Alpha  occ. eigenvalues --   -0.69394  -0.68860  -0.68771  -0.68614  -0.68163
 Alpha  occ. eigenvalues --   -0.67940  -0.66972  -0.66338  -0.65820  -0.65801
 Alpha  occ. eigenvalues --   -0.65387  -0.64734  -0.64516  -0.64447  -0.64060
 Alpha  occ. eigenvalues --   -0.63907  -0.62353  -0.61532  -0.60003  -0.59967
 Alpha  occ. eigenvalues --   -0.59370  -0.59348  -0.59112  -0.58928  -0.58386
 Alpha  occ. eigenvalues --   -0.58261  -0.57968  -0.57859  -0.57644  -0.57222
 Alpha  occ. eigenvalues --   -0.56232  -0.55971  -0.55699  -0.55649  -0.55139
 Alpha  occ. eigenvalues --   -0.54870  -0.54530  -0.54354  -0.53955  -0.53938
 Alpha  occ. eigenvalues --   -0.53336  -0.53334  -0.53134  -0.53092  -0.52930
 Alpha  occ. eigenvalues --   -0.52705  -0.52558  -0.52178  -0.52049  -0.51962
 Alpha  occ. eigenvalues --   -0.51887  -0.51824  -0.51704  -0.51352  -0.51095
 Alpha  occ. eigenvalues --   -0.50923  -0.50921  -0.50696  -0.50583  -0.50365
 Alpha  occ. eigenvalues --   -0.49873  -0.49780  -0.49477  -0.49412  -0.49134
 Alpha  occ. eigenvalues --   -0.49122  -0.48935  -0.48811  -0.48563  -0.48509
 Alpha  occ. eigenvalues --   -0.48442  -0.48299  -0.48173  -0.47916  -0.47814
 Alpha  occ. eigenvalues --   -0.47767  -0.47706  -0.47446  -0.47099  -0.47016
 Alpha  occ. eigenvalues --   -0.46623  -0.46609  -0.46432  -0.46235  -0.46214
 Alpha  occ. eigenvalues --   -0.46139  -0.46012  -0.45693  -0.45583  -0.45543
 Alpha  occ. eigenvalues --   -0.45151  -0.45100  -0.44903  -0.44837  -0.44601
 Alpha  occ. eigenvalues --   -0.44517  -0.44386  -0.44291  -0.44262  -0.44146
 Alpha  occ. eigenvalues --   -0.43721  -0.43720  -0.43571  -0.43502  -0.43378
 Alpha  occ. eigenvalues --   -0.43186  -0.43020  -0.42981  -0.42901  -0.42754
 Alpha  occ. eigenvalues --   -0.42645  -0.42622  -0.42349  -0.42245  -0.41893
 Alpha  occ. eigenvalues --   -0.41718  -0.41691  -0.41647  -0.41444  -0.41285
 Alpha  occ. eigenvalues --   -0.41167  -0.40775  -0.40643  -0.40633  -0.40245
 Alpha  occ. eigenvalues --   -0.40184  -0.39789  -0.39530  -0.39372  -0.39116
 Alpha  occ. eigenvalues --   -0.38198  -0.37961  -0.37647  -0.37598  -0.37427
 Alpha  occ. eigenvalues --   -0.37060  -0.37030  -0.36861  -0.36538  -0.36432
 Alpha  occ. eigenvalues --   -0.36300  -0.36083  -0.34769  -0.34289  -0.34062
 Alpha  occ. eigenvalues --   -0.33874  -0.33417  -0.32633  -0.31735  -0.31613
 Alpha  occ. eigenvalues --   -0.31177  -0.30928  -0.30413  -0.30364  -0.30236
 Alpha  occ. eigenvalues --   -0.30125  -0.29553  -0.29148  -0.23735  -0.23648
 Alpha  occ. eigenvalues --   -0.21220  -0.20944
 Alpha virt. eigenvalues --   -0.08517  -0.08401  -0.01673  -0.01308  -0.00013
 Alpha virt. eigenvalues --    0.00593   0.02112   0.02514   0.02593   0.02623
 Alpha virt. eigenvalues --    0.04566   0.05487   0.05959   0.06161   0.06241

 Mulliken charges:
               1
     1  Mg  11.999990
     2  C    5.999991
     3  C    5.999993
     4  C    5.999984
     5  C    6.000009
     6  N    7.000008
     7  C    6.000035
     8  C    6.000000
     9  C    6.000004
    10  C    5.999972
    11  C    6.000009
    12  C    5.999990
    13  C    6.000001
    14  H    1.000037
    15  N    7.000006
    16  C    5.999962
    17  C    5.999983
    18  C    5.999995
    19  C    5.999976
    20  C    6.000004
    21  C    5.999962
    22  O    7.999966
    23  C    5.999998
    24  N    6.999985
    25  C    5.999984
    26  C    6.000008
    27  C    5.999984
    28  C    6.000031
    29  C    6.000002
    30  C    5.999993
    31  C    5.999999
    32  N    6.999998
    33  C    6.000034
    34  C    6.000024
    35  C    5.999998
    36  C    6.000005
    37  C    6.000005
    38  C    6.000051
    39  O    8.000055
    40  C    6.000007
    41  C    6.000011
    42  O    8.000031
    43  O    7.999988
    44  C    5.999987
    45  H    1.000001
    46  H    0.999976
    47  H    0.999999
    48  H    1.000021
    49  H    0.999982
    50  H    1.000005
    51  H    1.000012
    52  H    0.999992
    53  H    0.999998
    54  H    0.999975
    55  H    0.999986
    56  H    0.999994
    57  H    0.999984
    58  H    0.999959
    59  H    0.999968
    60  H    0.999968
    61  H    1.000009
    62  H    0.999966
    63  H    0.999979
    64  H    1.000027
    65  H    1.000023
    66  H    0.999998
    67  H    0.999992
    68  H    0.999985
    69  H    0.999988
    70  H    1.000027
    71  H    1.000004
    72  H    0.999978
    73  H    0.999995
    74  H    1.000071
    75  H    1.000024
    76  H    0.999999
    77  H    1.000028
    78  H    1.000024
    79  H    1.000011
    80  Mg  11.997268
    81  C    6.022957
    82  C    5.982138
    83  C    5.973769
    84  C    6.002689
    85  N    7.006569
    86  C    5.967749
    87  C    6.010113
    88  C    5.991007
    89  C    6.030297
    90  C    5.996246
    91  C    6.004440
    92  C    6.002397
    93  H    0.995586
    94  N    6.991570
    95  C    6.051968
    96  C    6.015265
    97  C    6.017754
    98  C    6.044878
    99  C    5.996575
   100  C    6.012999
   101  O    8.030575
   102  C    5.993693
   103  N    6.989747
   104  C    6.036117
   105  C    5.991051
   106  C    6.011273
   107  C    5.975134
   108  C    5.995480
   109  C    6.007275
   110  C    5.995815
   111  N    7.007984
   112  C    5.962935
   113  C    5.969132
   114  C    5.999790
   115  C    5.963021
   116  C    6.000650
   117  C    5.983254
   118  O    7.971398
   119  C    5.997993
   120  C    5.998195
   121  O    7.990488
   122  O    8.000909
   123  C    6.005501
   124  H    1.011281
   125  H    1.004043
   126  H    0.987449
   127  H    0.999330
   128  H    1.000117
   129  H    0.995952
   130  H    1.005023
   131  H    1.013656
   132  H    0.987358
   133  H    1.004140
   134  H    0.995461
   135  H    1.003570
   136  H    1.017060
   137  H    1.018972
   138  H    1.018500
   139  H    1.008582
   140  H    1.015568
   141  H    1.007658
   142  H    0.998908
   143  H    0.996157
   144  H    0.991381
   145  H    1.012427
   146  H    1.005127
   147  H    0.990216
   148  H    1.006244
   149  H    0.991250
   150  H    1.001242
   151  H    0.998249
   152  H    0.979801
   153  H    0.982754
   154  H    0.985461
   155  H    0.988999
   156  H    0.997220
   157  H    0.996911
   158  H    0.992291
 Sum of Mulliken charges = 624.00000

 Dipole moment (field-independent basis, Debye):
    X=              2.9462    Y=              4.4985    Z=              9.5801  Tot=             10.9861
 Quadrupole moment (field-independent basis, Debye-Ang):
   XX=            141.5926   YY=              3.8954   ZZ=              2.5580
   XY=            111.8150   XZ=            235.6090   YZ=              7.8613

 Normal termination of Gaussian 16 at Thu Sep 23 07:00:18 2021.
