 Gaussian 16, Revision A.03,
 Gaussian 16:  ES64L-G16RevA.03 25-Dec-2016

 ----------------------------------------------------------
 #p cam-b3lyp/Def2SVP td=(nstates=5) density=(transition=1)
 ----------------------------------------------------------

 --------------------------------
 TDDFT excited states in gaussian
 --------------------------------
 Symbolic Z-matrix:
 Charge =  0 Multiplicity = 1

                         Standard orientation:
 ---------------------------------------------------------------------
 Center     Atomic      Atomic             Coordinates (Angstroms)
 Number     Number       Type             X           Y           Z
 ---------------------------------------------------------------------
      1         12           0       26.397227    0.475622   -0.269937
      2          6           0       25.335742   -2.788670    0.151017
      3          6           0       23.177138    1.567458    0.745808
      4          6           0       27.522257    3.707876   -0.099627
      5          6           0       29.643449   -0.583410   -0.789076
      6          7           0       24.471721   -0.539446    0.238379
      7          6           0       24.321564   -1.895191    0.441298
      8          6           0       22.946726   -2.294318    1.097164
      9          6           0       22.121133   -0.935546    0.906642
     10          6           0       23.283766    0.151512    0.561281
     11          6           0       20.944313   -0.888839   -0.140886
     12          6           0       23.021260   -2.716183    2.522430
     13          6           0       22.592934   -4.108912    2.943175
     14          1           0       22.059336   -4.245771    4.378201
     15          7           0       25.440941    2.401108    0.164937
     16          6           0       24.086398    2.576823    0.505116
     17          6           0       23.796737    3.971251    0.614239
     18          6           0       25.124628    4.632946    0.521583
     19          6           0       26.135985    3.580892    0.193685
     20          6           0       22.436935    4.536304    1.037771
     21          6           0       25.276883    6.151176    0.719768
     22          8           0       24.392157    6.958038    0.990616
     23          6           0       26.656642    6.670636    0.919101
     24          7           0       28.423618    1.467159   -0.249419
     25          6           0       28.540786    2.798298   -0.349326
     26          6           0       30.026727    3.116373   -0.189468
     27          6           0       30.793615    1.746838   -0.498769
     28          6           0       29.538184    0.766511   -0.551220
     29          6           0       30.455442    4.182850   -1.258674
     30          6           0       31.911507    1.227579    0.495829
     31          6           0       33.363745    1.142116    0.050502
     32          7           0       27.338883   -1.356023   -0.396687
     33          6           0       28.681434   -1.651913   -0.652579
     34          6           0       28.888603   -3.066611   -0.594003
     35          6           0       27.600580   -3.596165   -0.272851
     36          6           0       26.696903   -2.464294   -0.219030
     37          6           0       30.159047   -3.832161   -0.790561
     38          6           0       26.831731   -4.752850   -0.062727
     39          8           0       27.201295   -5.909883   -0.079987
     40          6           0       25.366625   -4.292049    0.298705
     41          6           0       24.414674   -5.119587   -0.458680
     42          8           0       23.759666   -6.024478    0.046061
     43          8           0       24.403938   -4.737133   -1.791764
     44          6           0       23.497470   -5.560769   -2.623001
     45          1           0       22.218188    2.021047    1.003222
     46          1           0       27.776230    4.770249   -0.110701
     47          1           0       30.682242   -0.896206   -0.912657
     48          1           0       22.482807   -3.086270    0.510235
     49          1           0       21.762408   -0.652609    1.896921
     50          1           0       20.728553   -1.919016   -0.424054
     51          1           0       21.149629   -0.290489   -1.028636
     52          1           0       20.100835   -0.407867    0.352997
     53          1           0       22.343957   -2.060023    3.071145
     54          1           0       24.046927   -2.634786    2.880662
     55          1           0       23.477161   -4.745371    2.925429
     56          1           0       21.791402   -4.518367    2.328786
     57          1           0       21.617310    3.881642    1.333123
     58          1           0       22.187509    5.176840    0.192199
     59          1           0       22.703335    5.284413    1.783724
     60          1           0       27.245918    6.981038    0.057321
     61          1           0       27.252430    6.022366    1.561838
     62          1           0       26.545002    7.609099    1.463443
     63          1           0       30.277058    3.481681    0.806777
     64          1           0       31.167160    1.748995   -1.522164
     65          1           0       30.991270    4.965907   -0.722213
     66          1           0       29.642155    4.619244   -1.839895
     67          1           0       31.111348    3.778656   -2.030065
     68          1           0       31.559404    0.238605    0.788346
     69          1           0       31.914228    1.947037    1.315829
     70          1           0       33.813929    0.391975    0.701162
     71          1           0       33.852527    2.094306    0.257888
     72          1           0       33.605682    0.834748   -0.966345
     73          1           0       29.894820   -4.883024   -0.669490
     74          1           0       30.875014   -3.461370   -0.057699
     75          1           0       30.610999   -3.737200   -1.778057
     76          1           0       25.267311   -4.563372    1.350257
     77          1           0       24.035168   -6.419096   -3.025672
     78          1           0       23.071064   -4.880701   -3.360387
     79          1           0       22.636757   -5.914328   -2.056025
     80         12           0      -26.291717   -0.495138    0.556197
     81          6           0      -24.434069    1.817244   -1.488510
     82          6           0      -26.473929   -2.589267   -2.039417
     83          6           0      -28.706504   -2.113166    2.223992
     84          6           0      -26.394277    2.025630    2.993300
     85          7           0      -25.591858   -0.355584   -1.498683
     86          6           0      -24.699759    0.562644   -2.078256
     87          6           0      -24.178157    0.052939   -3.475643
     88          6           0      -24.907652   -1.316213   -3.626727
     89          6           0      -25.668806   -1.468509   -2.282910
     90          6           0      -25.820255   -1.486986   -4.814580
     91          6           0      -22.559785   -0.002672   -3.559389
     92          6           0      -21.941574    0.729636   -4.756756
     93          1           0      -21.061900   -0.189255   -5.683670
     94          7           0      -27.338624   -2.216698    0.201077
     95          6           0      -27.298791   -2.947847   -0.917414
     96          6           0      -28.209580   -4.091745   -0.846281
     97          6           0      -28.928658   -3.878933    0.380332
     98          6           0      -28.350622   -2.682932    1.002055
     99          6           0      -28.299623   -5.120841   -1.889872
    100          6           0      -30.150077   -4.740592    0.830329
    101          8           0      -30.696648   -4.573772    1.907814
    102          6           0      -30.718016   -5.840529   -0.008693
    103          7           0      -27.343619   -0.096820    2.297260
    104          6           0      -28.229081   -1.010799    2.858316
    105          6           0      -28.731999   -0.519142    4.255288
    106          6           0      -27.706834    0.621117    4.611900
    107          6           0      -27.058430    0.845308    3.246004
    108          6           0      -30.250754   -0.180242    4.406751
    109          6           0      -26.653429    0.218468    5.680024
    110          6           0      -26.249817    1.234863    6.718175
    111          7           0      -25.620305    1.533060    0.730823
    112          6           0      -25.741486    2.406963    1.773691
    113          6           0      -24.916472    3.654611    1.461354
    114          6           0      -24.352794    3.441800    0.226563
    115          6           0      -24.864722    2.171723   -0.209441
    116          6           0      -24.734219    4.782610    2.451226
    117          6           0      -23.516956    3.973796   -0.834971
    118          8           0      -22.943719    5.082134   -0.785109
    119          6           0      -23.605436    2.935186   -2.105163
    120          6           0      -24.306429    3.487087   -3.328911
    121          8           0      -25.453971    3.967754   -3.245479
    122          8           0      -23.468136    3.550223   -4.442774
    123          6           0      -23.982648    4.445825   -5.472207
    124          1           0      -26.483106   -3.367632   -2.804990
    125          1           0      -29.448694   -2.736750    2.726070
    126          1           0      -26.370004    2.709041    3.845209
    127          1           0      -24.541117    0.823943   -4.155001
    128          1           0      -24.113815   -2.022695   -3.873097
    129          1           0      -25.902885   -0.588045   -5.425610
    130          1           0      -26.775002   -1.550928   -4.293695
    131          1           0      -25.521009   -2.301152   -5.475334
    132          1           0      -22.359427   -1.073485   -3.582680
    133          1           0      -22.144971    0.333399   -2.609452
    134          1           0      -21.399095    1.583820   -4.351558
    135          1           0      -22.740787    1.117790   -5.389474
    136          1           0      -29.256407   -5.337702   -2.363856
    137          1           0      -28.184847   -6.060481   -1.350698
    138          1           0      -27.466611   -5.151306   -2.592541
    139          1           0      -29.903049   -6.556135   -0.123916
    140          1           0      -30.909001   -5.411948   -0.992933
    141          1           0      -31.600903   -6.190506    0.524749
    142          1           0      -28.538334   -1.369239    4.909495
    143          1           0      -28.191472    1.564767    4.861294
    144          1           0      -30.689867   -0.503383    3.463169
    145          1           0      -30.455010    0.859941    4.658908
    146          1           0      -30.751119   -0.844085    5.112854
    147          1           0      -25.832622    0.002063    4.996521
    148          1           0      -26.872447   -0.706978    6.213033
    149          1           0      -26.203612    0.687043    7.659449
    150          1           0      -26.984733    2.029949    6.848089
    151          1           0      -25.213603    1.490954    6.495940
    152          1           0      -25.316736    4.528802    3.336679
    153          1           0      -25.197967    5.676230    2.034113
    154          1           0      -23.671077    4.952019    2.620701
    155          1           0      -22.598024    2.585037   -2.330163
    156          1           0      -23.415448    5.364284   -5.616754
    157          1           0      -25.027160    4.726947   -5.337044
    158          1           0      -23.942819    3.885502   -6.405959
 ---------------------------------------------------------------------

 SCF Done:  E(RCAM-B3LYP) =  -4069.78387697     A.U. after   18 cycles

 Excitation energies and oscillator strengths:

 Excited State   1:      Singlet-A      1.6980 eV  730.19 nm  f=0.4090  <S**2>=0.000
     310 -> 316        0.17302
     312 -> 314        0.68824
     310 <- 316        0.10782
 This state for optimization and/or second-order correction.
 Total Energy, E(TD-HF/TD-DFT) =  -4069.72147794
 Copying the excited state density for this state as the 1-particle RhoCI density.

 Excited State   2:      Singlet-A      1.7132 eV  723.71 nm  f=0.3881  <S**2>=0.000
     309 -> 315       -0.17419
     311 -> 313        0.68620
     309 <- 315       -0.10489

 Excited State   3:      Singlet-A      2.1719 eV  570.86 nm  f=0.1595  <S**2>=0.000
     309 -> 313        0.65197
     311 -> 315        0.25357

 Excited State   4:      Singlet-A      2.2865 eV  542.24 nm  f=0.0917  <S**2>=0.000
     310 -> 314        0.63012
     312 -> 316       -0.31284

 Excited State   5:      Singlet-A      2.8234 eV  439.13 nm  f=0.0000  <S**2>=0.000
     312 -> 313        0.70711

 The electronic state is 1-A.
 Alpha  occ. eigenvalues --  -46.90513 -46.88386 -19.26705 -19.25156 -19.20859
 Alpha  occ. eigenvalues --  -19.19933 -19.19860 -19.19140 -19.18553 -19.18333
 Alpha  occ. eigenvalues --  -14.43518 -14.42571 -14.42023 -14.41655 -14.40079
 Alpha  occ. eigenvalues --  -14.39903 -14.39689 -14.39373 -10.40841 -10.39158
 Alpha  occ. eigenvalues --  -10.36510 -10.35304 -10.34932 -10.34221 -10.33139
 Alpha  occ. eigenvalues --  -10.32104 -10.31751 -10.31714 -10.31702 -10.31597
 Alpha  occ. eigenvalues --  -10.31546 -10.30965 -10.30856 -10.30654 -10.30450
 Alpha  occ. eigenvalues --  -10.30340 -10.30157 -10.30126 -10.29960 -10.29863
 Alpha  occ. eigenvalues --  -10.29787 -10.29508 -10.29455 -10.29141 -10.29124
 Alpha  occ. eigenvalues --  -10.29010 -10.28869 -10.28740 -10.28702 -10.28568
 Alpha  occ. eigenvalues --  -10.28547 -10.28467 -10.28321 -10.28295 -10.28295
 Alpha  occ. eigenvalues --  -10.28243 -10.28227 -10.28052 -10.27927 -10.27722
 Alpha  occ. eigenvalues --  -10.27492 -10.27471 -10.27367 -10.27365 -10.27297
 Alpha  occ. eigenvalues --  -10.27227 -10.27084 -10.27058 -10.27017 -10.26949
 Alpha  occ. eigenvalues --  -10.26861 -10.26512 -10.26279 -10.26205 -10.26152
 Alpha  occ. eigenvalues --  -10.26147 -10.26081 -10.25927 -10.25924 -10.25726
 Alpha  occ. eigenvalues --  -10.25536 -10.25504 -10.25442 -10.25433 -10.25223
 Alpha  occ. eigenvalues --  -10.24940  -3.18724  -3.17038  -1.93652  -1.93155
 Alpha  occ. eigenvalues --   -1.93026  -1.91919  -1.91477  -1.91366  -1.16350
 Alpha  occ. eigenvalues --   -1.15569  -1.10116  -1.10087  -1.09800  -1.09048
 Alpha  occ. eigenvalues --   -1.07965  -1.07513  -1.04850  -1.04087  -1.03925
 Alpha  occ. eigenvalues --   -1.03302  -1.02650  -1.02601  -1.01889  -1.01768
 Alpha  occ. eigenvalues --   -0.92639  -0.92618  -0.89533  -0.89412  -0.89122
 Alpha  occ. eigenvalues --   -0.88751  -0.88223  -0.88039  -0.87725  -0.87335
 Alpha  occ. eigenvalues --   -0.87234  -0.87205  -0.86127  -0.85848  -0.84547
 Alpha  occ. eigenvalues --   -0.84294  -0.83873  -0.83668  -0.82927  -0.82725
 Alpha  occ. eigenvalues --   -0.82259  -0.81941  -0.81212  -0.80919  -0.80783
 Alpha  occ. eigenvalues --   -0.80238  -0.78438  -0.77866  -0.77615  -0.77218
 Alpha  occ. eigenvalues --   -0.77019  -0.76936  -0.76252  -0.76230  -0.75557
 Alpha  occ. eigenvalues --   -0.74712  -0.73534  -0.72455  -0.72315  -0.70977
 Alpha  occ. eigenvalues --   -0.69424  -0.69025  -0.69007  -0.68410  -0.68024
 Alpha  occ. eigenvalues --   -0.67920  -0.67164  -0.66724  -0.65664  -0.65504
 Alpha  occ. eigenvalues --   -0.65346  -0.65280  -0.64999  -0.64903  -0.64841
 Alpha  occ. eigenvalues --   -0.64360  -0.63039  -0.62600  -0.60296  -0.60282
 Alpha  occ. eigenvalues --   -0.59781  -0.59780  -0.59490  -0.59098  -0.58926
 Alpha  occ. eigenvalues --   -0.58531  -0.58340  -0.57823  -0.57326  -0.57018
 Alpha  occ. eigenvalues --   -0.56583  -0.56264  -0.56006  -0.55479  -0.55436
 Alpha  occ. eigenvalues --   -0.55124  -0.54932  -0.54841  -0.53876  -0.53777
 Alpha  occ. eigenvalues --   -0.53553  -0.53522  -0.53266  -0.53141  -0.52857
 Alpha  occ. eigenvalues --   -0.52813  -0.52608  -0.52515  -0.52464  -0.52125
 Alpha  occ. eigenvalues --   -0.51875  -0.51839  -0.51624  -0.51494  -0.51358
 Alpha  occ. eigenvalues --   -0.51280  -0.51141  -0.50965  -0.50833  -0.50407
 Alpha  occ. eigenvalues --   -0.50256  -0.50241  -0.49742  -0.49616  -0.49525
 Alpha  occ. eigenvalues --   -0.49380  -0.49173  -0.49164  -0.48901  -0.48798
 Alpha  occ. eigenvalues --   -0.48676  -0.48632  -0.48340  -0.48328  -0.48152
 Alpha  occ. eigenvalues --   -0.47979  -0.47961  -0.47825  -0.47244  -0.47202
 Alpha  occ. eigenvalues --   -0.47041  -0.47030  -0.46762  -0.46736  -0.46614
 Alpha  occ. eigenvalues --   -0.46491  -0.46157  -0.46028  -0.46021  -0.45954
 Alpha  occ. eigenvalues --   -0.45865  -0.45716  -0.45682  -0.45375  -0.45339
 Alpha  occ. eigenvalues --   -0.45217  -0.44702  -0.44577  -0.44552  -0.44335
 Alpha  occ. eigenvalues --   -0.44149  -0.44148  -0.44040  -0.43822  -0.43755
 Alpha  occ. eigenvalues --   -0.43663  -0.43620  -0.43207  -0.43008  -0.43004
 Alpha  occ. eigenvalues --   -0.42857  -0.42786  -0.42675  -0.42455  -0.42259
 Alpha  occ. eigenvalues --   -0.41731  -0.41713  -0.41622  -0.41529  -0.41303
 Alpha  occ. eigenvalues --   -0.41129  -0.40792  -0.40566  -0.40514  -0.40184
 Alpha  occ. eigenvalues --   -0.39996  -0.39740  -0.39508  -0.39494  -0.39140
 Alpha  occ. eigenvalues --   -0.38377  -0.38300  -0.37844  -0.37817  -0.37439
 Alpha  occ. eigenvalues --   -0.37434  -0.37422  -0.37243  -0.36814  -0.36425
 Alpha  occ. eigenvalues --   -0.36114  -0.35924  -0.35160  -0.34519  -0.34443
 Alpha  occ. eigenvalues --   -0.34345  -0.33361  -0.32892  -0.31790  -0.31558
 Alpha  occ. eigenvalues --   -0.31395  -0.31249  -0.30702  -0.30556  -0.30394
 Alpha  occ. eigenvalues --   -0.30218  -0.29786  -0.29609  -0.24642  -0.24176
 Alpha  occ. eigenvalues --   -0.22182  -0.20783
 Alpha virt. eigenvalues --   -0.09754  -0.08432  -0.02365  -0.01323  -0.00049
 Alpha virt. eigenvalues --   -0.00006   0.01781   0.02188   0.02312   0.02322
 Alpha virt. eigenvalues --    0.02798   0.04482   0.04528   0.05240   0.05538

 Mulliken charges:
               1
     1  Mg  12.000032
     2  C    6.000653
     3  C    5.999787
     4  C    5.999175
     5  C    6.000098
     6  N    7.000326
     7  C    5.999232
     8  C    6.000218
     9  C    5.999908
    10  C    6.000693
    11  C    5.999885
    12  C    5.999989
    13  C    6.000028
    14  H    0.999916
    15  N    6.999651
    16  C    6.000984
    17  C    6.000451
    18  C    6.000181
    19  C    6.001052
    20  C    5.999904
    21  C    6.000277
    22  O    8.000451
    23  C    5.999828
    24  N    6.999860
    25  C    6.000833
    26  C    5.999798
    27  C    6.000083
    28  C    5.999440
    29  C    5.999942
    30  C    6.000101
    31  C    6.000026
    32  N    7.000115
    33  C    5.999095
    34  C    5.999480
    35  C    5.999869
    36  C    5.999217
    37  C    6.000050
    38  C    5.999654
    39  O    7.999272
    40  C    5.999877
    41  C    5.999899
    42  O    7.999831
    43  O    8.000049
    44  C    6.000081
    45  H    1.000340
    46  H    0.999994
    47  H    0.999667
    48  H    1.000048
    49  H    1.000077
    50  H    1.000324
    51  H    1.000021
    52  H    1.000091
    53  H    0.999823
    54  H    1.000101
    55  H    1.000131
    56  H    0.999974
    57  H    1.000412
    58  H    1.000418
    59  H    1.000355
    60  H    1.000297
    61  H    1.000209
    62  H    1.000261
    63  H    1.000043
    64  H    0.999972
    65  H    1.000007
    66  H    0.999903
    67  H    1.000141
    68  H    1.000149
    69  H    0.999754
    70  H    0.999966
    71  H    0.999832
    72  H    0.999982
    73  H    0.999704
    74  H    0.999586
    75  H    0.999538
    76  H    0.999869
    77  H    0.999974
    78  H    0.999867
    79  H    0.999879
    80  Mg  12.003032
    81  C    6.028821
    82  C    5.978016
    83  C    5.980964
    84  C    6.024954
    85  N    7.006620
    86  C    5.959135
    87  C    6.010670
    88  C    5.986398
    89  C    6.034516
    90  C    5.999192
    91  C    6.004768
    92  C    6.003045
    93  H    0.989411
    94  N    6.992086
    95  C    6.045180
    96  C    6.023780
    97  C    6.011983
    98  C    6.043922
    99  C    5.991594
   100  C    6.013050
   101  O    8.023792
   102  C    5.997693
   103  N    7.000670
   104  C    6.031448
   105  C    5.991631
   106  C    6.009955
   107  C    5.966292
   108  C    6.001830
   109  C    6.001579
   110  C    6.002281
   111  N    7.002460
   112  C    5.951858
   113  C    5.968872
   114  C    5.997514
   115  C    5.961072
   116  C    6.004869
   117  C    5.983512
   118  O    7.970787
   119  C    5.993630
   120  C    5.994524
   121  O    7.996491
   122  O    7.997114
   123  C    6.003760
   124  H    1.008171
   125  H    1.008068
   126  H    0.990808
   127  H    0.998169
   128  H    1.005846
   129  H    1.012771
   130  H    0.993077
   131  H    1.002292
   132  H    0.988134
   133  H    1.004395
   134  H    1.003737
   135  H    0.998056
   136  H    1.024378
   137  H    1.020643
   138  H    1.020428
   139  H    1.005574
   140  H    1.005172
   141  H    1.014957
   142  H    1.000057
   143  H    1.000655
   144  H    0.994400
   145  H    1.012280
   146  H    1.001818
   147  H    1.000804
   148  H    0.987222
   149  H    0.994729
   150  H    0.998819
   151  H    1.004098
   152  H    0.979514
   153  H    0.978669
   154  H    0.979962
   155  H    0.991088
   156  H    0.996968
   157  H    0.996566
   158  H    0.992907
 Sum of Mulliken charges = 624.00000

 Dipole moment (field-independent basis, Debye):
    X=             -5.6772    Y=             -9.6844    Z=             -1.0031  Tot=             11.2705
 Quadrupole moment (field-independent basis, Debye-Ang):
   XX=            288.1645   YY=              4.5206   ZZ=             -4.3433
   XY=            269.4207   XZ=             27.6391   YZ=             -0.6606

 Normal termination of Gaussian 16 at Thu Sep 23 04:09:25 2021.
