 Gaussian 16, Revision A.03,
 Gaussian 16:  ES64L-G16RevA.03 25-Dec-2016

 ----------------------------------------------------------
 #p cam-b3lyp/Def2SVP td=(nstates=5) density=(transition=1)
 ----------------------------------------------------------

 --------------------------------
 TDDFT excited states in gaussian
 --------------------------------
 Symbolic Z-matrix:
 Charge =  0 Multiplicity = 1

                         Standard orientation:
 ---------------------------------------------------------------------
 Center     Atomic      Atomic             Coordinates (Angstroms)
 Number     Number       Type             X           Y           Z
 ---------------------------------------------------------------------
      1         12           0       11.052965    0.071050   -0.050913
      2          6           0        8.053570    0.835412    1.491466
      3          6           0       10.287833   -3.370909    0.349480
      4          6           0       13.695073   -0.773398   -2.062962
      5          6           0       11.554207    3.392036   -0.856406
      6          7           0        9.413846   -1.078324    0.943345
      7          6           0        8.239074   -0.532458    1.416323
      8          6           0        7.136250   -1.599286    1.770297
      9          6           0        8.011499   -2.940200    1.777357
     10          6           0        9.376825   -2.487819    1.013210
     11          6           0        8.315942   -3.654988    3.148777
     12          6           0        5.994914   -1.673399    0.818054
     13          6           0        4.578798   -1.387962    1.279926
     14          1           0        3.460168   -2.108133    0.510006
     15          7           0       11.937343   -1.833156   -0.685714
     16          6           0       11.456503   -3.108873   -0.335396
     17          6           0       12.341256   -4.109869   -0.840826
     18          6           0       13.289328   -3.361699   -1.707499
     19          6           0       13.007453   -1.902629   -1.537676
     20          6           0       12.098722   -5.617112   -0.709976
     21          6           0       14.346377   -4.092736   -2.553496
     22          8           0       14.518097   -5.304969   -2.643651
     23          6           0       15.030156   -3.300531   -3.610928
     24          7           0       12.389623    1.181757   -1.489491
     25          6           0       13.474704    0.596332   -2.014389
     26          6           0       14.064263    1.591181   -3.013109
     27          6           0       13.461388    3.015813   -2.605213
     28          6           0       12.384710    2.531643   -1.534587
     29          6           0       15.624558    1.641857   -2.847939
     30          6           0       12.819234    3.946592   -3.714188
     31          6           0       13.459391    5.280026   -4.070234
     32          7           0       10.050211    1.836270    0.318122
     33          6           0       10.387775    3.144786   -0.041479
     34          6           0        9.363041    4.047579    0.385846
     35          6           0        8.389015    3.204272    1.004454
     36          6           0        8.926204    1.858974    0.956916
     37          6           0        9.294113    5.531677    0.208556
     38          6           0        7.171356    3.141716    1.702018
     39          8           0        6.432505    4.058548    2.000545
     40          6           0        6.856541    1.620028    1.975630
     41          6           0        6.405492    1.477788    3.368822
     42          8           0        5.233763    1.299991    3.681977
     43          8           0        7.481783    1.601304    4.234754
     44          6           0        7.091403    1.512388    5.659786
     45          1           0       10.182397   -4.452672    0.450774
     46          1           0       14.568529   -1.127901   -2.614924
     47          1           0       11.708642    4.430238   -1.157225
     48          1           0        6.757248   -1.407913    2.773606
     49          1           0        7.523132   -3.629469    1.087579
     50          1           0        7.653447   -3.212678    3.892729
     51          1           0        9.352410   -3.582763    3.478619
     52          1           0        8.124681   -4.717139    3.000571
     53          1           0        5.951396   -2.707566    0.473122
     54          1           0        6.151251   -0.975766   -0.004027
     55          1           0        4.382730   -0.330020    1.107976
     56          1           0        4.398832   -1.665850    2.318181
     57          1           0       11.188336   -6.008249   -0.256311
     58          1           0       13.004220   -5.946167   -0.200773
     59          1           0       12.290678   -5.985184   -1.717327
     60          1           0       15.952789   -2.771237   -3.376712
     61          1           0       14.344371   -2.635879   -4.136538
     62          1           0       15.369892   -4.025033   -4.351983
     63          1           0       13.817357    1.350079   -4.047288
     64          1           0       14.186040    3.574322   -2.013753
     65          1           0       16.048736    1.526121   -3.845315
     66          1           0       16.050436    0.897866   -2.173551
     67          1           0       15.981844    2.581106   -2.425106
     68          1           0       11.802916    4.112013   -3.357331
     69          1           0       12.866167    3.361530   -4.633713
     70          1           0       12.649177    5.878739   -4.487169
     71          1           0       14.191442    5.119222   -4.861959
     72          1           0       13.910196    5.894322   -3.291517
     73          1           0        8.360523    5.844142    0.677128
     74          1           0        9.348849    5.730987   -0.861240
     75          1           0       10.090041    6.095495    0.695419
     76          1           0        5.997617    1.419207    1.334412
     77          1           0        6.855323    2.503928    6.045925
     78          1           0        7.908391    0.991857    6.159417
     79          1           0        6.230597    0.860169    5.804406
     80         12           0      -10.917744   -0.094371   -0.614682
     81          6           0       -8.040804   -0.880852    1.212230
     82          6           0      -10.255352    3.225019    0.147474
     83          6           0      -13.803030    0.615225   -1.934859
     84          6           0      -11.475561   -3.565022   -1.047234
     85          7           0       -9.516227    1.032997    0.913601
     86          6           0       -8.375901    0.505822    1.370946
     87          6           0       -7.592992    1.602767    2.011583
     88          6           0       -8.548871    2.820726    2.032577
     89          6           0       -9.504352    2.375262    0.943346
     90          6           0       -9.253709    3.214087    3.331974
     91          6           0       -6.275598    1.911679    1.231899
     92          6           0       -4.930708    2.003772    2.022704
     93          1           0       -4.952354    2.484310    3.507297
     94          7           0      -11.845422    1.732147   -0.998090
     95          6           0      -11.283620    2.978348   -0.754118
     96          6           0      -12.184602    3.942496   -1.296549
     97          6           0      -13.328249    3.212128   -1.814409
     98          6           0      -13.047104    1.797615   -1.619485
     99          6           0      -11.997915    5.472259   -1.196198
    100          6           0      -14.663440    3.743990   -2.410153
    101          8           0      -15.553898    3.052725   -2.791797
    102          6           0      -14.771952    5.249071   -2.556238
    103          7           0      -12.384976   -1.324482   -1.378081
    104          6           0      -13.540143   -0.777215   -1.817932
    105          6           0      -14.567600   -1.814830   -2.348273
    106          6           0      -13.676701   -3.129626   -2.297970
    107          6           0      -12.419811   -2.681426   -1.561639
    108          6           0      -15.913095   -1.822187   -1.417563
    109          6           0      -13.477423   -3.807344   -3.690016
    110          6           0      -12.189646   -3.520780   -4.441321
    111          7           0       -9.971860   -1.927999   -0.094540
    112          6           0      -10.265881   -3.226222   -0.413484
    113          6           0       -9.184805   -4.104431    0.156907
    114          6           0       -8.302190   -3.204667    0.796147
    115          6           0       -8.826548   -1.876191    0.664963
    116          6           0       -9.151275   -5.607675    0.211034
    117          6           0       -7.067487   -3.097899    1.569563
    118          8           0       -6.323595   -4.009775    1.941959
    119          6           0       -6.796471   -1.602747    1.707869
    120          6           0       -6.532088   -1.370990    3.168026
    121          8           0       -7.385402   -1.307001    4.033920
    122          8           0       -5.219578   -1.450062    3.313273
    123          6           0       -4.687487   -1.676461    4.647871
    124          1           0      -10.133855    4.250290    0.501841
    125          1           0      -14.683959    0.838638   -2.539740
    126          1           0      -11.641052   -4.634596   -1.194548
    127          1           0       -7.316487    1.289682    3.017872
    128          1           0       -7.934555    3.687115    1.787105
    129          1           0       -9.005697    2.625109    4.215157
    130          1           0      -10.335413    3.173618    3.200975
    131          1           0       -8.974155    4.249998    3.522628
    132          1           0       -6.351192    2.779014    0.576399
    133          1           0       -6.257055    1.040134    0.577703
    134          1           0       -4.344722    2.715013    1.439222
    135          1           0       -4.446308    1.027990    1.997070
    136          1           0      -12.861740    5.984829   -0.772790
    137          1           0      -11.920972    5.944888   -2.175505
    138          1           0      -11.111980    5.783930   -0.641372
    139          1           0      -13.918525    5.686296   -3.074916
    140          1           0      -14.923500    5.672183   -1.563130
    141          1           0      -15.712508    5.515739   -3.038222
    142          1           0      -14.885442   -1.604446   -3.369309
    143          1           0      -14.137624   -3.935786   -1.727395
    144          1           0      -15.854596   -2.762233   -0.868771
    145          1           0      -16.836034   -1.924299   -1.988833
    146          1           0      -15.933334   -1.039779   -0.658087
    147          1           0      -14.246152   -3.349034   -4.312353
    148          1           0      -13.656666   -4.881925   -3.661186
    149          1           0      -12.048390   -2.446212   -4.319102
    150          1           0      -12.465651   -3.818130   -5.452734
    151          1           0      -11.241222   -3.938731   -4.104793
    152          1           0      -10.023004   -6.163333   -0.134693
    153          1           0       -8.995168   -5.924581    1.242297
    154          1           0       -8.242609   -5.888174   -0.320713
    155          1           0       -5.863610   -1.263649    1.257011
    156          1           0       -5.363298   -1.872751    5.479633
    157          1           0       -4.228664   -0.715910    4.884238
    158          1           0       -3.740501   -2.207238    4.549144
 ---------------------------------------------------------------------

 SCF Done:  E(RCAM-B3LYP) =  -4069.79376204     A.U. after   18 cycles

 Excitation energies and oscillator strengths:

 Excited State   1:      Singlet-A      1.7135 eV  723.59 nm  f=0.3196  <S**2>=0.000
     309 -> 315       -0.17354
     311 -> 313        0.68413
     309 <- 315       -0.10453
 This state for optimization and/or second-order correction.
 Total Energy, E(TD-HF/TD-DFT) =  -4069.73079332
 Copying the excited state density for this state as the 1-particle RhoCI density.

 Excited State   2:      Singlet-A      1.7292 eV  717.01 nm  f=0.4538  <S**2>=0.000
     310 -> 316       -0.18642
     312 -> 314        0.68152
     310 <- 316       -0.10931

 Excited State   3:      Singlet-A      2.1719 eV  570.85 nm  f=0.1663  <S**2>=0.000
     309 -> 313        0.65159
     311 -> 315        0.25326

 Excited State   4:      Singlet-A      2.2140 eV  559.99 nm  f=0.0988  <S**2>=0.000
     310 -> 314        0.64216
     312 -> 316        0.28186

 Excited State   5:      Singlet-A      2.6002 eV  476.83 nm  f=0.0000  <S**2>=0.000
     312 -> 313        0.70704

 The electronic state is 1-A.
 Alpha  occ. eigenvalues --  -46.90561 -46.88654 -19.26052 -19.25232 -19.19943
 Alpha  occ. eigenvalues --  -19.19458 -19.19268 -19.19178 -19.18505 -19.18397
 Alpha  occ. eigenvalues --  -14.43566 -14.42070 -14.41649 -14.41450 -14.40125
 Alpha  occ. eigenvalues --  -14.39954 -14.39178 -14.38603 -10.39238 -10.38967
 Alpha  occ. eigenvalues --  -10.35342 -10.35316 -10.34377 -10.34286 -10.33191
 Alpha  occ. eigenvalues --  -10.32153 -10.31825 -10.31763 -10.31751 -10.31623
 Alpha  occ. eigenvalues --  -10.31111 -10.30945 -10.30900 -10.30661 -10.30509
 Alpha  occ. eigenvalues --  -10.30500 -10.30203 -10.29909 -10.29585 -10.29499
 Alpha  occ. eigenvalues --  -10.29427 -10.29248 -10.29176 -10.29174 -10.29115
 Alpha  occ. eigenvalues --  -10.28837 -10.28791 -10.28746 -10.28593 -10.28519
 Alpha  occ. eigenvalues --  -10.28371 -10.28359 -10.28339 -10.28273 -10.28265
 Alpha  occ. eigenvalues --  -10.28110 -10.28061 -10.27994 -10.27917 -10.27538
 Alpha  occ. eigenvalues --  -10.27453 -10.27411 -10.27103 -10.27055 -10.26924
 Alpha  occ. eigenvalues --  -10.26906 -10.26895 -10.26830 -10.26561 -10.26558
 Alpha  occ. eigenvalues --  -10.26459 -10.26377 -10.26332 -10.26245 -10.26242
 Alpha  occ. eigenvalues --  -10.26173 -10.26140 -10.25971 -10.25845 -10.25772
 Alpha  occ. eigenvalues --  -10.25659 -10.25478 -10.25212 -10.25098 -10.24992
 Alpha  occ. eigenvalues --  -10.24978  -3.18772  -3.17111  -1.93700  -1.93203
 Alpha  occ. eigenvalues --   -1.93074  -1.92019  -1.91601  -1.91371  -1.18134
 Alpha  occ. eigenvalues --   -1.15648  -1.11249  -1.10125  -1.09867  -1.09464
 Alpha  occ. eigenvalues --   -1.08483  -1.07594  -1.04899  -1.04863  -1.04134
 Alpha  occ. eigenvalues --   -1.03646  -1.02649  -1.02466  -1.01816  -1.01727
 Alpha  occ. eigenvalues --   -0.93201  -0.92675  -0.89582  -0.89462  -0.88604
 Alpha  occ. eigenvalues --   -0.88415  -0.88267  -0.87884  -0.87771  -0.87257
 Alpha  occ. eigenvalues --   -0.86964  -0.86107  -0.85892  -0.85393  -0.84594
 Alpha  occ. eigenvalues --   -0.84277  -0.83922  -0.83557  -0.82976  -0.82489
 Alpha  occ. eigenvalues --   -0.82302  -0.81242  -0.80975  -0.80838  -0.80654
 Alpha  occ. eigenvalues --   -0.79888  -0.77916  -0.77769  -0.77273  -0.77176
 Alpha  occ. eigenvalues --   -0.77066  -0.76839  -0.76307  -0.76167  -0.75603
 Alpha  occ. eigenvalues --   -0.74982  -0.73584  -0.72541  -0.72363  -0.71569
 Alpha  occ. eigenvalues --   -0.69469  -0.69414  -0.69075  -0.68741  -0.68075
 Alpha  occ. eigenvalues --   -0.67829  -0.67217  -0.65945  -0.65708  -0.65553
 Alpha  occ. eigenvalues --   -0.65330  -0.65089  -0.64891  -0.64846  -0.64499
 Alpha  occ. eigenvalues --   -0.64189  -0.63110  -0.62637  -0.60329  -0.59833
 Alpha  occ. eigenvalues --   -0.59709  -0.59540  -0.59508  -0.59147  -0.59055
 Alpha  occ. eigenvalues --   -0.58319  -0.57931  -0.57873  -0.57164  -0.57080
 Alpha  occ. eigenvalues --   -0.56715  -0.56629  -0.56060  -0.55863  -0.55539
 Alpha  occ. eigenvalues --   -0.54904  -0.54820  -0.54657  -0.54523  -0.53932
 Alpha  occ. eigenvalues --   -0.53605  -0.53435  -0.53324  -0.53080  -0.52908
 Alpha  occ. eigenvalues --   -0.52858  -0.52715  -0.52568  -0.52382  -0.52178
 Alpha  occ. eigenvalues --   -0.51915  -0.51904  -0.51579  -0.51413  -0.51189
 Alpha  occ. eigenvalues --   -0.51091  -0.51019  -0.50894  -0.50449  -0.50287
 Alpha  occ. eigenvalues --   -0.49978  -0.49786  -0.49582  -0.49552  -0.49254
 Alpha  occ. eigenvalues --   -0.49214  -0.49073  -0.48957  -0.48722  -0.48696
 Alpha  occ. eigenvalues --   -0.48510  -0.48389  -0.48221  -0.48043  -0.47954
 Alpha  occ. eigenvalues --   -0.47867  -0.47827  -0.47248  -0.47180  -0.47088
 Alpha  occ. eigenvalues --   -0.46787  -0.46760  -0.46668  -0.46276  -0.46205
 Alpha  occ. eigenvalues --   -0.46074  -0.45909  -0.45865  -0.45766  -0.45762
 Alpha  occ. eigenvalues --   -0.45737  -0.45499  -0.45432  -0.45395  -0.45281
 Alpha  occ. eigenvalues --   -0.45188  -0.44843  -0.44751  -0.44700  -0.44596
 Alpha  occ. eigenvalues --   -0.44281  -0.44198  -0.43807  -0.43715  -0.43593
 Alpha  occ. eigenvalues --   -0.43194  -0.43127  -0.43056  -0.42899  -0.42841
 Alpha  occ. eigenvalues --   -0.42786  -0.42552  -0.42510  -0.42324  -0.42011
 Alpha  occ. eigenvalues --   -0.41665  -0.41592  -0.41578  -0.41475  -0.41347
 Alpha  occ. eigenvalues --   -0.41050  -0.40886  -0.40582  -0.40565  -0.40107
 Alpha  occ. eigenvalues --   -0.40041  -0.39787  -0.39547  -0.39405  -0.39172
 Alpha  occ. eigenvalues --   -0.38421  -0.38283  -0.37893  -0.37488  -0.37299
 Alpha  occ. eigenvalues --   -0.36979  -0.36926  -0.36888  -0.36538  -0.36194
 Alpha  occ. eigenvalues --   -0.36066  -0.35978  -0.34593  -0.34396  -0.34220
 Alpha  occ. eigenvalues --   -0.33916  -0.33411  -0.33007  -0.31839  -0.31287
 Alpha  occ. eigenvalues --   -0.31257  -0.30639  -0.30623  -0.30273  -0.30258
 Alpha  occ. eigenvalues --   -0.29785  -0.29653  -0.28816  -0.24692  -0.23650
 Alpha  occ. eigenvalues --   -0.22231  -0.20930
 Alpha virt. eigenvalues --   -0.09802  -0.08344  -0.02411  -0.01376  -0.00054
 Alpha virt. eigenvalues --    0.00343   0.02136   0.02265   0.02962   0.03015
 Alpha virt. eigenvalues --    0.04432   0.05166   0.05362   0.05761   0.05761

 Mulliken charges:
               1
     1  Mg  12.001419
     2  C    6.024455
     3  C    5.992744
     4  C    5.962951
     5  C    6.003395
     6  N    7.013756
     7  C    5.968730
     8  C    6.010385
     9  C    5.995431
    10  C    6.031701
    11  C    5.994847
    12  C    5.999179
    13  C    6.001468
    14  H    0.996155
    15  N    6.985133
    16  C    6.045357
    17  C    6.018584
    18  C    6.011512
    19  C    6.047849
    20  C    5.996646
    21  C    6.010419
    22  O    8.019804
    23  C    5.993524
    24  N    6.991895
    25  C    6.038254
    26  C    5.990189
    27  C    6.003920
    28  C    5.975611
    29  C    5.997544
    30  C    6.004197
    31  C    6.000974
    32  N    7.005406
    33  C    5.957728
    34  C    5.975467
    35  C    5.995606
    36  C    5.965546
    37  C    6.000966
    38  C    5.984267
    39  O    7.966689
    40  C    5.995832
    41  C    5.994809
    42  O    7.992749
    43  O    8.002524
    44  C    6.003195
    45  H    1.013114
    46  H    0.998862
    47  H    0.986287
    48  H    1.002642
    49  H    1.002642
    50  H    1.015407
    51  H    1.000485
    52  H    1.002577
    53  H    0.990784
    54  H    1.005289
    55  H    1.007093
    56  H    0.998658
    57  H    1.017812
    58  H    1.017611
    59  H    1.015460
    60  H    1.013815
    61  H    1.010265
    62  H    1.011007
    63  H    1.001886
    64  H    0.999236
    65  H    1.000296
    66  H    0.994733
    67  H    1.007394
    68  H    1.007363
    69  H    0.988553
    70  H    0.999400
    71  H    0.992337
    72  H    0.999625
    73  H    0.987294
    74  H    0.981635
    75  H    0.979717
    76  H    0.994297
    77  H    1.000031
    78  H    0.993259
    79  H    0.994320
    80  Mg  12.000189
    81  C    6.001330
    82  C    5.998674
    83  C    5.998489
    84  C    6.001719
    85  N    6.999839
    86  C    5.997663
    87  C    6.000430
    88  C    5.999091
    89  C    6.003120
    90  C    5.999882
    91  C    6.000071
    92  C    5.999921
    93  H    1.000018
    94  N    6.999031
    95  C    6.003963
    96  C    6.001153
    97  C    6.001392
    98  C    6.002803
    99  C    5.999629
   100  C    6.001122
   101  O    8.001986
   102  C    5.999491
   103  N    7.000346
   104  C    6.002667
   105  C    5.999197
   106  C    6.001014
   107  C    5.996984
   108  C    5.999525
   109  C    6.000209
   110  C    6.000681
   111  N    7.000636
   112  C    5.996209
   113  C    5.997463
   114  C    5.999721
   115  C    5.997094
   116  C    6.000346
   117  C    5.998569
   118  O    7.997309
   119  C    6.000181
   120  C    5.999695
   121  O    7.999321
   122  O    8.000086
   123  C    6.000136
   124  H    1.001120
   125  H    1.000312
   126  H    0.999146
   127  H    0.999919
   128  H    1.000754
   129  H    1.001146
   130  H    0.999373
   131  H    1.000529
   132  H    0.999112
   133  H    1.000313
   134  H    1.000626
   135  H    1.000348
   136  H    1.001430
   137  H    1.001674
   138  H    1.001852
   139  H    1.000604
   140  H    1.000693
   141  H    1.001150
   142  H    0.999960
   143  H    0.999636
   144  H    1.000871
   145  H    1.000130
   146  H    0.999732
   147  H    0.998971
   148  H    0.999690
   149  H    0.999315
   150  H    0.999325
   151  H    1.000540
   152  H    0.998119
   153  H    0.998282
   154  H    0.998149
   155  H    0.999521
   156  H    0.999471
   157  H    1.000185
   158  H    0.999604
 Sum of Mulliken charges = 624.00000

 Dipole moment (field-independent basis, Debye):
    X=              3.5727    Y=             -9.0678    Z=             -1.8352  Tot=              9.9175
 Quadrupole moment (field-independent basis, Debye-Ang):
   XX=             92.3594   YY=              0.5174   ZZ=              0.2681
   XY=           -115.9970   XZ=            -16.6320   YZ=              2.0060

 Normal termination of Gaussian 16 at Thu Sep 23 04:59:29 2021.
