 Gaussian 16, Revision A.03,
 Gaussian 16:  ES64L-G16RevA.03 25-Dec-2016

 -----------------------------------
 #p cam-b3lyp/Def2SVP td=(nstates=5)
 -----------------------------------

 --------------------------------
 TDDFT excited states in gaussian
 --------------------------------
 Symbolic Z-matrix:
 Charge =  0 Multiplicity = 1

                         Standard orientation:
 ---------------------------------------------------------------------
 Center     Atomic      Atomic             Coordinates (Angstroms)
 Number     Number       Type             X           Y           Z
 ---------------------------------------------------------------------
      1         12           0      -29.655501    0.378492   -0.591699
      2          6           0      -29.141235   -2.151662    1.741336
      3          6           0      -29.234072    2.702560    1.810910
      4          6           0      -30.610989    2.726902   -2.827208
      5          6           0      -30.550761   -2.052729   -2.867103
      6          7           0      -29.243542    0.243517    1.581646
      7          6           0      -28.866978   -0.887073    2.260998
      8          6           0      -28.453419   -0.545611    3.641970
      9          6           0      -28.513850    0.982533    3.749170
     10          6           0      -29.010163    1.401535    2.298634
     11          6           0      -29.307570    1.610558    4.884292
     12          6           0      -26.993312   -1.181532    4.002237
     13          6           0      -26.921134   -2.205808    5.158917
     14          1           0      -25.766256   -2.196426    6.130035
     15          7           0      -29.774113    2.430576   -0.558244
     16          6           0      -29.573462    3.236612    0.552291
     17          6           0      -29.814928    4.590233    0.206972
     18          6           0      -30.227032    4.631215   -1.152620
     19          6           0      -30.197907    3.227526   -1.576222
     20          6           0      -29.481817    5.705848    1.273218
     21          6           0      -30.667690    5.886742   -1.903182
     22          8           0      -31.101563    5.913699   -3.064836
     23          6           0      -30.511906    7.199962   -1.271747
     24          7           0      -30.706671    0.397465   -2.503358
     25          6           0      -30.878958    1.456115   -3.267573
     26          6           0      -31.604626    1.080146   -4.579128
     27          6           0      -31.080625   -0.405959   -4.687502
     28          6           0      -30.719548   -0.728158   -3.240898
     29          6           0      -33.175128    1.121082   -4.669205
     30          6           0      -29.850211   -0.673320   -5.680491
     31          6           0      -28.586775    0.043472   -5.431478
     32          7           0      -29.889749   -1.756467   -0.642571
     33          6           0      -30.260007   -2.634432   -1.680108
     34          6           0      -30.226757   -3.978051   -1.197040
     35          6           0      -29.867529   -3.859047    0.130749
     36          6           0      -29.568030   -2.481724    0.391298
     37          6           0      -30.751709   -5.149419   -1.871587
     38          6           0      -29.461841   -4.588589    1.238271
     39          8           0      -29.430147   -5.804278    1.455375
     40          6           0      -29.061052   -3.552540    2.384978
     41          6           0      -30.129505   -3.675152    3.420561
     42          8           0      -31.330097   -3.509411    3.367191
     43          8           0      -29.493874   -4.067792    4.525944
     44          6           0      -30.345553   -4.240016    5.748186
     45          1           0      -28.858745    3.349924    2.606178
     46          1           0      -30.759207    3.524780   -3.556914
     47          1           0      -30.773046   -2.813656   -3.617845
     48          1           0      -29.208438   -1.005545    4.278340
     49          1           0      -27.498501    1.370419    3.828066
     50          1           0      -30.229350    1.748348    4.320333
     51          1           0      -28.872590    2.506486    5.327601
     52          1           0      -29.554101    1.017556    5.764594
     53          1           0      -26.297096   -0.366267    4.196793
     54          1           0      -26.571832   -1.790102    3.201780
     55          1           0      -26.827654   -3.183684    4.685675
     56          1           0      -27.858211   -2.266685    5.710746
     57          1           0      -30.358119    6.343450    1.388539
     58          1           0      -28.734402    6.231187    0.678542
     59          1           0      -29.256356    5.397087    2.294019
     60          1           0      -31.046396    7.244537   -0.323847
     61          1           0      -31.125459    7.880357   -1.861794
     62          1           0      -29.488839    7.573178   -1.218796
     63          1           0      -31.092198    1.575090   -5.404203
     64          1           0      -31.940487   -0.949626   -5.078139
     65          1           0      -33.709238    0.764189   -3.789426
     66          1           0      -33.370950    0.509599   -5.550760
     67          1           0      -33.524863    2.138976   -4.843499
     68          1           0      -30.072859   -0.426778   -6.718926
     69          1           0      -29.452135   -1.679782   -5.551698
     70          1           0      -28.118692   -0.550152   -4.647483
     71          1           0      -28.618680    1.070487   -5.066444
     72          1           0      -27.850164    0.092151   -6.232763
     73          1           0      -31.819558   -5.111559   -1.652984
     74          1           0      -30.353380   -6.104856   -1.531379
     75          1           0      -30.512485   -5.181277   -2.935099
     76          1           0      -28.046886   -3.692086    2.759425
     77          1           0      -30.100834   -3.377832    6.368956
     78          1           0      -30.119684   -5.195396    6.221283
     79          1           0      -31.427089   -4.199207    5.615874
     80         12           0       30.292811   -0.663368    0.350393
     81          6           0       28.210559    2.226046    0.147397
     82          6           0       28.008344   -2.188338   -1.511773
     83          6           0       32.568436   -3.054116   -0.375800
     84          6           0       32.841996    1.568676    1.454855
     85          7           0       28.354130   -0.108004   -0.440007
     86          6           0       27.627575    1.098591   -0.343776
     87          6           0       26.238959    1.037055   -1.054628
     88          6           0       26.207786   -0.443867   -1.527810
     89          6           0       27.570593   -0.997740   -1.060965
     90          6           0       24.948802   -1.092909   -0.929127
     91          6           0       25.974745    2.054796   -2.246784
     92          6           0       24.898307    3.110286   -2.021516
     93          1           0       23.746089    3.179070   -3.044517
     94          7           0       30.293312   -2.398333   -0.677269
     95          6           0       29.202578   -2.862807   -1.411998
     96          6           0       29.453833   -4.156894   -1.903790
     97          6           0       30.714255   -4.538199   -1.482189
     98          6           0       31.270782   -3.365104   -0.839153
     99          6           0       28.510441   -5.091349   -2.748591
    100          6           0       31.292361   -5.908276   -1.748601
    101          8           0       30.681324   -6.812690   -2.235249
    102          6           0       32.783842   -6.147234   -1.198994
    103          7           0       32.415067   -0.724858    0.441876
    104          6           0       33.106051   -1.859974    0.116125
    105          6           0       34.646355   -1.507075    0.217274
    106          6           0       34.759697   -0.133614    0.899609
    107          6           0       33.242913    0.294287    0.929003
    108          6           0       35.509457   -2.597770    0.785099
    109          6           0       35.534729    0.819108   -0.002110
    110          6           0       36.200845    2.000613    0.651582
    111          7           0       30.451931    1.422480    0.971776
    112          6           0       31.531900    2.149959    1.411839
    113          6           0       31.132222    3.468936    1.744501
    114          6           0       29.780846    3.594710    1.344276
    115          6           0       29.475064    2.329188    0.768665
    116          6           0       31.981814    4.567924    2.243673
    117          6           0       28.584464    4.434935    1.199012
    118          8           0       28.405944    5.597517    1.586381
    119          6           0       27.492362    3.588707    0.438840
    120          6           0       26.415412    3.286865    1.343681
    121          8           0       26.544536    2.417415    2.237749
    122          8           0       25.396012    4.115916    1.044793
    123          6           0       24.078568    3.889931    1.699994
    124          1           0       27.260915   -2.733826   -2.092243
    125          1           0       33.261064   -3.876491   -0.567245
    126          1           0       33.549770    2.264836    1.908967
    127          1           0       25.445401    1.195581   -0.324464
    128          1           0       26.183310   -0.554236   -2.611507
    129          1           0       25.022247   -2.161769   -1.127642
    130          1           0       23.996598   -0.741562   -1.326346
    131          1           0       24.882222   -0.951737    0.150225
    132          1           0       25.550762    1.428921   -3.032063
    133          1           0       26.914432    2.499588   -2.574454
    134          1           0       25.399898    4.077330   -1.971449
    135          1           0       24.408605    2.922487   -1.065342
    136          1           0       29.091441   -5.377083   -3.625696
    137          1           0       27.604508   -4.576007   -3.067289
    138          1           0       28.090250   -5.946753   -2.219670
    139          1           0       32.992162   -7.203080   -1.369291
    140          1           0       32.705213   -5.858813   -0.150520
    141          1           0       33.360038   -5.450117   -1.807299
    142          1           0       34.945356   -1.409828   -0.826990
    143          1           0       35.218390   -0.111173    1.888093
    144          1           0       36.360226   -2.134871    1.284372
    145          1           0       35.817701   -3.206065   -0.065465
    146          1           0       34.980988   -3.305337    1.422916
    147          1           0       34.937449    1.208870   -0.826904
    148          1           0       36.309930    0.306651   -0.571768
    149          1           0       36.213596    1.932837    1.739246
    150          1           0       35.647958    2.894665    0.362615
    151          1           0       37.178549    2.186889    0.207283
    152          1           0       32.831238    4.193046    2.815557
    153          1           0       31.332290    5.171829    2.877793
    154          1           0       32.353982    5.072583    1.351801
    155          1           0       27.166236    4.011731   -0.511326
    156          1           0       23.729471    4.920345    1.781277
    157          1           0       24.140621    3.363766    2.652115
    158          1           0       23.353623    3.466308    1.004123
 ---------------------------------------------------------------------

 SCF Done:  E(RCAM-B3LYP) =  -4069.78697516     A.U. after   19 cycles

 Excitation energies and oscillator strengths:

 Excited State   1:      Singlet-A      1.7047 eV  727.31 nm  f=0.3669  <S**2>=0.000
     310 -> 316        0.17511
     311 -> 313        0.68603
     310 <- 316        0.10611
 This state for optimization and/or second-order correction.
 Total Energy, E(TD-HF/TD-DFT) =  -4069.72432890
 Copying the excited state density for this state as the 1-particle RhoCI density.

 Excited State   2:      Singlet-A      1.7225 eV  719.78 nm  f=0.3930  <S**2>=0.000
     309 -> 315        0.17109
     312 -> 314        0.68744
     309 <- 315        0.10386

 Excited State   3:      Singlet-A      2.1769 eV  569.54 nm  f=0.1389  <S**2>=0.000
     310 -> 313        0.65141
     311 -> 316       -0.26317

 Excited State   4:      Singlet-A      2.2584 eV  549.00 nm  f=0.1173  <S**2>=0.000
     309 -> 314        0.63725
     312 -> 315       -0.28974

 Excited State   5:      Singlet-A      3.1803 eV  389.85 nm  f=0.0000  <S**2>=0.000
     312 -> 313        0.70711

 The electronic state is 1-A.
 Alpha  occ. eigenvalues --  -46.89369 -46.88522 -19.26520 -19.25072 -19.19675
 Alpha  occ. eigenvalues --  -19.19653 -19.19100 -19.18746 -19.18696 -19.18238
 Alpha  occ. eigenvalues --  -14.42545 -14.42193 -14.42028 -14.41856 -14.39730
 Alpha  occ. eigenvalues --  -14.39517 -14.39015 -14.38480 -10.39520 -10.38640
 Alpha  occ. eigenvalues --  -10.35489 -10.35403 -10.35102 -10.34183 -10.32855
 Alpha  occ. eigenvalues --  -10.31726 -10.31648 -10.31506 -10.31452 -10.31234
 Alpha  occ. eigenvalues --  -10.31001 -10.30653 -10.30612 -10.30489 -10.30311
 Alpha  occ. eigenvalues --  -10.30132 -10.29819 -10.29628 -10.29133 -10.29023
 Alpha  occ. eigenvalues --  -10.29014 -10.28699 -10.28698 -10.28579 -10.28568
 Alpha  occ. eigenvalues --  -10.28351 -10.28310 -10.28224 -10.28183 -10.28150
 Alpha  occ. eigenvalues --  -10.28035 -10.27968 -10.27912 -10.27893 -10.27826
 Alpha  occ. eigenvalues --  -10.27789 -10.27631 -10.27552 -10.27534 -10.27508
 Alpha  occ. eigenvalues --  -10.27500 -10.27324 -10.27197 -10.27185 -10.27121
 Alpha  occ. eigenvalues --  -10.27100 -10.26933 -10.26849 -10.26527 -10.26491
 Alpha  occ. eigenvalues --  -10.26454 -10.26406 -10.26370 -10.26291 -10.26268
 Alpha  occ. eigenvalues --  -10.26063 -10.26011 -10.25854 -10.25833 -10.25765
 Alpha  occ. eigenvalues --  -10.25610 -10.25448 -10.25177 -10.24848 -10.24760
 Alpha  occ. eigenvalues --  -10.24685  -3.17778  -3.17120  -1.92680  -1.92212
 Alpha  occ. eigenvalues --   -1.92095  -1.91998  -1.91556  -1.91447  -1.17033
 Alpha  occ. eigenvalues --   -1.16657  -1.11992  -1.09153  -1.08678  -1.08589
 Alpha  occ. eigenvalues --   -1.07409  -1.07386  -1.05451  -1.04286  -1.04129
 Alpha  occ. eigenvalues --   -1.03413  -1.03192  -1.02847  -1.02658  -1.01757
 Alpha  occ. eigenvalues --   -0.92241  -0.92224  -0.89677  -0.89359  -0.89249
 Alpha  occ. eigenvalues --   -0.88777  -0.88722  -0.88399  -0.87993  -0.87628
 Alpha  occ. eigenvalues --   -0.87344  -0.86892  -0.86656  -0.86518  -0.84829
 Alpha  occ. eigenvalues --   -0.84666  -0.84316  -0.84250  -0.83308  -0.83101
 Alpha  occ. eigenvalues --   -0.82037  -0.81922  -0.81592  -0.81147  -0.80769
 Alpha  occ. eigenvalues --   -0.80324  -0.78781  -0.77740  -0.77694  -0.77410
 Alpha  occ. eigenvalues --   -0.77389  -0.76696  -0.76269  -0.75977  -0.75396
 Alpha  occ. eigenvalues --   -0.75142  -0.73510  -0.72764  -0.71735  -0.71707
 Alpha  occ. eigenvalues --   -0.69417  -0.69270  -0.69121  -0.68628  -0.67804
 Alpha  occ. eigenvalues --   -0.67768  -0.67254  -0.67240  -0.65787  -0.65710
 Alpha  occ. eigenvalues --   -0.65614  -0.65419  -0.65009  -0.64846  -0.64572
 Alpha  occ. eigenvalues --   -0.63999  -0.62251  -0.62089  -0.60466  -0.60158
 Alpha  occ. eigenvalues --   -0.59953  -0.59645  -0.59443  -0.59338  -0.58646
 Alpha  occ. eigenvalues --   -0.58532  -0.58290  -0.58224  -0.57953  -0.57158
 Alpha  occ. eigenvalues --   -0.56467  -0.56422  -0.56057  -0.55806  -0.55510
 Alpha  occ. eigenvalues --   -0.55084  -0.54986  -0.54859  -0.54733  -0.54704
 Alpha  occ. eigenvalues --   -0.54290  -0.53827  -0.53418  -0.53282  -0.53179
 Alpha  occ. eigenvalues --   -0.53020  -0.52887  -0.52721  -0.52489  -0.52416
 Alpha  occ. eigenvalues --   -0.52217  -0.51933  -0.51693  -0.51490  -0.51248
 Alpha  occ. eigenvalues --   -0.51196  -0.51119  -0.50589  -0.50398  -0.50361
 Alpha  occ. eigenvalues --   -0.50168  -0.49977  -0.49877  -0.49829  -0.49756
 Alpha  occ. eigenvalues --   -0.49483  -0.49229  -0.49186  -0.49020  -0.48934
 Alpha  occ. eigenvalues --   -0.48533  -0.48439  -0.48382  -0.48269  -0.48103
 Alpha  occ. eigenvalues --   -0.48073  -0.47529  -0.47495  -0.47400  -0.47142
 Alpha  occ. eigenvalues --   -0.46969  -0.46866  -0.46698  -0.46430  -0.46306
 Alpha  occ. eigenvalues --   -0.46268  -0.46099  -0.46023  -0.45843  -0.45625
 Alpha  occ. eigenvalues --   -0.45317  -0.45279  -0.45164  -0.44934  -0.44745
 Alpha  occ. eigenvalues --   -0.44664  -0.44503  -0.44329  -0.44141  -0.44135
 Alpha  occ. eigenvalues --   -0.44086  -0.43752  -0.43724  -0.43477  -0.43392
 Alpha  occ. eigenvalues --   -0.43299  -0.43221  -0.43094  -0.42973  -0.42808
 Alpha  occ. eigenvalues --   -0.42571  -0.42534  -0.42317  -0.42248  -0.42140
 Alpha  occ. eigenvalues --   -0.41946  -0.41858  -0.41671  -0.41650  -0.41634
 Alpha  occ. eigenvalues --   -0.41098  -0.40998  -0.40742  -0.40597  -0.40224
 Alpha  occ. eigenvalues --   -0.40192  -0.40123  -0.39553  -0.39169  -0.38967
 Alpha  occ. eigenvalues --   -0.38398  -0.38235  -0.38092  -0.38055  -0.37722
 Alpha  occ. eigenvalues --   -0.37617  -0.37228  -0.37044  -0.36714  -0.36398
 Alpha  occ. eigenvalues --   -0.36151  -0.36012  -0.34505  -0.34351  -0.34332
 Alpha  occ. eigenvalues --   -0.34177  -0.33509  -0.32943  -0.31801  -0.31508
 Alpha  occ. eigenvalues --   -0.31066  -0.30904  -0.30768  -0.30564  -0.30559
 Alpha  occ. eigenvalues --   -0.30485  -0.30014  -0.28940  -0.24282  -0.24045
 Alpha  occ. eigenvalues --   -0.21469  -0.21263
 Alpha virt. eigenvalues --   -0.09008  -0.08764  -0.01710  -0.01646   0.00252
 Alpha virt. eigenvalues --    0.00557   0.01986   0.02174   0.02435   0.02726
 Alpha virt. eigenvalues --    0.04543   0.04738   0.05313   0.05626   0.06072

 Mulliken charges:
               1
     1  Mg   0.804299
     2  C   -0.001834
     3  C   -0.056886
     4  C   -0.056502
     5  C   -0.102532
     6  N   -0.309895
     7  C   -0.028076
     8  C   -0.016377
     9  C   -0.002647
    10  C   -0.048509
    11  C    0.052473
    12  C    0.041315
    13  C   -0.079861
    14  H    0.019994
    15  N   -0.378198
    16  C    0.181723
    17  C   -0.165963
    18  C   -0.026635
    19  C    0.105820
    20  C    0.128344
    21  C    0.003902
    22  O   -0.216821
    23  C    0.054128
    24  N   -0.227533
    25  C    0.004249
    26  C    0.006891
    27  C   -0.066247
    28  C    0.078657
    29  C    0.091299
    30  C    0.063821
    31  C   -0.038699
    32  N   -0.322723
    33  C    0.102237
    34  C   -0.118842
    35  C    0.060269
    36  C    0.066500
    37  C    0.105457
    38  C    0.014142
    39  O   -0.191323
    40  C   -0.024987
    41  C    0.199673
    42  O   -0.213047
    43  O   -0.318123
    44  C    0.160235
    45  H   -0.030914
    46  H   -0.012898
    47  H   -0.027860
    48  H    0.022313
    49  H    0.007323
    50  H    0.027512
    51  H    0.019902
    52  H    0.018113
    53  H    0.017760
    54  H    0.019224
    55  H    0.036297
    56  H    0.017782
    57  H    0.016271
    58  H    0.039240
    59  H    0.030106
    60  H    0.018192
    61  H    0.019414
    62  H    0.052917
    63  H   -0.008463
    64  H   -0.003709
    65  H    0.027779
    66  H    0.020255
    67  H    0.028562
    68  H    0.010817
    69  H    0.003887
    70  H    0.002569
    71  H    0.016304
    72  H    0.015329
    73  H    0.051129
    74  H    0.031509
    75  H    0.014502
    76  H    0.028963
    77  H    0.030128
    78  H    0.050336
    79  H    0.056242
    80  Mg   0.849645
    81  C   -0.035853
    82  C   -0.127562
    83  C   -0.088498
    84  C   -0.059142
    85  N   -0.306882
    86  C   -0.024914
    87  C   -0.013006
    88  C   -0.067187
    89  C    0.093608
    90  C    0.060693
    91  C    0.056380
    92  C   -0.082548
    93  H    0.016203
    94  N   -0.421921
    95  C    0.201561
    96  C   -0.158754
    97  C   -0.012272
    98  C    0.124730
    99  C    0.150615
   100  C   -0.040001
   101  O   -0.163476
   102  C    0.032946
   103  N   -0.321061
   104  C    0.081249
   105  C   -0.032048
   106  C   -0.024586
   107  C    0.083665
   108  C    0.078934
   109  C   -0.005214
   110  C    0.032831
   111  N   -0.303153
   112  C    0.079961
   113  C   -0.204847
   114  C    0.040308
   115  C    0.083678
   116  C    0.124728
   117  C    0.054361
   118  O   -0.186650
   119  C   -0.001719
   120  C    0.227734
   121  O   -0.252769
   122  O   -0.319998
   123  C    0.163782
   124  H   -0.039029
   125  H   -0.061717
   126  H   -0.037179
   127  H    0.007688
   128  H    0.019303
   129  H    0.005382
   130  H    0.019876
   131  H    0.021152
   132  H    0.017035
   133  H    0.023304
   134  H    0.047051
   135  H    0.015736
   136  H    0.039280
   137  H   -0.011731
   138  H    0.038973
   139  H    0.030969
   140  H    0.046617
   141  H    0.048734
   142  H    0.020555
   143  H    0.012705
   144  H    0.018360
   145  H    0.010027
   146  H    0.016841
   147  H    0.005623
   148  H   -0.002418
   149  H    0.015936
   150  H    0.008829
   151  H    0.008744
   152  H    0.009174
   153  H    0.043179
   154  H    0.037474
   155  H    0.028171
   156  H    0.043857
   157  H    0.067956
   158  H    0.039991
 Sum of Mulliken charges =  -0.00000

 Dipole moment (field-independent basis, Debye):
    X=              2.3598    Y=              1.8178    Z=             -0.0982  Tot=              2.9804
 Quadrupole moment (field-independent basis, Debye-Ang):
   XX=           -567.6379   YY=           -577.0656   ZZ=           -490.8437
   XY=           -119.1563   XZ=            -59.7029   YZ=             11.2096

 Normal termination of Gaussian 16 at Tue Sep 14 22:48:05 2021.
