 Gaussian 16, Revision A.03,
 Gaussian 16:  ES64L-G16RevA.03 25-Dec-2016

 ----------------------------------------------------------
 #p cam-b3lyp/Def2SVP td=(nstates=5) density=(transition=1)
 ----------------------------------------------------------

 --------------------------------
 TDDFT excited states in gaussian
 --------------------------------
 Symbolic Z-matrix:
 Charge =  0 Multiplicity = 1

                         Standard orientation:
 ---------------------------------------------------------------------
 Center     Atomic      Atomic             Coordinates (Angstroms)
 Number     Number       Type             X           Y           Z
 ---------------------------------------------------------------------
      1         12           0      -25.476293   -0.666675   -0.241213
      2          6           0      -23.549769    2.250330   -0.353114
      3          6           0      -27.805544    1.176129    1.552291
      4          6           0      -27.071878   -3.458161    0.241475
      5          6           0      -22.834879   -2.359539   -1.884631
      6          7           0      -25.475662    1.411311    0.878086
      7          6           0      -24.670868    2.419559    0.527137
      8          6           0      -25.176852    3.656803    1.190355
      9          6           0      -26.293066    3.172757    2.148132
     10          6           0      -26.590987    1.839858    1.490538
     11          6           0      -26.013982    3.058561    3.647810
     12          6           0      -25.710511    4.697243    0.155197
     13          6           0      -25.231035    6.181317    0.256236
     14          1           0      -24.856527    6.766466    1.653642
     15          7           0      -27.315944   -1.064883    0.653703
     16          6           0      -28.179908   -0.103902    1.161880
     17          6           0      -29.373112   -0.789706    1.538066
     18          6           0      -29.149362   -2.202499    1.286081
     19          6           0      -27.824112   -2.319639    0.696271
     20          6           0      -30.591131   -0.124751    2.215829
     21          6           0      -30.051385   -3.427644    1.611505
     22          8           0      -29.762399   -4.558326    1.378144
     23          6           0      -31.409262   -3.112292    2.207415
     24          7           0      -24.994169   -2.599010   -0.772590
     25          6           0      -25.808245   -3.609113   -0.392652
     26          6           0      -25.319758   -5.014604   -0.839362
     27          6           0      -24.091089   -4.596582   -1.756178
     28          6           0      -23.949893   -3.100203   -1.503683
     29          6           0      -24.963841   -5.941927    0.460649
     30          6           0      -24.231953   -5.053126   -3.242291
     31          6           0      -24.734904   -4.037417   -4.252400
     32          7           0      -23.556710   -0.212011   -1.038655
     33          6           0      -22.660377   -0.970679   -1.741909
     34          6           0      -21.506113   -0.087794   -2.133718
     35          6           0      -21.836086    1.178830   -1.600809
     36          6           0      -23.080598    1.070293   -0.896240
     37          6           0      -20.206068   -0.498544   -2.770085
     38          6           0      -21.389665    2.562714   -1.460677
     39          8           0      -20.346547    3.070382   -1.882283
     40          6           0      -22.549680    3.304838   -0.803660
     41          6           0      -21.948301    4.064441    0.343953
     42          8           0      -21.635279    3.582334    1.417080
     43          8           0      -21.667922    5.267916   -0.128345
     44          6           0      -20.718245    6.090498    0.604463
     45          1           0      -28.471003    1.707169    2.235431
     46          1           0      -27.671057   -4.370699    0.232024
     47          1           0      -22.027568   -2.879785   -2.404890
     48          1           0      -24.353725    4.121321    1.732369
     49          1           0      -27.089010    3.914311    2.078559
     50          1           0      -25.025965    3.375399    3.982255
     51          1           0      -26.161901    2.031069    3.981371
     52          1           0      -26.758146    3.684721    4.139496
     53          1           0      -26.795363    4.690814    0.051662
     54          1           0      -25.318047    4.246628   -0.756300
     55          1           0      -26.077139    6.745750   -0.137739
     56          1           0      -24.370820    6.312812   -0.399653
     57          1           0      -30.890710   -0.616369    3.141443
     58          1           0      -31.497687   -0.213872    1.617034
     59          1           0      -30.469157    0.939753    2.420285
     60          1           0      -31.962138   -2.370285    1.630974
     61          1           0      -31.258814   -2.813422    3.244863
     62          1           0      -31.986415   -4.027447    2.339520
     63          1           0      -26.068342   -5.552192   -1.421100
     64          1           0      -23.158648   -5.081205   -1.467051
     65          1           0      -23.875658   -6.005985    0.454701
     66          1           0      -25.275115   -6.981052    0.351463
     67          1           0      -25.225829   -5.487475    1.416793
     68          1           0      -25.026745   -5.798434   -3.208850
     69          1           0      -23.329058   -5.532907   -3.619485
     70          1           0      -25.562182   -3.545236   -3.739606
     71          1           0      -25.045760   -4.688919   -5.068775
     72          1           0      -24.105948   -3.206139   -4.569942
     73          1           0      -20.010590   -1.559975   -2.922883
     74          1           0      -19.379143   -0.135970   -2.159317
     75          1           0      -20.154638    0.070686   -3.697683
     76          1           0      -22.975754    4.109486   -1.403238
     77          1           0      -20.185103    5.678558    1.460700
     78          1           0      -21.356024    6.869367    1.023565
     79          1           0      -20.223570    6.751749   -0.107083
     80         12           0       24.765274   -0.854168    0.285366
     81          6           0       24.295109    2.443095   -1.087876
     82          6           0       24.936944    0.481594    3.341845
     83          6           0       26.056526   -3.767612    1.322314
     84          6           0       25.026933   -1.995255   -3.021250
     85          7           0       24.684970    1.198640    1.000448
     86          6           0       24.298134    2.366709    0.321581
     87          6           0       24.014112    3.547599    1.326264
     88          6           0       24.296187    2.886325    2.709274
     89          6           0       24.607949    1.410258    2.345372
     90          6           0       25.379154    3.498246    3.561176
     91          6           0       22.534487    4.185191    1.143465
     92          6           0       22.496755    5.707220    0.958650
     93          1           0       21.638997    6.461805    2.041336
     94          7           0       25.280418   -1.592478    2.122597
     95          6           0       25.299025   -0.908276    3.270947
     96          6           0       25.761145   -1.737802    4.385141
     97          6           0       26.177133   -2.959146    3.750936
     98          6           0       25.861559   -2.818929    2.325511
     99          6           0       25.787504   -1.278549    5.779638
    100          6           0       26.916048   -4.115100    4.495647
    101          8           0       27.197229   -5.164763    3.941854
    102          6           0       27.306935   -4.030293    5.936615
    103          7           0       25.414220   -2.562214   -0.693358
    104          6           0       25.800958   -3.710518   -0.010705
    105          6           0       26.062359   -4.891185   -1.002610
    106          6           0       25.386453   -4.384784   -2.331157
    107          6           0       25.205910   -2.903366   -2.000750
    108          6           0       27.521476   -5.441556   -1.114316
    109          6           0       24.026727   -5.063611   -2.652116
    110          6           0       23.710366   -5.409227   -4.085358
    111          7           0       24.734938    0.018554   -1.672263
    112          6           0       24.854241   -0.576267   -2.896158
    113          6           0       24.563725    0.466709   -3.974410
    114          6           0       24.292247    1.638558   -3.310482
    115          6           0       24.477434    1.336241   -1.917796
    116          6           0       24.497060    0.124465   -5.445419
    117          6           0       23.958655    3.047510   -3.420345
    118          8           0       23.764426    3.638058   -4.503409
    119          6           0       24.037745    3.696132   -1.912711
    120          6           0       25.159954    4.692311   -1.708211
    121          8           0       26.339921    4.388862   -1.973636
    122          8           0       24.691865    5.966936   -1.386286
    123          6           0       25.700771    6.997519   -1.602075
    124          1           0       24.896877    0.830182    4.375730
    125          1           0       26.416876   -4.702518    1.755771
    126          1           0       25.001948   -2.448068   -4.015094
    127          1           0       24.757213    4.288171    1.031189
    128          1           0       23.411467    3.113161    3.305771
    129          1           0       25.887751    4.331626    3.076319
    130          1           0       26.103201    2.684616    3.534470
    131          1           0       25.018845    3.856113    4.526122
    132          1           0       22.024541    3.867421    2.052477
    133          1           0       22.019060    3.657873    0.341177
    134          1           0       22.162321    5.887431   -0.063003
    135          1           0       23.509235    6.103036    1.047820
    136          1           0       26.716742   -1.306601    6.347841
    137          1           0       25.254927   -2.054824    6.327874
    138          1           0       25.191580   -0.390923    5.993123
    139          1           0       26.366961   -3.910658    6.476685
    140          1           0       27.863023   -3.099545    6.052200
    141          1           0       27.873221   -4.938093    6.140952
    142          1           0       25.456248   -5.702191   -0.598806
    143          1           0       26.060551   -4.411011   -3.186991
    144          1           0       28.061585   -4.923504   -0.322173
    145          1           0       27.967808   -5.331307   -2.102202
    146          1           0       27.596245   -6.477332   -0.780832
    147          1           0       23.379484   -4.267945   -2.283712
    148          1           0       23.806079   -5.950443   -2.057674
    149          1           0       23.260834   -6.401758   -4.053113
    150          1           0       24.597912   -5.481809   -4.714750
    151          1           0       22.895970   -4.746014   -4.377966
    152          1           0       24.729117   -0.936345   -5.538171
    153          1           0       25.304483    0.652700   -5.952013
    154          1           0       23.532361    0.431575   -5.848821
    155          1           0       23.062396    4.118930   -1.671782
    156          1           0       25.502179    7.678220   -2.428745
    157          1           0       26.711360    6.611093   -1.735081
    158          1           0       25.725808    7.590285   -0.688050
 ---------------------------------------------------------------------

 SCF Done:  E(RCAM-B3LYP) =  -4069.79627083     A.U. after   18 cycles

 Excitation energies and oscillator strengths:

 Excited State   1:      Singlet-A      1.6980 eV  730.19 nm  f=0.4147  <S**2>=0.000
     309 -> 316       -0.17307
     312 -> 314        0.68837
     309 <- 316       -0.10784
 This state for optimization and/or second-order correction.
 Total Energy, E(TD-HF/TD-DFT) =  -4069.73387116
 Copying the excited state density for this state as the 1-particle RhoCI density.

 Excited State   2:      Singlet-A      1.7292 eV  716.99 nm  f=0.3997  <S**2>=0.000
     310 -> 315        0.18717
     311 -> 313        0.68373
     310 <- 315        0.10975

 Excited State   3:      Singlet-A      2.2139 eV  560.03 nm  f=0.1002  <S**2>=0.000
     310 -> 313        0.64250
     311 -> 315       -0.28231

 Excited State   4:      Singlet-A      2.2865 eV  542.24 nm  f=0.0918  <S**2>=0.000
     309 -> 314        0.63011
     312 -> 316        0.31285

 Excited State   5:      Singlet-A      3.1541 eV  393.09 nm  f=0.0000  <S**2>=0.000
     312 -> 313        0.70710

 The electronic state is 1-A.
 Alpha  occ. eigenvalues --  -46.88805 -46.88377 -19.26696 -19.26273 -19.20849
 Alpha  occ. eigenvalues --  -19.19923 -19.19658 -19.19427 -19.18636 -19.18544
 Alpha  occ. eigenvalues --  -14.42562 -14.41796 -14.41646 -14.41611 -14.39680
 Alpha  occ. eigenvalues --  -14.39364 -14.39328 -14.38752 -10.40832 -10.39167
 Alpha  occ. eigenvalues --  -10.36501 -10.35478 -10.34923 -10.34508 -10.32070
 Alpha  occ. eigenvalues --  -10.31741 -10.31588 -10.31278 -10.31085 -10.30956
 Alpha  occ. eigenvalues --  -10.30803 -10.30654 -10.30645 -10.30331 -10.30117
 Alpha  occ. eigenvalues --  -10.29950 -10.29778 -10.29751 -10.29574 -10.29499
 Alpha  occ. eigenvalues --  -10.29496 -10.29396 -10.29271 -10.29132 -10.28999
 Alpha  occ. eigenvalues --  -10.28990 -10.28860 -10.28558 -10.28389 -10.28295
 Alpha  occ. eigenvalues --  -10.28234 -10.28220 -10.28065 -10.28043 -10.27713
 Alpha  occ. eigenvalues --  -10.27576 -10.27462 -10.27359 -10.27286 -10.27218
 Alpha  occ. eigenvalues --  -10.27160 -10.27136 -10.27075 -10.27026 -10.26940
 Alpha  occ. eigenvalues --  -10.26707 -10.26702 -10.26618 -10.26503 -10.26503
 Alpha  occ. eigenvalues --  -10.26354 -10.26318 -10.26144 -10.26138 -10.25960
 Alpha  occ. eigenvalues --  -10.25918 -10.25916 -10.25809 -10.25717 -10.25528
 Alpha  occ. eigenvalues --  -10.25494 -10.25424 -10.25400 -10.25222 -10.25214
 Alpha  occ. eigenvalues --  -10.25089  -3.17261  -3.17029  -1.92170  -1.91910
 Alpha  occ. eigenvalues --   -1.91752  -1.91522  -1.91468  -1.91357  -1.18349
 Alpha  occ. eigenvalues --   -1.16340  -1.11379  -1.10107  -1.09626  -1.09038
 Alpha  occ. eigenvalues --   -1.08686  -1.07956  -1.05031  -1.03916  -1.03790
 Alpha  occ. eigenvalues --   -1.03293  -1.02640  -1.02615  -1.01880  -1.01876
 Alpha  occ. eigenvalues --   -0.93367  -0.92630  -0.89113  -0.88742  -0.88734
 Alpha  occ. eigenvalues --   -0.88630  -0.88037  -0.88030  -0.87326  -0.87226
 Alpha  occ. eigenvalues --   -0.87112  -0.86250  -0.86118  -0.85548  -0.84457
 Alpha  occ. eigenvalues --   -0.84284  -0.83743  -0.83659  -0.82716  -0.82632
 Alpha  occ. eigenvalues --   -0.81933  -0.81426  -0.81202  -0.80799  -0.80229
 Alpha  occ. eigenvalues --   -0.80038  -0.78429  -0.77923  -0.77606  -0.77356
 Alpha  occ. eigenvalues --   -0.77021  -0.76927  -0.76323  -0.76221  -0.75130
 Alpha  occ. eigenvalues --   -0.74703  -0.72691  -0.72446  -0.71723  -0.70968
 Alpha  occ. eigenvalues --   -0.69542  -0.68998  -0.68908  -0.68402  -0.68057
 Alpha  occ. eigenvalues --   -0.67910  -0.66715  -0.66115  -0.65337  -0.65282
 Alpha  occ. eigenvalues --   -0.64989  -0.64982  -0.64894  -0.64663  -0.64354
 Alpha  occ. eigenvalues --   -0.64351  -0.62823  -0.62591  -0.60287  -0.59866
 Alpha  occ. eigenvalues --   -0.59771  -0.59671  -0.59220  -0.58916  -0.58522
 Alpha  occ. eigenvalues --   -0.58476  -0.58331  -0.58116  -0.57324  -0.57317
 Alpha  occ. eigenvalues --   -0.56880  -0.56255  -0.56019  -0.55427  -0.55115
 Alpha  occ. eigenvalues --   -0.54975  -0.54922  -0.54806  -0.54690  -0.53769
 Alpha  occ. eigenvalues --   -0.53607  -0.53513  -0.53271  -0.53132  -0.52952
 Alpha  occ. eigenvalues --   -0.52599  -0.52535  -0.52456  -0.52038  -0.51830
 Alpha  occ. eigenvalues --   -0.51713  -0.51616  -0.51485  -0.51357  -0.51272
 Alpha  occ. eigenvalues --   -0.51251  -0.51132  -0.51058  -0.50824  -0.50247
 Alpha  occ. eigenvalues --   -0.50146  -0.49695  -0.49606  -0.49417  -0.49371
 Alpha  occ. eigenvalues --   -0.49213  -0.49155  -0.48858  -0.48789  -0.48683
 Alpha  occ. eigenvalues --   -0.48623  -0.48383  -0.48319  -0.48144  -0.48129
 Alpha  occ. eigenvalues --   -0.47977  -0.47952  -0.47316  -0.47235  -0.47021
 Alpha  occ. eigenvalues --   -0.46909  -0.46753  -0.46482  -0.46419  -0.46030
 Alpha  occ. eigenvalues --   -0.46019  -0.45945  -0.45915  -0.45879  -0.45673
 Alpha  occ. eigenvalues --   -0.45669  -0.45604  -0.45369  -0.45366  -0.45018
 Alpha  occ. eigenvalues --   -0.44836  -0.44568  -0.44465  -0.44326  -0.44139
 Alpha  occ. eigenvalues --   -0.44031  -0.43813  -0.43766  -0.43611  -0.43344
 Alpha  occ. eigenvalues --   -0.43269  -0.43197  -0.43076  -0.42995  -0.42959
 Alpha  occ. eigenvalues --   -0.42848  -0.42726  -0.42666  -0.42178  -0.41766
 Alpha  occ. eigenvalues --   -0.41722  -0.41704  -0.41663  -0.41216  -0.41119
 Alpha  occ. eigenvalues --   -0.41015  -0.40783  -0.40736  -0.40557  -0.40290
 Alpha  occ. eigenvalues --   -0.40175  -0.39631  -0.39498  -0.39305  -0.39131
 Alpha  occ. eigenvalues --   -0.38404  -0.38291  -0.37808  -0.37425  -0.37412
 Alpha  occ. eigenvalues --   -0.37168  -0.37118  -0.36730  -0.36415  -0.36406
 Alpha  occ. eigenvalues --   -0.36228  -0.36105  -0.35151  -0.34434  -0.34411
 Alpha  occ. eigenvalues --   -0.34072  -0.33164  -0.32883  -0.31549  -0.31419
 Alpha  occ. eigenvalues --   -0.31386  -0.30790  -0.30693  -0.30391  -0.30385
 Alpha  occ. eigenvalues --   -0.29933  -0.29778  -0.28962  -0.24167  -0.23801
 Alpha  occ. eigenvalues --   -0.21082  -0.20774
 Alpha virt. eigenvalues --   -0.08495  -0.08423  -0.01528  -0.01314  -0.00040
 Alpha virt. eigenvalues --    0.00184   0.01790   0.02331   0.02807   0.02811
 Alpha virt. eigenvalues --    0.02867   0.04539   0.05057   0.05547   0.05595

 Mulliken charges:
               1
     1  Mg  12.000021
     2  C    6.000104
     3  C    5.999819
     4  C    5.999884
     5  C    6.000212
     6  N    6.999988
     7  C    5.999758
     8  C    6.000035
     9  C    5.999919
    10  C    6.000292
    11  C    5.999988
    12  C    6.000017
    13  C    6.000019
    14  H    0.999970
    15  N    6.999961
    16  C    6.000354
    17  C    6.000134
    18  C    6.000136
    19  C    6.000262
    20  C    5.999930
    21  C    6.000141
    22  O    8.000220
    23  C    5.999927
    24  N    7.000030
    25  C    6.000244
    26  C    5.999908
    27  C    6.000100
    28  C    5.999709
    29  C    5.999940
    30  C    6.000016
    31  C    6.000057
    32  N    7.000010
    33  C    5.999638
    34  C    5.999828
    35  C    5.999943
    36  C    5.999756
    37  C    6.000057
    38  C    5.999839
    39  O    7.999721
    40  C    6.000036
    41  C    5.999955
    42  O    7.999960
    43  O    7.999989
    44  C    6.000041
    45  H    1.000106
    46  H    1.000078
    47  H    0.999934
    48  H    0.999987
    49  H    1.000022
    50  H    1.000118
    51  H    0.999979
    52  H    1.000029
    53  H    0.999884
    54  H    1.000047
    55  H    0.999957
    56  H    1.000020
    57  H    1.000171
    58  H    1.000163
    59  H    1.000159
    60  H    1.000046
    61  H    1.000089
    62  H    1.000144
    63  H    1.000011
    64  H    0.999990
    65  H    1.000109
    66  H    1.000050
    67  H    0.999988
    68  H    0.999921
    69  H    0.999984
    70  H    0.999925
    71  H    0.999950
    72  H    1.000041
    73  H    0.999823
    74  H    0.999837
    75  H    0.999808
    76  H    0.999894
    77  H    0.999983
    78  H    0.999949
    79  H    0.999936
    80  Mg  11.996942
    81  C    5.971178
    82  C    6.021950
    83  C    6.019057
    84  C    5.975056
    85  N    6.993353
    86  C    6.040857
    87  C    5.989329
    88  C    6.013627
    89  C    5.965495
    90  C    6.000799
    91  C    5.995223
    92  C    5.996952
    93  H    1.010591
    94  N    7.007962
    95  C    5.954825
    96  C    5.976191
    97  C    5.988030
    98  C    5.956041
    99  C    6.008393
   100  C    5.987001
   101  O    7.976166
   102  C    6.002319
   103  N    6.999346
   104  C    5.968580
   105  C    6.008372
   106  C    5.990051
   107  C    6.033623
   108  C    5.998163
   109  C    5.998418
   110  C    5.997721
   111  N    6.997566
   112  C    6.048196
   113  C    6.031087
   114  C    6.002473
   115  C    6.038959
   116  C    5.995138
   117  C    6.016488
   118  O    8.029226
   119  C    6.006379
   120  C    6.005472
   121  O    8.003497
   122  O    8.002908
   123  C    5.996231
   124  H    0.991832
   125  H    0.991915
   126  H    1.009195
   127  H    1.001837
   128  H    0.994150
   129  H    0.987230
   130  H    1.006923
   131  H    0.997707
   132  H    1.011872
   133  H    0.995607
   134  H    0.996262
   135  H    1.001947
   136  H    0.975618
   137  H    0.979352
   138  H    0.979571
   139  H    0.994423
   140  H    0.994828
   141  H    0.985035
   142  H    0.999941
   143  H    0.999346
   144  H    1.005599
   145  H    0.987717
   146  H    0.998185
   147  H    0.999200
   148  H    1.012782
   149  H    1.005274
   150  H    1.001182
   151  H    0.995902
   152  H    1.020484
   153  H    1.021335
   154  H    1.020040
   155  H    1.008915
   156  H    1.003032
   157  H    1.003437
   158  H    1.007095
 Sum of Mulliken charges = 624.00000

 Dipole moment (field-independent basis, Debye):
    X=             -2.3583    Y=              4.8933    Z=             -9.9642  Tot=             11.3486
 Quadrupole moment (field-independent basis, Debye-Ang):
   XX=           -110.6740   YY=             -1.8343   ZZ=             -5.4547
   XY=            127.2967   XZ=           -253.9470   YZ=              7.9412

 Normal termination of Gaussian 16 at Thu Sep 23 14:48:21 2021.
