 Gaussian 16, Revision A.03,
 Gaussian 16:  ES64L-G16RevA.03 25-Dec-2016

 -----------------------------------
 #p cam-b3lyp/Def2SVP td=(nstates=5)
 -----------------------------------

 --------------------------------
 TDDFT excited states in gaussian
 --------------------------------
 Symbolic Z-matrix:
 Charge =  0 Multiplicity = 1

                         Standard orientation:
 ---------------------------------------------------------------------
 Center     Atomic      Atomic             Coordinates (Angstroms)
 Number     Number       Type             X           Y           Z
 ---------------------------------------------------------------------
      1         12           0       28.827103    0.605845   -0.312553
      2          6           0       28.146325   -2.775444   -0.061596
      3          6           0       25.942467    1.249127    1.651597
      4          6           0       29.733149    3.897562   -0.019553
      5          6           0       31.870752   -0.056377   -1.804756
      6          7           0       27.188472   -0.648149    0.546931
      7          6           0       27.192291   -2.026116    0.601316
      8          6           0       26.080460   -2.631321    1.537905
      9          6           0       25.143837   -1.350473    1.753139
     10          6           0       26.090461   -0.120232    1.260094
     11          6           0       23.724536   -1.309440    1.068813
     12          6           0       26.571480   -3.196012    2.824347
     13          6           0       26.370710   -4.662406    3.155351
     14          1           0       26.261665   -5.007869    4.649179
     15          7           0       27.898056    2.365853    0.609587
     16          6           0       26.680028    2.365505    1.315129
     17          6           0       26.337244    3.703262    1.680021
     18          6           0       27.540622    4.502098    1.328647
     19          6           0       28.492420    3.599762    0.609588
     20          6           0       25.110545    4.078331    2.518030
     21          6           0       27.637752    5.997324    1.678427
     22          8           0       26.808459    6.676213    2.277183
     23          6           0       28.980626    6.628988    1.573577
     24          7           0       30.709122    1.789250   -0.696457
     25          6           0       30.703579    3.128340   -0.646964
     26          6           0       32.151183    3.575897   -0.844146
     27          6           0       32.895167    2.332837   -1.522897
     28          6           0       31.743180    1.242027   -1.371380
     29          6           0       32.196701    4.790245   -1.837955
     30          6           0       34.275568    1.824293   -0.936030
     31          6           0       35.552340    1.935218   -1.755887
     32          7           0       29.820224   -1.096364   -0.924025
     33          6           0       31.058037   -1.225240   -1.561745
     34          6           0       31.369053   -2.609636   -1.747320
     35          6           0       30.257588   -3.298620   -1.170678
     36          6           0       29.328497   -2.276639   -0.731355
     37          6           0       32.585911   -3.216712   -2.371374
     38          6           0       29.656356   -4.543144   -0.919917
     39          8           0       30.084831   -5.648048   -1.186747
     40          6           0       28.318705   -4.275074   -0.127241
     41          6           0       27.254139   -5.107385   -0.709150
     42          8           0       26.825772   -6.123439   -0.173647
     43          8           0       26.852275   -4.585239   -1.929546
     44          6           0       25.810821   -5.401054   -2.593502
     45          1           0       25.062319    1.572615    2.210422
     46          1           0       29.901477    4.975052    0.043227
     47          1           0       32.854613   -0.247111   -2.238165
     48          1           0       25.528364   -3.397588    0.994840
     49          1           0       25.052030   -1.214717    2.831347
     50          1           0       23.509988   -2.319214    0.719060
     51          1           0       23.637354   -0.600375    0.245465
     52          1           0       23.018136   -0.972912    1.826742
     53          1           0       26.027606   -2.675385    3.613981
     54          1           0       27.648058   -3.050674    2.906848
     55          1           0       27.257338   -5.200369    2.821078
     56          1           0       25.461208   -5.081606    2.725632
     57          1           0       24.449830    3.315844    2.929942
     58          1           0       24.595844    4.778498    1.860504
     59          1           0       25.519758    4.763948    3.259351
     60          1           0       29.288470    7.089342    0.635724
     61          1           0       29.772485    5.978298    1.944913
     62          1           0       28.958969    7.486515    2.247123
     63          1           0       32.639653    3.854107    0.089993
     64          1           0       32.972717    2.484113   -2.598991
     65          1           0       32.804542    5.560484   -1.363254
     66          1           0       31.227485    5.202705   -2.121136
     67          1           0       32.641852    4.540846   -2.801424
     68          1           0       34.085290    0.778836   -0.694312
     69          1           0       34.454098    2.446833   -0.058192
     70          1           0       36.213628    1.168187   -1.352032
     71          1           0       36.013312    2.903749   -1.560861
     72          1           0       35.526493    1.766372   -2.831902
     73          1           0       32.437126   -4.295824   -2.324827
     74          1           0       33.448451   -2.857296   -1.810993
     75          1           0       32.742206   -2.969632   -3.421588
     76          1           0       28.530243   -4.667834    0.867863
     77          1           0       26.274577   -6.151621   -3.233476
     78          1           0       25.153328   -4.691476   -3.095753
     79          1           0       25.164695   -5.899488   -1.871438
     80         12           0      -29.434065   -0.116338   -0.669900
     81          6           0      -26.207780    0.551429    0.697896
     82          6           0      -29.232454   -3.069984    0.829207
     83          6           0      -32.777830   -0.456275   -1.023705
     84          6           0      -29.628060    3.393606   -1.255433
     85          7           0      -27.904995   -1.145607    0.467728
     86          6           0      -26.608992   -0.739753    0.853312
     87          6           0      -25.835651   -1.834886    1.653299
     88          6           0      -26.852449   -3.010751    1.615027
     89          6           0      -28.053009   -2.421109    0.845002
     90          6           0      -26.139876   -4.216125    0.979395
     91          6           0      -25.379666   -1.482370    3.134735
     92          6           0      -23.879030   -1.396828    3.388305
     93          1           0      -23.294022   -2.294394    4.497813
     94          7           0      -30.793938   -1.551886   -0.274749
     95          6           0      -30.491629   -2.744247    0.382628
     96          6           0      -31.608705   -3.599643    0.391925
     97          6           0      -32.642661   -2.961244   -0.267762
     98          6           0      -32.148908   -1.628138   -0.547773
     99          6           0      -31.732945   -5.053272    0.982188
    100          6           0      -33.979311   -3.614245   -0.530910
    101          8           0      -34.223194   -4.761834   -0.303498
    102          6           0      -35.058897   -2.696254   -1.289509
    103          7           0      -31.007522    1.270973   -1.010075
    104          6           0      -32.302512    0.853062   -1.152951
    105          6           0      -33.192959    2.153896   -1.302082
    106          6           0      -32.239415    3.343292   -1.504353
    107          6           0      -30.853618    2.646373   -1.224234
    108          6           0      -34.320892    2.039053   -2.287761
    109          6           0      -32.501742    4.392783   -0.431411
    110          6           0      -32.080438    5.806953   -0.730755
    111          7           0      -28.100271    1.608834   -0.586410
    112          6           0      -28.323107    2.933005   -0.879883
    113          6           0      -27.129119    3.679612   -0.715340
    114          6           0      -26.176794    2.799220   -0.149473
    115          6           0      -26.891205    1.578243    0.009298
    116          6           0      -26.939198    5.129444   -0.917015
    117          6           0      -24.829065    2.584139    0.394380
    118          8           0      -23.876543    3.374592    0.431903
    119          6           0      -24.764946    1.109970    0.950585
    120          6           0      -23.884395    0.330941    0.121483
    121          8           0      -24.239932   -0.056377   -1.016740
    122          8           0      -22.719716    0.199010    0.786279
    123          6           0      -21.690537   -0.729134    0.242810
    124          1           0      -29.186132   -4.065034    1.277403
    125          1           0      -33.844185   -0.623156   -1.190209
    126          1           0      -29.591503    4.449243   -1.531289
    127          1           0      -24.936762   -2.121980    1.107790
    128          1           0      -27.225071   -3.296282    2.598290
    129          1           0      -26.901721   -4.975824    0.807014
    130          1           0      -25.343878   -4.666335    1.572371
    131          1           0      -25.682783   -3.969796    0.020359
    132          1           0      -25.681572   -2.355619    3.713037
    133          1           0      -25.899973   -0.590589    3.484344
    134          1           0      -23.646927   -0.353153    3.603123
    135          1           0      -23.346590   -1.692524    2.483642
    136          1           0      -32.596304   -5.025770    1.647298
    137          1           0      -30.848092   -5.340139    1.550169
    138          1           0      -31.784346   -5.860670    0.251776
    139          1           0      -35.903782   -3.351617   -1.498979
    140          1           0      -34.512820   -2.356724   -2.169955
    141          1           0      -35.242165   -1.913268   -0.553741
    142          1           0      -33.666157    2.241407   -0.323424
    143          1           0      -32.268466    3.838208   -2.475033
    144          1           0      -34.517703    3.029058   -2.698265
    145          1           0      -35.171071    1.655637   -1.723239
    146          1           0      -34.170310    1.285495   -3.059911
    147          1           0      -32.071629    4.132500    0.536162
    148          1           0      -33.553882    4.439362   -0.150538
    149          1           0      -31.806068    5.956349   -1.774867
    150          1           0      -31.217044    6.035060   -0.105428
    151          1           0      -32.820422    6.516520   -0.360695
    152          1           0      -27.621581    5.524549   -1.670242
    153          1           0      -25.904911    5.244192   -1.242245
    154          1           0      -27.173616    5.587415    0.044201
    155          1           0      -24.551863    1.032777    2.016775
    156          1           0      -20.783959   -0.201653    0.542990
    157          1           0      -21.771064   -0.902465   -0.829900
    158          1           0      -21.621318   -1.641091    0.836765
 ---------------------------------------------------------------------

 SCF Done:  E(RCAM-B3LYP) =  -4069.79583811     A.U. after   18 cycles

 Excitation energies and oscillator strengths:

 Excited State   1:      Singlet-A      1.7132 eV  723.71 nm  f=0.3760  <S**2>=0.000
     309 -> 315        0.17417
     311 -> 313        0.68615
     309 <- 315        0.10488
 This state for optimization and/or second-order correction.
 Total Energy, E(TD-HF/TD-DFT) =  -4069.73288038
 Copying the excited state density for this state as the 1-particle RhoCI density.

 Excited State   2:      Singlet-A      1.7225 eV  719.78 nm  f=0.3913  <S**2>=0.000
     310 -> 316        0.17104
     312 -> 314        0.68726
     310 <- 316        0.10383

 Excited State   3:      Singlet-A      2.1719 eV  570.86 nm  f=0.1595  <S**2>=0.000
     309 -> 313        0.65197
     311 -> 315       -0.25356

 Excited State   4:      Singlet-A      2.2584 eV  549.00 nm  f=0.1173  <S**2>=0.000
     310 -> 314        0.63725
     312 -> 316       -0.28974

 Excited State   5:      Singlet-A      2.9707 eV  417.36 nm  f=0.0000  <S**2>=0.000
     312 -> 313        0.70711

 The electronic state is 1-A.
 Alpha  occ. eigenvalues --  -46.90506 -46.88518 -19.26516 -19.25148 -19.19853
 Alpha  occ. eigenvalues --  -19.19671 -19.19648 -19.19133 -19.18742 -19.18325
 Alpha  occ. eigenvalues --  -14.43511 -14.42541 -14.42189 -14.42016 -14.40072
 Alpha  occ. eigenvalues --  -14.39897 -14.39513 -14.38476 -10.39515 -10.39151
 Alpha  occ. eigenvalues --  -10.35485 -10.35398 -10.35297 -10.34214 -10.33132
 Alpha  occ. eigenvalues --  -10.32850 -10.32097 -10.31707 -10.31695 -10.31644
 Alpha  occ. eigenvalues --  -10.31538 -10.31502 -10.30997 -10.30849 -10.30608
 Alpha  occ. eigenvalues --  -10.30484 -10.30442 -10.30150 -10.29856 -10.29624
 Alpha  occ. eigenvalues --  -10.29447 -10.29116 -10.29017 -10.28733 -10.28695
 Alpha  occ. eigenvalues --  -10.28694 -10.28540 -10.28460 -10.28346 -10.28314
 Alpha  occ. eigenvalues --  -10.28289 -10.28287 -10.28220 -10.28220 -10.28145
 Alpha  occ. eigenvalues --  -10.28031 -10.27963 -10.27920 -10.27785 -10.27627
 Alpha  occ. eigenvalues --  -10.27485 -10.27358 -10.27320 -10.27192 -10.27116
 Alpha  occ. eigenvalues --  -10.27096 -10.27051 -10.27009 -10.26929 -10.26854
 Alpha  occ. eigenvalues --  -10.26845 -10.26449 -10.26366 -10.26271 -10.26264
 Alpha  occ. eigenvalues --  -10.26199 -10.26074 -10.26007 -10.25920 -10.25851
 Alpha  occ. eigenvalues --  -10.25762 -10.25444 -10.25436 -10.25174 -10.24933
 Alpha  occ. eigenvalues --  -10.24843  -3.18717  -3.17116  -1.93645  -1.93148
 Alpha  occ. eigenvalues --   -1.93019  -1.91993  -1.91552  -1.91443  -1.16652
 Alpha  occ. eigenvalues --   -1.15561  -1.11988  -1.10081  -1.09793  -1.08673
 Alpha  occ. eigenvalues --   -1.07505  -1.07405  -1.04843  -1.04125  -1.04080
 Alpha  occ. eigenvalues --   -1.03188  -1.02843  -1.02594  -1.01761  -1.01753
 Alpha  occ. eigenvalues --   -0.92611  -0.92220  -0.89674  -0.89526  -0.89404
 Alpha  occ. eigenvalues --   -0.89355  -0.88718  -0.88216  -0.87718  -0.87340
 Alpha  occ. eigenvalues --   -0.87198  -0.86652  -0.86514  -0.85841  -0.84824
 Alpha  occ. eigenvalues --   -0.84540  -0.84246  -0.83866  -0.83304  -0.82920
 Alpha  occ. eigenvalues --   -0.82252  -0.81918  -0.81142  -0.80912  -0.80776
 Alpha  occ. eigenvalues --   -0.80320  -0.77859  -0.77736  -0.77385  -0.77211
 Alpha  occ. eigenvalues --   -0.77012  -0.76691  -0.76265  -0.76245  -0.75550
 Alpha  occ. eigenvalues --   -0.75137  -0.73527  -0.72760  -0.72308  -0.71730
 Alpha  occ. eigenvalues --   -0.69418  -0.69265  -0.69018  -0.68625  -0.68017
 Alpha  occ. eigenvalues --   -0.67763  -0.67250  -0.67157  -0.65706  -0.65657
 Alpha  occ. eigenvalues --   -0.65610  -0.65497  -0.65273  -0.65005  -0.64834
 Alpha  occ. eigenvalues --   -0.64568  -0.63032  -0.62247  -0.60275  -0.60154
 Alpha  occ. eigenvalues --   -0.59774  -0.59641  -0.59483  -0.59439  -0.59091
 Alpha  occ. eigenvalues --   -0.58527  -0.58220  -0.57816  -0.57153  -0.57011
 Alpha  occ. eigenvalues --   -0.56576  -0.56418  -0.56052  -0.55999  -0.55471
 Alpha  occ. eigenvalues --   -0.54982  -0.54834  -0.54699  -0.54286  -0.53870
 Alpha  occ. eigenvalues --   -0.53822  -0.53546  -0.53259  -0.53175  -0.52883
 Alpha  occ. eigenvalues --   -0.52850  -0.52806  -0.52507  -0.52484  -0.52412
 Alpha  occ. eigenvalues --   -0.52118  -0.51868  -0.51689  -0.51485  -0.51350
 Alpha  occ. eigenvalues --   -0.51243  -0.50957  -0.50585  -0.50400  -0.50356
 Alpha  occ. eigenvalues --   -0.50233  -0.50164  -0.49972  -0.49872  -0.49735
 Alpha  occ. eigenvalues --   -0.49518  -0.49182  -0.49166  -0.48929  -0.48894
 Alpha  occ. eigenvalues --   -0.48669  -0.48435  -0.48333  -0.48265  -0.48068
 Alpha  occ. eigenvalues --   -0.47972  -0.47819  -0.47526  -0.47490  -0.47195
 Alpha  occ. eigenvalues --   -0.47034  -0.46965  -0.46729  -0.46606  -0.46426
 Alpha  occ. eigenvalues --   -0.46302  -0.46150  -0.46095  -0.46013  -0.45858
 Alpha  occ. eigenvalues --   -0.45709  -0.45620  -0.45332  -0.45313  -0.45210
 Alpha  occ. eigenvalues --   -0.45159  -0.44930  -0.44740  -0.44695  -0.44545
 Alpha  occ. eigenvalues --   -0.44324  -0.44141  -0.44131  -0.43748  -0.43720
 Alpha  occ. eigenvalues --   -0.43656  -0.43473  -0.43294  -0.43090  -0.43001
 Alpha  occ. eigenvalues --   -0.42804  -0.42779  -0.42567  -0.42448  -0.42313
 Alpha  occ. eigenvalues --   -0.42251  -0.41942  -0.41666  -0.41646  -0.41616
 Alpha  occ. eigenvalues --   -0.41522  -0.41296  -0.40593  -0.40507  -0.40220
 Alpha  occ. eigenvalues --   -0.40119  -0.39989  -0.39733  -0.39487  -0.39165
 Alpha  occ. eigenvalues --   -0.38393  -0.38370  -0.38231  -0.37837  -0.37613
 Alpha  occ. eigenvalues --   -0.37432  -0.37236  -0.37224  -0.36806  -0.36710
 Alpha  occ. eigenvalues --   -0.36007  -0.35917  -0.34511  -0.34346  -0.34338
 Alpha  occ. eigenvalues --   -0.34173  -0.33354  -0.32939  -0.31797  -0.31783
 Alpha  occ. eigenvalues --   -0.31243  -0.30900  -0.30764  -0.30560  -0.30549
 Alpha  occ. eigenvalues --   -0.30211  -0.29602  -0.28936  -0.24635  -0.24278
 Alpha  occ. eigenvalues --   -0.22175  -0.21259
 Alpha virt. eigenvalues --   -0.09747  -0.08760  -0.02358  -0.01706   0.00001
 Alpha virt. eigenvalues --    0.00561   0.02175   0.02195   0.02317   0.02730
 Alpha virt. eigenvalues --    0.04488   0.04548   0.04742   0.05248   0.05631

 Mulliken charges:
               1
     1  Mg   0.796933
     2  C    0.074199
     3  C   -0.043125
     4  C   -0.054821
     5  C   -0.052398
     6  N   -0.300180
     7  C   -0.060061
     8  C   -0.022700
     9  C   -0.080314
    10  C    0.066989
    11  C    0.078393
    12  C    0.079043
    13  C   -0.093755
    14  H    0.008072
    15  N   -0.374603
    16  C    0.119176
    17  C   -0.139289
    18  C   -0.092376
    19  C    0.150516
    20  C    0.136719
    21  C    0.043173
    22  O   -0.209319
    23  C    0.005521
    24  N   -0.267852
    25  C    0.091582
    26  C   -0.078113
    27  C   -0.006924
    28  C   -0.004263
    29  C    0.049033
    30  C    0.036116
    31  C    0.003122
    32  N   -0.332666
    33  C    0.107748
    34  C   -0.158951
    35  C    0.031416
    36  C    0.039517
    37  C    0.122500
    38  C   -0.007871
    39  O   -0.164712
    40  C    0.009171
    41  C    0.181788
    42  O   -0.214869
    43  O   -0.355671
    44  C    0.174532
    45  H   -0.038476
    46  H   -0.042457
    47  H   -0.028615
    48  H    0.009890
    49  H    0.015624
    50  H    0.021439
    51  H    0.026854
    52  H    0.021368
    53  H    0.016744
    54  H    0.018217
    55  H    0.047015
    56  H    0.036468
    57  H    0.034175
    58  H    0.033184
    59  H    0.040590
    60  H    0.045904
    61  H    0.034655
    62  H    0.021640
    63  H    0.028686
    64  H    0.005438
    65  H    0.013842
    66  H    0.019609
    67  H    0.009811
    68  H    0.018858
    69  H    0.003655
    70  H    0.014576
    71  H    0.015974
    72  H    0.017381
    73  H    0.038995
    74  H    0.023824
    75  H    0.024089
    76  H    0.036627
    77  H    0.051289
    78  H    0.034195
    79  H    0.038511
    80  Mg   0.849655
    81  C   -0.035889
    82  C   -0.127564
    83  C   -0.088486
    84  C   -0.059159
    85  N   -0.306903
    86  C   -0.024918
    87  C   -0.013006
    88  C   -0.067181
    89  C    0.093607
    90  C    0.060694
    91  C    0.056380
    92  C   -0.082556
    93  H    0.016219
    94  N   -0.421945
    95  C    0.201584
    96  C   -0.158736
    97  C   -0.012277
    98  C    0.124729
    99  C    0.150603
   100  C   -0.040004
   101  O   -0.163478
   102  C    0.032939
   103  N   -0.321063
   104  C    0.081247
   105  C   -0.032051
   106  C   -0.024569
   107  C    0.083667
   108  C    0.078940
   109  C   -0.005222
   110  C    0.032836
   111  N   -0.303155
   112  C    0.079963
   113  C   -0.204852
   114  C    0.040306
   115  C    0.083711
   116  C    0.124726
   117  C    0.054359
   118  O   -0.186651
   119  C   -0.001690
   120  C    0.227723
   121  O   -0.252771
   122  O   -0.319993
   123  C    0.163774
   124  H   -0.039025
   125  H   -0.061723
   126  H   -0.037182
   127  H    0.007694
   128  H    0.019304
   129  H    0.005382
   130  H    0.019885
   131  H    0.021152
   132  H    0.017040
   133  H    0.023299
   134  H    0.047050
   135  H    0.015740
   136  H    0.039282
   137  H   -0.011725
   138  H    0.038977
   139  H    0.030965
   140  H    0.046617
   141  H    0.048734
   142  H    0.020554
   143  H    0.012700
   144  H    0.018354
   145  H    0.010023
   146  H    0.016840
   147  H    0.005625
   148  H   -0.002421
   149  H    0.015932
   150  H    0.008831
   151  H    0.008740
   152  H    0.009170
   153  H    0.043178
   154  H    0.037472
   155  H    0.028173
   156  H    0.043861
   157  H    0.067957
   158  H    0.040001
 Sum of Mulliken charges =  -0.00000

 Dipole moment (field-independent basis, Debye):
    X=             -0.8900    Y=              2.9439    Z=             -0.8867  Tot=              3.2007
 Quadrupole moment (field-independent basis, Debye-Ang):
   XX=           -379.9206   YY=           -574.3788   ZZ=           -508.1213
   XY=            114.9596   XZ=            -58.0789   YZ=            -16.7544

 Normal termination of Gaussian 16 at Thu Sep 16 03:47:52 2021.
