 Gaussian 16, Revision A.03,
 Gaussian 16:  ES64L-G16RevA.03 25-Dec-2016

 -----------------------------------
 #p cam-b3lyp/Def2SVP td=(nstates=5)
 -----------------------------------

 --------------------------------
 TDDFT excited states in gaussian
 --------------------------------
 Symbolic Z-matrix:
 Charge =  0 Multiplicity = 1

                         Standard orientation:
 ---------------------------------------------------------------------
 Center     Atomic      Atomic             Coordinates (Angstroms)
 Number     Number       Type             X           Y           Z
 ---------------------------------------------------------------------
      1         12           0      -29.201438    0.367304   -0.643995
      2          6           0      -29.051434   -2.271423    1.632569
      3          6           0      -28.155644    2.468035    1.716115
      4          6           0      -30.632920    2.899366   -2.439718
      5          6           0      -30.341804   -1.862013   -3.065974
      6          7           0      -28.498661    0.087952    1.420101
      7          6           0      -28.516941   -1.051268    2.101301
      8          6           0      -27.815098   -0.826910    3.489403
      9          6           0      -27.646712    0.711002    3.523973
     10          6           0      -28.147109    1.147762    2.150388
     11          6           0      -28.579374    1.447580    4.608467
     12          6           0      -26.420221   -1.579730    3.676245
     13          6           0      -26.275189   -2.173389    5.035451
     14          1           0      -25.023791   -1.883903    5.849970
     15          7           0      -29.340099    2.400587   -0.391562
     16          6           0      -28.814459    3.102797    0.660484
     17          6           0      -28.822898    4.532414    0.320390
     18          6           0      -29.550811    4.644262   -0.897046
     19          6           0      -29.914720    3.264048   -1.258129
     20          6           0      -28.239743    5.637017    1.258377
     21          6           0      -29.966164    5.933096   -1.668533
     22          8           0      -30.593892    5.932793   -2.721533
     23          6           0      -29.553785    7.241449   -1.107811
     24          7           0      -30.318062    0.509525   -2.410957
     25          6           0      -30.884581    1.661471   -2.964855
     26          6           0      -31.821901    1.266936   -4.136048
     27          6           0      -31.189406   -0.099973   -4.650188
     28          6           0      -30.569389   -0.484196   -3.276847
     29          6           0      -33.311994    1.221334   -3.734938
     30          6           0      -30.136927   -0.011322   -5.718560
     31          6           0      -28.726685    0.376680   -5.386464
     32          7           0      -29.442767   -1.674399   -0.841089
     33          6           0      -29.948594   -2.452007   -1.857017
     34          6           0      -29.975010   -3.872249   -1.499857
     35          6           0      -29.717153   -3.859378   -0.055477
     36          6           0      -29.413165   -2.479314    0.265927
     37          6           0      -30.425925   -4.960364   -2.332158
     38          6           0      -29.647458   -4.665439    1.157256
     39          8           0      -29.888255   -5.793325    1.375254
     40          6           0      -29.124931   -3.649926    2.301734
     41          6           0      -29.913120   -3.702328    3.586090
     42          8           0      -30.873561   -2.987721    3.857320
     43          8           0      -29.308139   -4.623683    4.440345
     44          6           0      -29.904492   -4.809899    5.775557
     45          1           0      -27.666067    3.261214    2.285640
     46          1           0      -31.078394    3.755534   -2.951324
     47          1           0      -30.612933   -2.514523   -3.898106
     48          1           0      -28.464212   -1.088930    4.325298
     49          1           0      -26.646393    1.082938    3.745545
     50          1           0      -27.989838    1.534193    5.521407
     51          1           0      -29.473143    0.898979    4.904526
     52          1           0      -28.807093    2.444652    4.229696
     53          1           0      -25.575596   -0.906593    3.528354
     54          1           0      -26.214684   -2.373722    2.958169
     55          1           0      -26.214092   -3.241709    4.829748
     56          1           0      -27.094263   -2.040060    5.741606
     57          1           0      -29.065782    5.943355    1.899571
     58          1           0      -27.789712    6.451062    0.689620
     59          1           0      -27.576670    5.255467    2.035544
     60          1           0      -29.594374    7.443920   -0.037665
     61          1           0      -30.138384    8.037364   -1.568517
     62          1           0      -28.599085    7.532754   -1.546681
     63          1           0      -31.637897    2.044246   -4.877134
     64          1           0      -31.946828   -0.800384   -5.001641
     65          1           0      -33.847417    0.296336   -3.949034
     66          1           0      -33.872433    2.107404   -4.033924
     67          1           0      -33.405887    1.306823   -2.652503
     68          1           0      -30.381679    0.670054   -6.532478
     69          1           0      -30.070850   -0.988641   -6.196879
     70          1           0      -28.241808   -0.593266   -5.277470
     71          1           0      -28.587093    0.905626   -4.443431
     72          1           0      -28.305875    0.945537   -6.216203
     73          1           0      -29.788844   -5.808199   -2.079701
     74          1           0      -30.241069   -4.670057   -3.366099
     75          1           0      -31.466455   -5.196817   -2.111898
     76          1           0      -28.103379   -3.944221    2.542447
     77          1           0      -30.963350   -5.020191    5.622499
     78          1           0      -29.836358   -3.894041    6.362048
     79          1           0      -29.508839   -5.578418    6.439794
     80         12           0       29.915999   -0.633127    0.286272
     81          6           0       28.162052    2.496739    0.243639
     82          6           0       27.152513   -1.886959   -1.598118
     83          6           0       31.704069   -3.297654   -0.709701
     84          6           0       32.683568    1.014956    1.435486
     85          7           0       27.955149    0.246146   -0.574208
     86          6           0       27.450779    1.507224   -0.444698
     87          6           0       26.056851    1.654185   -1.148900
     88          6           0       25.650503    0.115561   -1.344636
     89          6           0       27.020133   -0.536323   -1.240895
     90          6           0       24.721973   -0.433060   -0.285624
     91          6           0       26.088021    2.559675   -2.369041
     92          6           0       24.934010    3.582874   -2.531349
     93          1           0       23.715677    3.296313   -3.527042
     94          7           0       29.463843   -2.466107   -0.930974
     95          6           0       28.224921   -2.792495   -1.520966
     96          6           0       28.328856   -4.126146   -2.125679
     97          6           0       29.675564   -4.569372   -1.819606
     98          6           0       30.359333   -3.441957   -1.223347
     99          6           0       27.292592   -4.834506   -2.914226
    100          6           0       30.212872   -5.953467   -2.084282
    101          8           0       29.434415   -6.809538   -2.439775
    102          6           0       31.661639   -6.352504   -1.923352
    103          7           0       31.873540   -0.964766    0.267694
    104          6           0       32.343390   -2.234579   -0.055729
    105          6           0       33.855552   -2.235644    0.180195
    106          6           0       34.106197   -0.951342    1.052368
    107          6           0       32.783175   -0.270348    0.950714
    108          6           0       34.521869   -3.549624    0.730897
    109          6           0       35.330237   -0.051376    0.700159
    110          6           0       36.315417    0.246758    1.782981
    111          7           0       30.355349    1.282610    0.867279
    112          6           0       31.517732    1.814857    1.397351
    113          6           0       31.278618    3.172041    1.925112
    114          6           0       29.958617    3.473348    1.409401
    115          6           0       29.493619    2.309879    0.788780
    116          6           0       32.183172    4.084479    2.710854
    117          6           0       28.919567    4.544212    1.368979
    118          8           0       28.958549    5.682353    1.740959
    119          6           0       27.798396    3.959081    0.516349
    120          6           0       26.526888    4.052594    1.305811
    121          8           0       26.417584    3.394830    2.318251
    122          8           0       25.491514    4.851068    0.733553
    123          6           0       24.155084    4.787523    1.399288
    124          1           0       26.305066   -2.323733   -2.130881
    125          1           0       32.416733   -4.092213   -0.937025
    126          1           0       33.531705    1.439916    1.975796
    127          1           0       25.290847    2.009823   -0.460396
    128          1           0       25.289889   -0.075539   -2.355279
    129          1           0       25.315599   -0.689429    0.591561
    130          1           0       24.198009   -1.280197   -0.728039
    131          1           0       23.945269    0.215677    0.120645
    132          1           0       26.021487    1.899298   -3.233115
    133          1           0       27.089724    2.982898   -2.443235
    134          1           0       25.452816    4.484596   -2.857563
    135          1           0       24.441032    3.831120   -1.591350
    136          1           0       26.806735   -5.524525   -2.225021
    137          1           0       27.779684   -5.478769   -3.646252
    138          1           0       26.527380   -4.271295   -3.449746
    139          1           0       31.909052   -7.358025   -2.263101
    140          1           0       31.857392   -6.305372   -0.852040
    141          1           0       32.440389   -5.718059   -2.344964
    142          1           0       34.232118   -2.184438   -0.841821
    143          1           0       34.110011   -1.251058    2.099920
    144          1           0       33.777182   -4.187596    1.207611
    145          1           0       35.350139   -3.307131    1.396432
    146          1           0       34.994625   -4.099838   -0.082360
    147          1           0       34.965039    0.895265    0.302046
    148          1           0       35.815780   -0.500354   -0.166209
    149          1           0       36.193628    1.282415    2.099592
    150          1           0       37.328108    0.134795    1.395891
    151          1           0       36.263314   -0.352256    2.691882
    152          1           0       31.607622    4.835594    3.251455
    153          1           0       32.858844    4.543575    1.988647
    154          1           0       32.818879    3.460718    3.339527
    155          1           0       27.812948    4.479369   -0.441470
    156          1           0       24.169279    5.418338    2.288255
    157          1           0       23.942829    3.777711    1.749827
    158          1           0       23.365132    5.086920    0.710763
 ---------------------------------------------------------------------

 SCF Done:  E(RCAM-B3LYP) =  -4069.81717957     A.U. after   17 cycles

 Excitation energies and oscillator strengths:

 Excited State   1:      Singlet-A      1.6714 eV  741.79 nm  f=0.3872  <S**2>=0.000
     309 -> 315        0.16932
     311 -> 313        0.68858
     309 <- 315        0.10659
 This state for optimization and/or second-order correction.
 Total Energy, E(TD-HF/TD-DFT) =  -4069.75575622
 Copying the excited state density for this state as the 1-particle RhoCI density.

 Excited State   2:      Singlet-A      1.6811 eV  737.52 nm  f=0.3902  <S**2>=0.000
     310 -> 316       -0.17701
     312 -> 314        0.68645
     310 <- 316       -0.10855

 Excited State   3:      Singlet-A      2.2361 eV  554.47 nm  f=0.1280  <S**2>=0.000
     309 -> 313        0.64117
     311 -> 315       -0.28144

 Excited State   4:      Singlet-A      2.2559 eV  549.59 nm  f=0.1050  <S**2>=0.000
     310 -> 314        0.63272
     312 -> 316        0.30597

 Excited State   5:      Singlet-A      3.0483 eV  406.74 nm  f=0.0000  <S**2>=0.000
     312 -> 313        0.70711

 The electronic state is 1-A.
 Alpha  occ. eigenvalues --  -46.89338 -46.87924 -19.25272 -19.25023 -19.20742
 Alpha  occ. eigenvalues --  -19.20103 -19.19740 -19.19691 -19.19187 -19.17996
 Alpha  occ. eigenvalues --  -14.42773 -14.42198 -14.41728 -14.41428 -14.39350
 Alpha  occ. eigenvalues --  -14.39288 -14.39230 -14.39171 -10.40234 -10.39695
 Alpha  occ. eigenvalues --  -10.35652 -10.35526 -10.35421 -10.34525 -10.32282
 Alpha  occ. eigenvalues --  -10.31803 -10.31399 -10.31337 -10.31309 -10.30709
 Alpha  occ. eigenvalues --  -10.30595 -10.30591 -10.30527 -10.30294 -10.30246
 Alpha  occ. eigenvalues --  -10.30007 -10.29889 -10.29754 -10.29502 -10.29480
 Alpha  occ. eigenvalues --  -10.29392 -10.29238 -10.29116 -10.28848 -10.28785
 Alpha  occ. eigenvalues --  -10.28676 -10.28668 -10.28651 -10.28569 -10.28384
 Alpha  occ. eigenvalues --  -10.28302 -10.28295 -10.28222 -10.28071 -10.28005
 Alpha  occ. eigenvalues --  -10.27913 -10.27806 -10.27671 -10.27614 -10.27564
 Alpha  occ. eigenvalues --  -10.27542 -10.27234 -10.27084 -10.27024 -10.26931
 Alpha  occ. eigenvalues --  -10.26894 -10.26708 -10.26579 -10.26537 -10.26535
 Alpha  occ. eigenvalues --  -10.26505 -10.26326 -10.26125 -10.26090 -10.26062
 Alpha  occ. eigenvalues --  -10.26057 -10.25935 -10.25905 -10.25816 -10.25746
 Alpha  occ. eigenvalues --  -10.25572 -10.25545 -10.25543 -10.25384 -10.25380
 Alpha  occ. eigenvalues --  -10.24554  -3.17907  -3.16626  -1.92755  -1.92368
 Alpha  occ. eigenvalues --   -1.92214  -1.91530  -1.91058  -1.90954  -1.15381
 Alpha  occ. eigenvalues --   -1.15158  -1.12949  -1.11740  -1.10227  -1.10164
 Alpha  occ. eigenvalues --   -1.07881  -1.07456  -1.05185  -1.04608  -1.03591
 Alpha  occ. eigenvalues --   -1.03583  -1.02874  -1.02790  -1.02141  -1.01525
 Alpha  occ. eigenvalues --   -0.92769  -0.91874  -0.89421  -0.89036  -0.88900
 Alpha  occ. eigenvalues --   -0.88637  -0.88470  -0.88024  -0.87628  -0.87187
 Alpha  occ. eigenvalues --   -0.86903  -0.86310  -0.86243  -0.85663  -0.84507
 Alpha  occ. eigenvalues --   -0.84183  -0.83973  -0.83600  -0.82545  -0.82508
 Alpha  occ. eigenvalues --   -0.81870  -0.81857  -0.81003  -0.80570  -0.80369
 Alpha  occ. eigenvalues --   -0.80218  -0.78249  -0.78178  -0.77502  -0.77275
 Alpha  occ. eigenvalues --   -0.76813  -0.76737  -0.76363  -0.75853  -0.75238
 Alpha  occ. eigenvalues --   -0.74868  -0.72660  -0.72251  -0.71795  -0.71472
 Alpha  occ. eigenvalues --   -0.69564  -0.69231  -0.68951  -0.68501  -0.67936
 Alpha  occ. eigenvalues --   -0.67756  -0.66762  -0.66726  -0.65958  -0.65711
 Alpha  occ. eigenvalues --   -0.65110  -0.64619  -0.64555  -0.64332  -0.64242
 Alpha  occ. eigenvalues --   -0.64101  -0.62339  -0.61806  -0.60152  -0.59810
 Alpha  occ. eigenvalues --   -0.59598  -0.59569  -0.59206  -0.59081  -0.58879
 Alpha  occ. eigenvalues --   -0.58342  -0.58106  -0.57770  -0.57661  -0.57236
 Alpha  occ. eigenvalues --   -0.56551  -0.55810  -0.55675  -0.55529  -0.55448
 Alpha  occ. eigenvalues --   -0.55352  -0.54841  -0.54342  -0.54102  -0.53881
 Alpha  occ. eigenvalues --   -0.53572  -0.53382  -0.53380  -0.53095  -0.52972
 Alpha  occ. eigenvalues --   -0.52969  -0.52516  -0.52256  -0.52171  -0.51849
 Alpha  occ. eigenvalues --   -0.51778  -0.51738  -0.51627  -0.51386  -0.51328
 Alpha  occ. eigenvalues --   -0.51242  -0.51115  -0.50939  -0.50449  -0.50410
 Alpha  occ. eigenvalues --   -0.50180  -0.50075  -0.49952  -0.49886  -0.49754
 Alpha  occ. eigenvalues --   -0.49621  -0.49528  -0.49317  -0.49152  -0.49125
 Alpha  occ. eigenvalues --   -0.48720  -0.48610  -0.48609  -0.48320  -0.48202
 Alpha  occ. eigenvalues --   -0.47994  -0.47804  -0.47703  -0.47099  -0.46990
 Alpha  occ. eigenvalues --   -0.46967  -0.46797  -0.46598  -0.46435  -0.46396
 Alpha  occ. eigenvalues --   -0.46283  -0.46196  -0.46101  -0.46069  -0.45987
 Alpha  occ. eigenvalues --   -0.45841  -0.45752  -0.45509  -0.45264  -0.45200
 Alpha  occ. eigenvalues --   -0.44974  -0.44954  -0.44675  -0.44639  -0.44393
 Alpha  occ. eigenvalues --   -0.44169  -0.43788  -0.43733  -0.43629  -0.43462
 Alpha  occ. eigenvalues --   -0.43329  -0.43321  -0.43254  -0.42914  -0.42806
 Alpha  occ. eigenvalues --   -0.42668  -0.42654  -0.42564  -0.42443  -0.41933
 Alpha  occ. eigenvalues --   -0.41886  -0.41578  -0.41565  -0.41533  -0.41371
 Alpha  occ. eigenvalues --   -0.41190  -0.41135  -0.40845  -0.40587  -0.40503
 Alpha  occ. eigenvalues --   -0.40278  -0.40239  -0.39302  -0.39135  -0.38667
 Alpha  occ. eigenvalues --   -0.38484  -0.38071  -0.37715  -0.37683  -0.37355
 Alpha  occ. eigenvalues --   -0.37172  -0.36982  -0.36591  -0.36536  -0.36523
 Alpha  occ. eigenvalues --   -0.35915  -0.35836  -0.35061  -0.34466  -0.34413
 Alpha  occ. eigenvalues --   -0.34288  -0.33198  -0.32812  -0.31617  -0.31412
 Alpha  occ. eigenvalues --   -0.31224  -0.31124  -0.31018  -0.30508  -0.30029
 Alpha  occ. eigenvalues --   -0.29688  -0.29561  -0.28754  -0.24322  -0.23989
 Alpha  occ. eigenvalues --   -0.21140  -0.20783
 Alpha virt. eigenvalues --   -0.09001  -0.08469  -0.01512  -0.01385   0.00397
 Alpha virt. eigenvalues --    0.00453   0.01229   0.02415   0.02621   0.02785
 Alpha virt. eigenvalues --    0.04381   0.04387   0.04560   0.05577   0.05588

 Mulliken charges:
               1
     1  Mg   0.845288
     2  C    0.027420
     3  C   -0.076831
     4  C   -0.074864
     5  C   -0.103115
     6  N   -0.243932
     7  C   -0.032158
     8  C    0.000708
     9  C   -0.076717
    10  C    0.082359
    11  C    0.038841
    12  C    0.070163
    13  C   -0.093393
    14  H    0.009696
    15  N   -0.370800
    16  C    0.094380
    17  C   -0.139768
    18  C   -0.061987
    19  C    0.101676
    20  C    0.093658
    21  C    0.039035
    22  O   -0.200708
    23  C    0.041875
    24  N   -0.293919
    25  C    0.034434
    26  C    0.001874
    27  C   -0.010282
    28  C    0.025396
    29  C    0.092681
    30  C    0.017549
    31  C    0.022128
    32  N   -0.363035
    33  C    0.153954
    34  C   -0.162536
    35  C   -0.039997
    36  C    0.088717
    37  C    0.123003
    38  C    0.056391
    39  O   -0.102369
    40  C   -0.071468
    41  C    0.218776
    42  O   -0.220139
    43  O   -0.352127
    44  C    0.187109
    45  H   -0.036735
    46  H   -0.006452
    47  H   -0.034612
    48  H    0.020344
    49  H    0.017628
    50  H    0.008619
    51  H    0.029599
    52  H    0.017106
    53  H    0.013825
    54  H    0.012994
    55  H    0.031514
    56  H    0.030125
    57  H    0.034926
    58  H    0.042250
    59  H    0.009174
    60  H    0.038126
    61  H    0.012066
    62  H    0.038780
    63  H   -0.003744
    64  H   -0.003987
    65  H    0.017243
    66  H    0.021807
    67  H    0.010552
    68  H    0.001288
    69  H   -0.002065
    70  H    0.005377
    71  H    0.031872
    72  H    0.016192
    73  H    0.033351
    74  H    0.015306
    75  H    0.051216
    76  H    0.046722
    77  H    0.036673
    78  H    0.023056
    79  H    0.042899
    80  Mg   0.850154
    81  C   -0.068704
    82  C   -0.046553
    83  C   -0.070138
    84  C   -0.117746
    85  N   -0.248495
    86  C   -0.056122
    87  C   -0.029281
    88  C   -0.067501
    89  C    0.027834
    90  C    0.088685
    91  C    0.079551
    92  C   -0.054246
    93  H    0.008668
    94  N   -0.346038
    95  C    0.095276
    96  C   -0.125942
    97  C   -0.029132
    98  C    0.139825
    99  C    0.130523
   100  C   -0.009061
   101  O   -0.204445
   102  C    0.048528
   103  N   -0.372412
   104  C    0.069215
   105  C   -0.081045
   106  C    0.022209
   107  C    0.057875
   108  C    0.063541
   109  C    0.049689
   110  C    0.008706
   111  N   -0.354569
   112  C    0.126934
   113  C   -0.180992
   114  C   -0.063992
   115  C    0.147734
   116  C    0.135423
   117  C    0.053058
   118  O   -0.136292
   119  C    0.059760
   120  C    0.212861
   121  O   -0.206831
   122  O   -0.375230
   123  C    0.175411
   124  H   -0.030907
   125  H   -0.056679
   126  H   -0.037310
   127  H    0.003949
   128  H    0.001845
   129  H    0.021996
   130  H    0.020331
   131  H    0.014371
   132  H    0.012527
   133  H    0.016707
   134  H    0.032669
   135  H    0.027181
   136  H    0.030815
   137  H    0.030821
   138  H    0.014438
   139  H    0.024100
   140  H    0.029764
   141  H    0.037085
   142  H    0.024836
   143  H    0.007140
   144  H    0.023790
   145  H    0.015806
   146  H    0.009098
   147  H    0.014433
   148  H   -0.000374
   149  H    0.015710
   150  H    0.013741
   151  H    0.015192
   152  H    0.047886
   153  H    0.030561
   154  H    0.013044
   155  H    0.042051
   156  H    0.044658
   157  H    0.034773
   158  H    0.047258
 Sum of Mulliken charges =  -0.00000

 Dipole moment (field-independent basis, Debye):
    X=              4.4461    Y=              1.4322    Z=              1.0323  Tot=              4.7838
 Quadrupole moment (field-independent basis, Debye-Ang):
   XX=           -529.1115   YY=           -564.3097   ZZ=           -495.5860
   XY=            -82.6005   XZ=              2.1477   YZ=              0.2435

 Normal termination of Gaussian 16 at Tue Sep 14 22:48:19 2021.
