 Gaussian 16, Revision A.03,
 Gaussian 16:  ES64L-G16RevA.03 25-Dec-2016

 ----------------------------------------------------------
 #p cam-b3lyp/Def2SVP td=(nstates=5) density=(transition=1)
 ----------------------------------------------------------

 --------------------------------
 TDDFT excited states in gaussian
 --------------------------------
 Symbolic Z-matrix:
 Charge =  0 Multiplicity = 1

                         Standard orientation:
 ---------------------------------------------------------------------
 Center     Atomic      Atomic             Coordinates (Angstroms)
 Number     Number       Type             X           Y           Z
 ---------------------------------------------------------------------
      1         12           0       29.702911    0.593797    0.097763
      2          6           0       26.776480   -1.364890   -1.090961
      3          6           0       31.171899   -2.431033    0.438937
      4          6           0       32.025633    2.339702    1.364414
      5          6           0       27.460019    3.348571    0.331366
      6          7           0       29.005034   -1.606835   -0.240867
      7          6           0       27.884179   -2.105945   -0.882541
      8          6           0       27.971057   -3.589741   -1.257806
      9          6           0       29.177110   -3.990368   -0.353216
     10          6           0       29.856498   -2.610715   -0.001078
     11          6           0       28.821489   -4.759835    0.879812
     12          6           0       28.111684   -3.936553   -2.777955
     13          6           0       27.532238   -5.223935   -3.261287
     14          1           0       28.337776   -5.936415   -4.343088
     15          7           0       31.446934    0.040947    0.788000
     16          6           0       31.941806   -1.279892    0.805443
     17          6           0       33.323246   -1.222078    1.187736
     18          6           0       33.594632    0.210460    1.301091
     19          6           0       32.354859    0.881600    1.144999
     20          6           0       34.297492   -2.456143    1.249184
     21          6           0       34.941665    0.817800    1.547990
     22          8           0       35.097705    2.054212    1.697457
     23          6           0       36.197180    0.025393    1.584984
     24          7           0       29.750503    2.497535    0.912343
     25          6           0       30.877595    3.038262    1.379491
     26          6           0       30.728053    4.527753    1.826838
     27          6           0       29.405081    4.877738    1.048879
     28          6           0       28.787199    3.479939    0.771552
     29          6           0       30.542096    4.665231    3.372258
     30          6           0       29.690840    5.627293   -0.319777
     31          6           0       30.559945    6.902460   -0.318815
     32          7           0       27.579511    0.967608   -0.328685
     33          6           0       26.871662    2.160414   -0.234378
     34          6           0       25.496594    1.939728   -0.616743
     35          6           0       25.427220    0.592275   -0.992989
     36          6           0       26.693110    0.002932   -0.724335
     37          6           0       24.424619    2.969926   -0.738790
     38          6           0       24.531518   -0.432278   -1.513479
     39          8           0       23.369333   -0.429829   -1.897243
     40          6           0       25.484600   -1.728671   -1.663141
     41          6           0       24.776947   -2.811744   -1.002161
     42          8           0       24.476165   -2.881291    0.199909
     43          8           0       24.115315   -3.521847   -1.962636
     44          6           0       23.281626   -4.614554   -1.576093
     45          1           0       31.631383   -3.420313    0.384093
     46          1           0       32.798287    2.978495    1.796884
     47          1           0       26.824905    4.233826    0.409946
     48          1           0       27.069505   -4.069085   -0.875723
     49          1           0       29.940234   -4.502778   -0.938283
     50          1           0       28.935017   -4.078121    1.722735
     51          1           0       29.541237   -5.564263    1.030653
     52          1           0       27.819054   -5.184112    0.932989
     53          1           0       29.178941   -4.006110   -2.986312
     54          1           0       27.729206   -3.085041   -3.340111
     55          1           0       26.567464   -4.928325   -3.673018
     56          1           0       27.200334   -5.866707   -2.445827
     57          1           0       35.025721   -2.520793    0.441268
     58          1           0       33.747565   -3.392107    1.343713
     59          1           0       34.794694   -2.284310    2.204646
     60          1           0       36.235168   -0.509250    2.534441
     61          1           0       37.005332    0.754759    1.523679
     62          1           0       36.194649   -0.598430    0.691767
     63          1           0       31.633411    5.031541    1.486601
     64          1           0       28.668905    5.456788    1.605591
     65          1           0       31.440189    5.157145    3.746653
     66          1           0       30.330329    3.742041    3.910703
     67          1           0       29.696539    5.352325    3.427508
     68          1           0       28.740063    5.965851   -0.730793
     69          1           0       30.060463    4.866345   -1.006889
     70          1           0       31.390349    6.668971   -0.984989
     71          1           0       30.922647    6.974251    0.706961
     72          1           0       30.023016    7.776651   -0.686744
     73          1           0       24.959218    3.919192   -0.697241
     74          1           0       23.786986    2.844208    0.136219
     75          1           0       23.793744    2.854020   -1.620057
     76          1           0       25.634922   -1.949984   -2.719641
     77          1           0       23.302032   -4.777651   -0.498332
     78          1           0       23.724290   -5.488779   -2.053625
     79          1           0       22.282992   -4.519819   -2.000155
     80         12           0      -29.664288   -0.126197    0.124374
     81          6           0      -26.297889   -0.460296   -0.864984
     82          6           0      -28.820678   -1.664086    2.982321
     83          6           0      -32.664516    0.689553    1.131247
     84          6           0      -30.033307    2.070706   -2.669889
     85          7           0      -27.748176   -0.919787    0.959829
     86          6           0      -26.523926   -1.038228    0.393327
     87          6           0      -25.519356   -1.767696    1.262070
     88          6           0      -26.487699   -2.363103    2.361493
     89          6           0      -27.786820   -1.617593    2.136265
     90          6           0      -26.689265   -3.933176    2.293785
     91          6           0      -24.273939   -1.021208    1.912132
     92          6           0      -24.205369    0.527190    1.988754
     93          1           0      -23.481406    1.173004    3.228742
     94          7           0      -30.635130   -0.594545    1.828353
     95          6           0      -30.115032   -1.126861    2.926149
     96          6           0      -31.144156   -1.116355    4.001304
     97          6           0      -32.367012   -0.549110    3.365687
     98          6           0      -31.899752   -0.109734    2.050565
     99          6           0      -30.965378   -1.768671    5.345706
    100          6           0      -33.703858   -0.367079    4.035573
    101          8           0      -33.849559   -0.782234    5.182625
    102          6           0      -34.942450    0.377548    3.413840
    103          7           0      -31.169716    1.330601   -0.621642
    104          6           0      -32.322863    1.264128   -0.051594
    105          6           0      -33.330101    2.152630   -0.909015
    106          6           0      -32.374136    2.747893   -1.944856
    107          6           0      -31.064312    2.012866   -1.735041
    108          6           0      -34.574393    1.491379   -1.524851
    109          6           0      -32.030828    4.306076   -1.690073
    110          6           0      -32.548699    5.303768   -2.742249
    111          7           0      -28.473486    0.724153   -1.416140
    112          6           0      -28.767999    1.476052   -2.522682
    113          6           0      -27.630515    1.468811   -3.478785
    114          6           0      -26.557259    0.812482   -2.812413
    115          6           0      -27.202301    0.295469   -1.606782
    116          6           0      -27.536741    2.224070   -4.823370
    117          6           0      -25.189174    0.415144   -2.838735
    118          8           0      -24.223320    0.677197   -3.575873
    119          6           0      -24.971260   -0.500166   -1.607091
    120          6           0      -24.507581   -1.858377   -2.141487
    121          8           0      -23.440030   -2.411483   -2.147462
    122          8           0      -25.647633   -2.578836   -2.513960
    123          6           0      -25.458474   -3.993247   -2.962862
    124          1           0      -28.515679   -2.160128    3.906308
    125          1           0      -33.672793    0.901519    1.495189
    126          1           0      -30.246199    2.525171   -3.639360
    127          1           0      -25.175892   -2.597223    0.644258
    128          1           0      -26.075348   -2.160676    3.350080
    129          1           0      -26.157033   -4.357725    1.443219
    130          1           0      -27.743027   -4.002756    2.026117
    131          1           0      -26.419220   -4.379357    3.251092
    132          1           0      -23.387898   -1.377430    1.386484
    133          1           0      -24.136471   -1.389348    2.929396
    134          1           0      -25.241476    0.865730    1.983787
    135          1           0      -23.587952    0.979459    1.213250
    136          1           0      -31.900586   -1.894463    5.890889
    137          1           0      -30.183184   -1.205721    5.856360
    138          1           0      -30.479983   -2.715707    5.107586
    139          1           0      -35.323698    0.110580    2.427482
    140          1           0      -34.671915    1.425125    3.281532
    141          1           0      -35.824411    0.306331    4.049722
    142          1           0      -33.792288    2.929147   -0.300437
    143          1           0      -32.658495    2.726921   -2.997479
    144          1           0      -34.640751    0.433831   -1.268834
    145          1           0      -34.617089    1.639348   -2.604438
    146          1           0      -35.513192    1.896144   -1.146790
    147          1           0      -30.956520    4.481701   -1.654770
    148          1           0      -32.450370    4.538369   -0.710995
    149          1           0      -31.919185    6.177822   -2.910946
    150          1           0      -33.486658    5.682509   -2.336277
    151          1           0      -32.623012    4.696997   -3.644776
    152          1           0      -28.306407    2.978290   -4.983980
    153          1           0      -27.650730    1.440658   -5.572217
    154          1           0      -26.522613    2.609629   -4.925253
    155          1           0      -24.194556   -0.073052   -0.973598
    156          1           0      -24.525998   -4.262678   -3.458357
    157          1           0      -26.230943   -4.115778   -3.721824
    158          1           0      -25.654181   -4.795607   -2.251222
 ---------------------------------------------------------------------

 SCF Done:  E(RCAM-B3LYP) =  -4069.79072688     A.U. after   18 cycles

 Excitation energies and oscillator strengths:

 Excited State   1:      Singlet-A      1.6590 eV  747.35 nm  f=0.3895  <S**2>=0.000
     310 -> 316       -0.15615
     311 -> 313        0.69165
     310 <- 316       -0.10434
 This state for optimization and/or second-order correction.
 Total Energy, E(TD-HF/TD-DFT) =  -4069.72976027
 Copying the excited state density for this state as the 1-particle RhoCI density.

 Excited State   2:      Singlet-A      1.7690 eV  700.87 nm  f=0.4095  <S**2>=0.000
     309 -> 315        0.18508
     312 -> 314        0.68379
     309 <- 315        0.10632

 Excited State   3:      Singlet-A      2.1782 eV  569.21 nm  f=0.2160  <S**2>=0.000
     310 -> 313        0.66760
     311 -> 316        0.21707

 Excited State   4:      Singlet-A      2.2834 eV  542.99 nm  f=0.0989  <S**2>=0.000
     309 -> 314        0.63711
     312 -> 315       -0.29627

 Excited State   5:      Singlet-A      3.0749 eV  403.21 nm  f=0.0000  <S**2>=0.000
     312 -> 313        0.70710

 The electronic state is 1-A.
 Alpha  occ. eigenvalues --  -46.90074 -46.88891 -19.24802 -19.24603 -19.20419
 Alpha  occ. eigenvalues --  -19.19885 -19.19471 -19.19410 -19.18606 -19.17430
 Alpha  occ. eigenvalues --  -14.42321 -14.42302 -14.41846 -14.41425 -14.40442
 Alpha  occ. eigenvalues --  -14.40170 -14.39699 -14.39565 -10.39884 -10.39136
 Alpha  occ. eigenvalues --  -10.35970 -10.35695 -10.35612 -10.33987 -10.31872
 Alpha  occ. eigenvalues --  -10.31528 -10.31402 -10.31129 -10.31113 -10.31033
 Alpha  occ. eigenvalues --  -10.30797 -10.30776 -10.30735 -10.30727 -10.30693
 Alpha  occ. eigenvalues --  -10.30445 -10.30358 -10.30181 -10.30114 -10.30106
 Alpha  occ. eigenvalues --  -10.29872 -10.29845 -10.29408 -10.29067 -10.29051
 Alpha  occ. eigenvalues --  -10.28974 -10.28950 -10.28802 -10.28760 -10.28304
 Alpha  occ. eigenvalues --  -10.28115 -10.28109 -10.28105 -10.28024 -10.28009
 Alpha  occ. eigenvalues --  -10.27994 -10.27918 -10.27916 -10.27827 -10.27763
 Alpha  occ. eigenvalues --  -10.27630 -10.27567 -10.27417 -10.27379 -10.27379
 Alpha  occ. eigenvalues --  -10.27252 -10.27189 -10.27095 -10.27045 -10.26840
 Alpha  occ. eigenvalues --  -10.26709 -10.26590 -10.26575 -10.26384 -10.26383
 Alpha  occ. eigenvalues --  -10.26349 -10.26186 -10.26184 -10.25937 -10.25795
 Alpha  occ. eigenvalues --  -10.25726 -10.25614 -10.25591 -10.25535 -10.25531
 Alpha  occ. eigenvalues --  -10.25385  -3.18552  -3.17553  -1.93441  -1.93006
 Alpha  occ. eigenvalues --   -1.92855  -1.92422  -1.92004  -1.91875  -1.16529
 Alpha  occ. eigenvalues --   -1.16063  -1.10218  -1.09576  -1.09334  -1.07462
 Alpha  occ. eigenvalues --   -1.07283  -1.07011  -1.06751  -1.04908  -1.04831
 Alpha  occ. eigenvalues --   -1.04029  -1.04018  -1.03655  -1.03309  -1.02528
 Alpha  occ. eigenvalues --   -0.93697  -0.93590  -0.89814  -0.89548  -0.88831
 Alpha  occ. eigenvalues --   -0.88792  -0.88621  -0.88308  -0.88041  -0.87457
 Alpha  occ. eigenvalues --   -0.86910  -0.86833  -0.86236  -0.85418  -0.84898
 Alpha  occ. eigenvalues --   -0.84738  -0.84034  -0.83965  -0.83140  -0.82909
 Alpha  occ. eigenvalues --   -0.82069  -0.81801  -0.81059  -0.80848  -0.80816
 Alpha  occ. eigenvalues --   -0.80553  -0.78562  -0.78526  -0.77718  -0.77483
 Alpha  occ. eigenvalues --   -0.77282  -0.77036  -0.76698  -0.76221  -0.75440
 Alpha  occ. eigenvalues --   -0.75378  -0.73353  -0.73327  -0.72405  -0.70939
 Alpha  occ. eigenvalues --   -0.69574  -0.69286  -0.69275  -0.68700  -0.68641
 Alpha  occ. eigenvalues --   -0.68169  -0.67535  -0.66937  -0.66865  -0.65703
 Alpha  occ. eigenvalues --   -0.65696  -0.65521  -0.65130  -0.64898  -0.64882
 Alpha  occ. eigenvalues --   -0.64475  -0.63170  -0.62051  -0.60747  -0.60611
 Alpha  occ. eigenvalues --   -0.60209  -0.59776  -0.59519  -0.59473  -0.58857
 Alpha  occ. eigenvalues --   -0.58561  -0.58394  -0.58096  -0.57676  -0.57319
 Alpha  occ. eigenvalues --   -0.56379  -0.55902  -0.55883  -0.55703  -0.55628
 Alpha  occ. eigenvalues --   -0.55081  -0.54881  -0.54621  -0.54538  -0.54194
 Alpha  occ. eigenvalues --   -0.53955  -0.53695  -0.53619  -0.53228  -0.53017
 Alpha  occ. eigenvalues --   -0.52870  -0.52833  -0.52557  -0.52411  -0.52027
 Alpha  occ. eigenvalues --   -0.51775  -0.51755  -0.51544  -0.51416  -0.51255
 Alpha  occ. eigenvalues --   -0.51221  -0.51119  -0.51017  -0.50626  -0.50297
 Alpha  occ. eigenvalues --   -0.50024  -0.49902  -0.49843  -0.49808  -0.49715
 Alpha  occ. eigenvalues --   -0.49496  -0.49491  -0.49206  -0.49036  -0.48884
 Alpha  occ. eigenvalues --   -0.48730  -0.48563  -0.48523  -0.48326  -0.48300
 Alpha  occ. eigenvalues --   -0.48148  -0.47908  -0.47856  -0.47641  -0.47568
 Alpha  occ. eigenvalues --   -0.47443  -0.47259  -0.47244  -0.46942  -0.46654
 Alpha  occ. eigenvalues --   -0.46523  -0.46380  -0.46286  -0.46193  -0.46095
 Alpha  occ. eigenvalues --   -0.45946  -0.45909  -0.45536  -0.45392  -0.45367
 Alpha  occ. eigenvalues --   -0.45113  -0.44974  -0.44878  -0.44836  -0.44360
 Alpha  occ. eigenvalues --   -0.44217  -0.43947  -0.43925  -0.43701  -0.43588
 Alpha  occ. eigenvalues --   -0.43302  -0.43269  -0.43132  -0.43087  -0.42842
 Alpha  occ. eigenvalues --   -0.42686  -0.42680  -0.42261  -0.42108  -0.42081
 Alpha  occ. eigenvalues --   -0.42019  -0.42008  -0.41628  -0.41473  -0.41335
 Alpha  occ. eigenvalues --   -0.41256  -0.40929  -0.40692  -0.40681  -0.40631
 Alpha  occ. eigenvalues --   -0.39977  -0.39809  -0.39483  -0.39264  -0.39244
 Alpha  occ. eigenvalues --   -0.38860  -0.38574  -0.38237  -0.38215  -0.37759
 Alpha  occ. eigenvalues --   -0.37666  -0.37179  -0.36902  -0.36669  -0.36399
 Alpha  occ. eigenvalues --   -0.36327  -0.35818  -0.35020  -0.34610  -0.34307
 Alpha  occ. eigenvalues --   -0.34271  -0.33653  -0.33131  -0.31916  -0.31563
 Alpha  occ. eigenvalues --   -0.31420  -0.31392  -0.31054  -0.30972  -0.30128
 Alpha  occ. eigenvalues --   -0.29887  -0.29804  -0.29277  -0.24499  -0.24266
 Alpha  occ. eigenvalues --   -0.21724  -0.21539
 Alpha virt. eigenvalues --   -0.09653  -0.08919  -0.02038  -0.00772  -0.00624
 Alpha virt. eigenvalues --    0.00296   0.01182   0.01747   0.01862   0.02259
 Alpha virt. eigenvalues --    0.03933   0.04300   0.04963   0.04980   0.05434

 Mulliken charges:
               1
     1  Mg  11.997467
     2  C    5.963125
     3  C    5.984359
     4  C    6.037613
     5  C    6.004448
     6  N    6.970783
     7  C    6.036393
     8  C    5.985449
     9  C    6.001033
    10  C    5.987893
    11  C    6.004228
    12  C    5.997936
    13  C    6.001131
    14  H    1.004491
    15  N    7.006149
    16  C    5.963814
    17  C    5.979229
    18  C    5.985914
    19  C    5.967054
    20  C    6.000852
    21  C    5.988072
    22  O    7.964206
    23  C    6.005413
    24  N    7.025698
    25  C    5.961952
    26  C    6.005126
    27  C    5.995386
    28  C    6.018528
    29  C    6.000324
    30  C    5.995104
    31  C    6.000377
    32  N    6.995761
    33  C    6.034306
    34  C    6.033301
    35  C    5.998309
    36  C    6.045660
    37  C    5.996060
    38  C    6.012750
    39  O    8.025963
    40  C    6.008286
    41  C    6.005904
    42  O    8.003225
    43  O    8.000416
    44  C    5.996576
    45  H    0.977073
    46  H    1.002625
    47  H    1.017728
    48  H    0.999631
    49  H    0.999784
    50  H    1.000332
    51  H    0.998537
    52  H    0.983460
    53  H    1.012006
    54  H    0.993386
    55  H    0.994540
    56  H    1.002138
    57  H    0.979491
    58  H    0.985378
    59  H    0.983364
    60  H    0.991401
    61  H    0.984440
    62  H    0.995241
    63  H    1.005792
    64  H    1.002139
    65  H    1.004732
    66  H    1.003181
    67  H    0.991827
    68  H    0.998138
    69  H    1.006983
    70  H    1.008055
    71  H    1.005983
    72  H    1.002472
    73  H    1.014758
    74  H    1.022703
    75  H    1.020607
    76  H    1.005171
    77  H    1.003690
    78  H    1.006117
    79  H    1.001032
    80  Mg  12.000019
    81  C    5.999963
    82  C    5.999937
    83  C    6.000054
    84  C    6.000100
    85  N    7.000020
    86  C    5.999964
    87  C    6.000015
    88  C    5.999977
    89  C    6.000054
    90  C    6.000002
    91  C    6.000007
    92  C    6.000041
    93  H    0.999933
    94  N    6.999972
    95  C    6.000134
    96  C    6.000047
    97  C    6.000050
    98  C    6.000046
    99  C    5.999986
   100  C    6.000034
   101  O    8.000048
   102  C    5.999981
   103  N    6.999992
   104  C    6.000015
   105  C    5.999982
   106  C    6.000024
   107  C    5.999924
   108  C    5.999984
   109  C    6.000006
   110  C    5.999998
   111  N    7.000009
   112  C    5.999859
   113  C    5.999957
   114  C    5.999956
   115  C    5.999984
   116  C    6.000023
   117  C    5.999918
   118  O    7.999891
   119  C    6.000028
   120  C    5.999991
   121  O    7.999948
   122  O    8.000017
   123  C    5.999999
   124  H    1.000015
   125  H    1.000029
   126  H    0.999993
   127  H    0.999988
   128  H    0.999992
   129  H    1.000019
   130  H    1.000007
   131  H    1.000001
   132  H    0.999971
   133  H    0.999968
   134  H    1.000020
   135  H    0.999980
   136  H    1.000059
   137  H    1.000045
   138  H    1.000055
   139  H    1.000041
   140  H    1.000020
   141  H    1.000062
   142  H    1.000018
   143  H    1.000013
   144  H    1.000005
   145  H    1.000035
   146  H    1.000027
   147  H    0.999992
   148  H    0.999979
   149  H    0.999990
   150  H    1.000009
   151  H    1.000006
   152  H    0.999960
   153  H    0.999961
   154  H    0.999936
   155  H    0.999941
   156  H    0.999969
   157  H    1.000011
   158  H    0.999993
 Sum of Mulliken charges = 624.00000

 Dipole moment (field-independent basis, Debye):
    X=             -9.8761    Y=              4.5703    Z=             -2.3256  Tot=             11.1280
 Quadrupole moment (field-independent basis, Debye-Ang):
   XX=           -580.7651   YY=              6.7737   ZZ=             -0.2944
   XY=            132.3765   XZ=            -72.1727   YZ=              1.7823

 Normal termination of Gaussian 16 at Tue Sep 21 22:33:32 2021.
