 Gaussian 16, Revision A.03,
 Gaussian 16:  ES64L-G16RevA.03 25-Dec-2016

 -----------------------------------
 #p cam-b3lyp/Def2SVP td=(nstates=5)
 -----------------------------------

 --------------------------------
 TDDFT excited states in gaussian
 --------------------------------
 Symbolic Z-matrix:
 Charge =  0 Multiplicity = 1

                         Standard orientation:
 ---------------------------------------------------------------------
 Center     Atomic      Atomic             Coordinates (Angstroms)
 Number     Number       Type             X           Y           Z
 ---------------------------------------------------------------------
      1         12           0      -11.282705   -0.427895    0.234966
      2          6           0       -8.387854    1.381878    0.573107
      3          6           0      -11.455340    0.579232   -3.038155
      4          6           0      -14.269631   -2.159226   -0.095055
      5          6           0      -11.296618   -1.048998    3.645890
      6          7           0      -10.079901    0.899495   -1.116427
      7          6           0       -8.886461    1.439334   -0.729516
      8          6           0       -8.256917    2.152957   -1.825960
      9          6           0       -9.268080    2.126547   -2.961245
     10          6           0      -10.387060    1.166693   -2.362639
     11          6           0       -9.858358    3.484095   -3.477554
     12          6           0       -6.868110    1.531985   -2.200315
     13          6           0       -5.763949    2.516394   -2.719678
     14          1           0       -6.240620    3.789380   -3.446264
     15          7           0      -12.597035   -0.822212   -1.406990
     16          6           0      -12.456525   -0.308490   -2.684787
     17          6           0      -13.574835   -0.792535   -3.519391
     18          6           0      -14.421099   -1.616541   -2.658782
     19          6           0      -13.774504   -1.586111   -1.335335
     20          6           0      -13.781355   -0.432776   -4.981663
     21          6           0      -15.622039   -2.439478   -3.062919
     22          8           0      -16.181205   -3.150678   -2.209707
     23          6           0      -16.226450   -2.444572   -4.417068
     24          7           0      -12.649613   -1.397446    1.586279
     25          6           0      -13.739687   -2.057807    1.185261
     26          6           0      -14.370944   -2.829931    2.355757
     27          6           0      -13.285080   -2.704561    3.558217
     28          6           0      -12.297651   -1.708734    2.853888
     29          6           0      -15.791354   -2.283261    2.697163
     30          6           0      -12.557757   -4.022188    3.942498
     31          6           0      -12.896167   -4.589469    5.329242
     32          7           0      -10.139828    0.103139    1.852405
     33          6           0      -10.265022   -0.208863    3.208138
     34          6           0       -9.152957    0.395535    3.974790
     35          6           0       -8.426414    1.034583    2.942523
     36          6           0       -9.065592    0.836652    1.689401
     37          6           0       -8.869024    0.286610    5.391485
     38          6           0       -7.172119    1.764603    2.665102
     39          8           0       -6.257857    2.082166    3.378558
     40          6           0       -7.132762    2.048845    1.121296
     41          6           0       -6.938875    3.493636    0.919410
     42          8           0       -7.859246    4.289748    1.165686
     43          8           0       -5.761254    3.837264    0.329245
     44          6           0       -5.566982    5.220133   -0.095120
     45          1           0      -11.480190    0.916936   -4.076330
     46          1           0      -15.229249   -2.667890   -0.210541
     47          1           0      -11.274022   -1.376932    4.687140
     48          1           0       -8.103499    3.184781   -1.508013
     49          1           0       -8.905875    1.533088   -3.801525
     50          1           0       -9.542194    4.443146   -3.065950
     51          1           0      -10.942025    3.437602   -3.372649
     52          1           0       -9.766480    3.615263   -4.556009
     53          1           0       -7.013406    0.701209   -2.890928
     54          1           0       -6.512098    0.938032   -1.358755
     55          1           0       -5.079750    1.990843   -3.386436
     56          1           0       -5.188361    2.971434   -1.914158
     57          1           0      -12.948163    0.121848   -5.411892
     58          1           0      -14.650403    0.213566   -5.107722
     59          1           0      -13.757973   -1.333592   -5.594661
     60          1           0      -17.010028   -3.201458   -4.399170
     61          1           0      -15.512198   -2.661063   -5.212547
     62          1           0      -16.573652   -1.440847   -4.662791
     63          1           0      -14.359782   -3.884264    2.079121
     64          1           0      -13.696434   -2.219712    4.443478
     65          1           0      -16.548790   -3.062874    2.779450
     66          1           0      -16.136729   -1.593130    1.926916
     67          1           0      -15.640916   -1.721021    3.619074
     68          1           0      -11.471958   -3.937965    3.916996
     69          1           0      -12.760930   -4.821027    3.228945
     70          1           0      -13.905020   -4.285645    5.608775
     71          1           0      -12.197995   -4.159238    6.046575
     72          1           0      -12.704286   -5.660589    5.281388
     73          1           0       -7.834444    0.527650    5.634705
     74          1           0       -9.085779   -0.700188    5.800096
     75          1           0       -9.386158    1.104149    5.893994
     76          1           0       -6.271668    1.448837    0.825052
     77          1           0       -5.520467    5.938353    0.723930
     78          1           0       -6.297737    5.502473   -0.852940
     79          1           0       -4.593368    5.318213   -0.575031
     80         12           0       11.357568   -0.647314   -0.455330
     81          6           0        9.476382    2.318170   -0.209391
     82          6           0       12.299249   -0.099457    2.847229
     83          6           0       12.809249   -3.644344   -0.410651
     84          6           0        9.569368   -1.411741   -3.329593
     85          7           0       10.758598    0.890214    1.156064
     86          6           0       10.085702    2.089965    1.030769
     87          6           0       10.304877    3.078287    2.156921
     88          6           0       11.231797    2.308735    3.127922
     89          6           0       11.453163    0.951243    2.383649
     90          6           0       12.588051    3.052379    3.462773
     91          6           0        9.000611    3.600311    2.909597
     92          6           0        7.800911    2.645208    3.019620
     93          1           0        7.529273    1.954892    4.389019
     94          7           0       12.391831   -1.690215    0.983542
     95          6           0       12.725052   -1.281335    2.243507
     96          6           0       13.596427   -2.279166    2.879918
     97          6           0       13.763104   -3.334689    1.931867
     98          6           0       12.945652   -2.903400    0.756570
     99          6           0       14.181532   -2.119836    4.278144
    100          6           0       14.571641   -4.619304    2.349186
    101          8           0       15.000428   -4.679567    3.493110
    102          6           0       14.733685   -5.827119    1.333327
    103          7           0       11.108613   -2.301751   -1.609125
    104          6           0       11.952174   -3.405125   -1.502295
    105          6           0       11.702452   -4.442154   -2.737058
    106          6           0       10.513756   -3.671229   -3.530090
    107          6           0       10.406384   -2.386940   -2.772721
    108          6           0       12.983622   -4.680216   -3.589399
    109          6           0        9.123521   -4.438578   -3.581706
    110          6           0        8.434059   -4.639220   -4.940157
    111          7           0        9.902750    0.296444   -1.660291
    112          6           0        9.242758   -0.108879   -2.792004
    113          6           0        8.278199    0.943676   -3.175026
    114          6           0        8.450519    1.974308   -2.212463
    115          6           0        9.422174    1.481892   -1.297010
    116          6           0        7.305390    0.926950   -4.321408
    117          6           0        7.906762    3.281799   -1.799385
    118          8           0        7.113272    4.070783   -2.332995
    119          6           0        8.727738    3.627144   -0.565879
    120          6           0        9.551436    4.774105   -0.750824
    121          8           0       10.643920    4.717558   -1.372586
    122          8           0        8.999906    5.912076   -0.129385
    123          6           0        9.799705    7.132023   -0.086693
    124          1           0       12.764804    0.102204    3.813871
    125          1           0       13.397013   -4.560170   -0.496732
    126          1           0        9.094669   -1.700478   -4.269197
    127          1           0       10.797995    3.906684    1.649714
    128          1           0       10.605954    2.046038    3.980040
    129          1           0       12.576477    3.375955    4.503537
    130          1           0       12.635858    3.905302    2.785236
    131          1           0       13.447088    2.394393    3.327441
    132          1           0        8.701641    4.424765    2.261058
    133          1           0        9.287221    4.000016    3.882591
    134          1           0        7.869396    1.855212    2.271006
    135          1           0        6.906565    3.191980    2.723742
    136          1           0       13.689471   -2.712143    5.049634
    137          1           0       14.339177   -1.068613    4.519672
    138          1           0       15.225587   -2.431900    4.297097
    139          1           0       15.044356   -5.397084    0.380840
    140          1           0       13.764120   -6.318443    1.256266
    141          1           0       15.326365   -6.655831    1.720711
    142          1           0       11.494271   -5.407226   -2.276069
    143          1           0       10.893479   -3.446753   -4.527102
    144          1           0       12.947157   -3.989335   -4.431431
    145          1           0       13.111044   -5.723056   -3.880058
    146          1           0       13.915424   -4.514491   -3.048927
    147          1           0        8.462156   -3.928097   -2.880895
    148          1           0        9.407383   -5.418207   -3.197212
    149          1           0        7.369559   -4.849145   -4.832324
    150          1           0        8.966510   -5.500677   -5.342628
    151          1           0        8.610235   -3.701606   -5.467778
    152          1           0        7.124144   -0.133114   -4.496870
    153          1           0        7.909635    1.314799   -5.141486
    154          1           0        6.429019    1.564057   -4.198786
    155          1           0        7.942826    3.810526    0.167536
    156          1           0       10.029889    7.614352   -1.036716
    157          1           0       10.744177    6.939607    0.423122
    158          1           0        9.311560    7.792476    0.630165
 ---------------------------------------------------------------------

 SCF Done:  E(RCAM-B3LYP) =  -4069.84094480     A.U. after   19 cycles

 Excitation energies and oscillator strengths:

 Excited State   1:      Singlet-A      1.7179 eV  721.71 nm  f=0.4055  <S**2>=0.000
     309 -> 315       -0.18117
     311 -> 314        0.68421
     309 <- 315       -0.10774
 This state for optimization and/or second-order correction.
 Total Energy, E(TD-HF/TD-DFT) =  -4069.77781271
 Copying the excited state density for this state as the 1-particle RhoCI density.

 Excited State   2:      Singlet-A      1.7299 eV  716.73 nm  f=0.3582  <S**2>=0.000
     310 -> 316       -0.18830
     312 -> 313        0.68156
     310 <- 316       -0.10867

 Excited State   3:      Singlet-A      2.2548 eV  549.86 nm  f=0.0855  <S**2>=0.000
     310 -> 313        0.62553
     312 -> 316        0.31633

 Excited State   4:      Singlet-A      2.3104 eV  536.62 nm  f=0.0708  <S**2>=0.000
     309 -> 314        0.61637
     311 -> 315        0.33569

 Excited State   5:      Singlet-A      2.9982 eV  413.53 nm  f=0.0000  <S**2>=0.000
     312 -> 314        0.70705

 The electronic state is 1-A.
 Alpha  occ. eigenvalues --  -46.88934 -46.88825 -19.25860 -19.25796 -19.20242
 Alpha  occ. eigenvalues --  -19.19620 -19.19205 -19.19202 -19.18969 -19.18317
 Alpha  occ. eigenvalues --  -14.42642 -14.42091 -14.41771 -14.41656 -14.39965
 Alpha  occ. eigenvalues --  -14.39432 -14.39323 -14.39183 -10.40029 -10.39461
 Alpha  occ. eigenvalues --  -10.36499 -10.35362 -10.34913 -10.34776 -10.32186
 Alpha  occ. eigenvalues --  -10.32119 -10.31891 -10.31354 -10.30945 -10.30859
 Alpha  occ. eigenvalues --  -10.30648 -10.30587 -10.30580 -10.30551 -10.30347
 Alpha  occ. eigenvalues --  -10.30097 -10.30049 -10.29955 -10.29861 -10.29847
 Alpha  occ. eigenvalues --  -10.29314 -10.29181 -10.29095 -10.28964 -10.28630
 Alpha  occ. eigenvalues --  -10.28458 -10.28377 -10.28334 -10.28323 -10.28313
 Alpha  occ. eigenvalues --  -10.28296 -10.28203 -10.28042 -10.27918 -10.27854
 Alpha  occ. eigenvalues --  -10.27765 -10.27746 -10.27699 -10.27476 -10.27469
 Alpha  occ. eigenvalues --  -10.27369 -10.27360 -10.27342 -10.27326 -10.27158
 Alpha  occ. eigenvalues --  -10.27146 -10.27133 -10.26930 -10.26789 -10.26740
 Alpha  occ. eigenvalues --  -10.26670 -10.26601 -10.26592 -10.26422 -10.26086
 Alpha  occ. eigenvalues --  -10.26060 -10.26011 -10.25987 -10.25967 -10.25959
 Alpha  occ. eigenvalues --  -10.25889 -10.25466 -10.25458 -10.25317 -10.25188
 Alpha  occ. eigenvalues --  -10.25184  -3.17560  -3.17248  -1.92418  -1.92170
 Alpha  occ. eigenvalues --   -1.92031  -1.91864  -1.91687  -1.91555  -1.16329
 Alpha  occ. eigenvalues --   -1.14977  -1.10870  -1.10420  -1.09069  -1.08871
 Alpha  occ. eigenvalues --   -1.07028  -1.07024  -1.05053  -1.04154  -1.03991
 Alpha  occ. eigenvalues --   -1.03555  -1.03316  -1.02621  -1.01884  -1.00897
 Alpha  occ. eigenvalues --   -0.93140  -0.92413  -0.89178  -0.89044  -0.88837
 Alpha  occ. eigenvalues --   -0.88226  -0.88061  -0.87652  -0.87134  -0.86814
 Alpha  occ. eigenvalues --   -0.86670  -0.86203  -0.86093  -0.85568  -0.84527
 Alpha  occ. eigenvalues --   -0.83927  -0.83867  -0.83505  -0.82803  -0.82248
 Alpha  occ. eigenvalues --   -0.81818  -0.81665  -0.81133  -0.81016  -0.80482
 Alpha  occ. eigenvalues --   -0.80088  -0.78377  -0.78180  -0.77474  -0.77240
 Alpha  occ. eigenvalues --   -0.77223  -0.76766  -0.76532  -0.76164  -0.74910
 Alpha  occ. eigenvalues --   -0.74831  -0.72533  -0.72342  -0.71755  -0.71442
 Alpha  occ. eigenvalues --   -0.69286  -0.69149  -0.68921  -0.68445  -0.68306
 Alpha  occ. eigenvalues --   -0.67952  -0.66856  -0.66813  -0.65793  -0.65760
 Alpha  occ. eigenvalues --   -0.65394  -0.65190  -0.64953  -0.64581  -0.64260
 Alpha  occ. eigenvalues --   -0.64203  -0.62637  -0.62448  -0.60240  -0.59779
 Alpha  occ. eigenvalues --   -0.59630  -0.59528  -0.59147  -0.59074  -0.58670
 Alpha  occ. eigenvalues --   -0.58661  -0.58157  -0.57743  -0.57228  -0.57190
 Alpha  occ. eigenvalues --   -0.56146  -0.55989  -0.55867  -0.55609  -0.55282
 Alpha  occ. eigenvalues --   -0.54944  -0.54622  -0.54439  -0.54201  -0.53895
 Alpha  occ. eigenvalues --   -0.53773  -0.53382  -0.53097  -0.52865  -0.52707
 Alpha  occ. eigenvalues --   -0.52633  -0.52357  -0.52349  -0.52149  -0.52132
 Alpha  occ. eigenvalues --   -0.51613  -0.51553  -0.51443  -0.51208  -0.51195
 Alpha  occ. eigenvalues --   -0.51082  -0.50958  -0.50717  -0.50309  -0.50155
 Alpha  occ. eigenvalues --   -0.49989  -0.49907  -0.49769  -0.49362  -0.49359
 Alpha  occ. eigenvalues --   -0.49290  -0.49256  -0.48971  -0.48920  -0.48584
 Alpha  occ. eigenvalues --   -0.48472  -0.48392  -0.48342  -0.48144  -0.48030
 Alpha  occ. eigenvalues --   -0.47893  -0.47404  -0.47381  -0.47205  -0.47132
 Alpha  occ. eigenvalues --   -0.47033  -0.46624  -0.46620  -0.46453  -0.46250
 Alpha  occ. eigenvalues --   -0.46234  -0.46164  -0.45805  -0.45771  -0.45630
 Alpha  occ. eigenvalues --   -0.45439  -0.45379  -0.45120  -0.44972  -0.44850
 Alpha  occ. eigenvalues --   -0.44790  -0.44620  -0.44565  -0.44456  -0.44263
 Alpha  occ. eigenvalues --   -0.44182  -0.43928  -0.43738  -0.43535  -0.43434
 Alpha  occ. eigenvalues --   -0.43220  -0.43098  -0.43037  -0.42938  -0.42933
 Alpha  occ. eigenvalues --   -0.42678  -0.42542  -0.42394  -0.42265  -0.42101
 Alpha  occ. eigenvalues --   -0.42052  -0.41738  -0.41568  -0.41435  -0.41080
 Alpha  occ. eigenvalues --   -0.41067  -0.40840  -0.40612  -0.40610  -0.40281
 Alpha  occ. eigenvalues --   -0.40280  -0.39920  -0.39874  -0.39705  -0.39487
 Alpha  occ. eigenvalues --   -0.38882  -0.38132  -0.37632  -0.37510  -0.37404
 Alpha  occ. eigenvalues --   -0.37124  -0.37078  -0.37009  -0.36620  -0.36607
 Alpha  occ. eigenvalues --   -0.36553  -0.35955  -0.34760  -0.34411  -0.33976
 Alpha  occ. eigenvalues --   -0.33875  -0.33200  -0.33050  -0.31414  -0.31205
 Alpha  occ. eigenvalues --   -0.31075  -0.30982  -0.30834  -0.30619  -0.30264
 Alpha  occ. eigenvalues --   -0.29999  -0.29608  -0.29445  -0.24143  -0.23818
 Alpha  occ. eigenvalues --   -0.20831  -0.20740
 Alpha virt. eigenvalues --   -0.08228  -0.08186  -0.01807  -0.01659   0.00275
 Alpha virt. eigenvalues --    0.00610   0.01648   0.02052   0.02610   0.03153
 Alpha virt. eigenvalues --    0.03438   0.04563   0.05057   0.05244   0.05352

 Mulliken charges:
               1
     1  Mg   0.814692
     2  C   -0.017213
     3  C   -0.070472
     4  C   -0.047163
     5  C   -0.073684
     6  N   -0.243888
     7  C   -0.051300
     8  C   -0.008570
     9  C    0.010542
    10  C   -0.041654
    11  C    0.066201
    12  C    0.061556
    13  C   -0.064316
    14  H    0.001747
    15  N   -0.381010
    16  C    0.179953
    17  C   -0.151825
    18  C   -0.018680
    19  C    0.094753
    20  C    0.107331
    21  C   -0.005777
    22  O   -0.232330
    23  C    0.074402
    24  N   -0.261009
    25  C    0.046034
    26  C   -0.044066
    27  C   -0.048520
    28  C    0.017409
    29  C    0.079058
    30  C    0.027529
    31  C    0.003018
    32  N   -0.356660
    33  C    0.120905
    34  C   -0.150053
    35  C   -0.006698
    36  C    0.104732
    37  C    0.121504
    38  C    0.014255
    39  O   -0.145863
    40  C    0.025653
    41  C    0.218360
    42  O   -0.249104
    43  O   -0.321350
    44  C    0.184257
    45  H   -0.049178
    46  H    0.000999
    47  H   -0.028843
    48  H    0.022991
    49  H    0.008052
    50  H    0.027503
    51  H    0.010225
    52  H    0.004982
    53  H   -0.006589
    54  H    0.001630
    55  H    0.031715
    56  H    0.047224
    57  H    0.002060
    58  H    0.041519
    59  H    0.029850
    60  H    0.037630
    61  H    0.020577
    62  H    0.031126
    63  H    0.014242
    64  H    0.014596
    65  H    0.025584
    66  H    0.024978
    67  H    0.008037
    68  H    0.007549
    69  H    0.001622
    70  H    0.019633
    71  H    0.010861
    72  H    0.018523
    73  H    0.025161
    74  H    0.026262
    75  H    0.033548
    76  H    0.037088
    77  H    0.048214
    78  H    0.035013
    79  H    0.032929
    80  Mg   0.851637
    81  C   -0.100100
    82  C   -0.078215
    83  C   -0.099266
    84  C   -0.089080
    85  N   -0.279402
    86  C   -0.081026
    87  C   -0.019403
    88  C   -0.002820
    89  C   -0.000030
    90  C    0.073853
    91  C    0.027105
    92  C   -0.065084
    93  H    0.021445
    94  N   -0.362122
    95  C    0.140232
    96  C   -0.140620
    97  C   -0.078380
    98  C    0.187319
    99  C    0.142638
   100  C    0.026543
   101  O   -0.197070
   102  C    0.035332
   103  N   -0.347416
   104  C    0.055883
   105  C   -0.054222
   106  C   -0.028388
   107  C    0.061133
   108  C    0.055236
   109  C    0.021437
   110  C    0.018553
   111  N   -0.317874
   112  C    0.107238
   113  C   -0.195364
   114  C   -0.057937
   115  C    0.233621
   116  C    0.135999
   117  C    0.071867
   118  O   -0.182380
   119  C    0.008162
   120  C    0.252048
   121  O   -0.250037
   122  O   -0.351283
   123  C    0.193013
   124  H   -0.033055
   125  H   -0.058007
   126  H   -0.041464
   127  H    0.023579
   128  H    0.019054
   129  H    0.021418
   130  H    0.018737
   131  H    0.026094
   132  H    0.015635
   133  H    0.023123
   134  H    0.041747
   135  H    0.033354
   136  H    0.040525
   137  H    0.001846
   138  H    0.020845
   139  H    0.054623
   140  H    0.038704
   141  H    0.026081
   142  H    0.018363
   143  H    0.011610
   144  H    0.016589
   145  H    0.015959
   146  H    0.011141
   147  H    0.024295
   148  H    0.000209
   149  H    0.028182
   150  H    0.019620
   151  H    0.018895
   152  H    0.013531
   153  H    0.031295
   154  H    0.042581
   155  H    0.030764
   156  H    0.050780
   157  H    0.016688
   158  H    0.033886
 Sum of Mulliken charges =  -0.00000

 Dipole moment (field-independent basis, Debye):
    X=              2.3122    Y=             -2.4673    Z=             -3.7589  Tot=              5.0560
 Quadrupole moment (field-independent basis, Debye-Ang):
   XX=           -512.3230   YY=           -495.6362   ZZ=           -488.6063
   XY=              0.5631   XZ=             11.2665   YZ=             19.8287

 Normal termination of Gaussian 16 at Thu Sep  2 06:28:06 2021.
