 Gaussian 16, Revision A.03,
 Gaussian 16:  ES64L-G16RevA.03 25-Dec-2016

 -----------------------------------
 #p cam-b3lyp/Def2SVP td=(nstates=5)
 -----------------------------------

 --------------------------------
 TDDFT excited states in gaussian
 --------------------------------
 Symbolic Z-matrix:
 Charge =  0 Multiplicity = 1

                         Standard orientation:
 ---------------------------------------------------------------------
 Center     Atomic      Atomic             Coordinates (Angstroms)
 Number     Number       Type             X           Y           Z
 ---------------------------------------------------------------------
      1         12           0       18.826559   -0.197280    0.047346
      2          6           0       15.419091   -0.781380   -0.039505
      3          6           0       18.532635    1.496870   -3.056891
      4          6           0       22.053648    0.920830    0.326431
      5          6           0       19.014739   -1.419571    3.272188
      6          7           0       17.167277    0.160378   -1.407024
      7          6           0       15.833348   -0.090013   -1.162683
      8          6           0       14.859173    0.548848   -2.222155
      9          6           0       15.892207    0.926066   -3.386076
     10          6           0       17.335064    0.834215   -2.636136
     11          6           0       15.875395    0.101168   -4.729080
     12          6           0       14.087733    1.729010   -1.745703
     13          6           0       12.571780    1.702161   -1.708946
     14          1           0       11.868894    3.058807   -1.876933
     15          7           0       20.152443    0.970619   -1.252322
     16          6           0       19.796892    1.506225   -2.504556
     17          6           0       20.940461    2.112616   -3.108527
     18          6           0       21.975475    2.093912   -2.041701
     19          6           0       21.427457    1.314229   -0.888902
     20          6           0       20.912175    2.858076   -4.446890
     21          6           0       23.341439    2.773533   -2.241041
     22          8           0       23.722595    3.402365   -3.224106
     23          6           0       24.179069    2.973488   -1.027905
     24          7           0       20.342698   -0.080739    1.713950
     25          6           0       21.614406    0.261426    1.466314
     26          6           0       22.313521    0.344122    2.822465
     27          6           0       21.397125   -0.496709    3.828762
     28          6           0       20.137459   -0.729546    2.880644
     29          6           0       23.721219   -0.344854    2.732633
     30          6           0       20.982699    0.126187    5.224753
     31          6           0       21.480503   -0.488612    6.524302
     32          7           0       17.492202   -1.044001    1.374095
     33          6           0       17.710758   -1.540030    2.663151
     34          6           0       16.474979   -1.986967    3.229560
     35          6           0       15.505990   -1.714916    2.214860
     36          6           0       16.238688   -1.176900    1.085989
     37          6           0       16.228422   -2.577623    4.581989
     38          6           0       14.160186   -1.818975    1.826032
     39          8           0       13.229861   -2.268805    2.464584
     40          6           0       14.022950   -1.154371    0.401611
     41          6           0       13.198852   -2.029610   -0.446611
     42          8           0       12.031188   -1.786844   -0.729900
     43          8           0       13.927541   -3.144438   -0.833482
     44          6           0       13.142310   -4.092665   -1.655245
     45          1           0       18.574573    2.002629   -4.023347
     46          1           0       23.098090    1.239257    0.294733
     47          1           0       19.086320   -1.762162    4.306457
     48          1           0       14.168153   -0.212302   -2.582760
     49          1           0       15.752213    1.988494   -3.588657
     50          1           0       14.956927   -0.485701   -4.731219
     51          1           0       16.737552   -0.550141   -4.873160
     52          1           0       15.909328    0.823519   -5.543798
     53          1           0       14.315745    2.542242   -2.436382
     54          1           0       14.373406    1.971007   -0.722582
     55          1           0       12.271812    1.367296   -0.716406
     56          1           0       12.131645    1.083960   -2.491053
     57          1           0       19.981258    3.008977   -4.992989
     58          1           0       21.660548    2.313633   -5.022226
     59          1           0       21.456749    3.776088   -4.228316
     60          1           0       24.890743    2.204318   -0.730989
     61          1           0       23.588815    3.285318   -0.166109
     62          1           0       24.838230    3.811680   -1.256872
     63          1           0       22.433774    1.368618    3.175404
     64          1           0       21.809711   -1.495596    3.966145
     65          1           0       24.440873    0.357738    3.152803
     66          1           0       24.034725   -0.645263    1.732052
     67          1           0       23.779411   -1.278541    3.292519
     68          1           0       19.893286    0.106894    5.204261
     69          1           0       21.398814    1.134561    5.217135
     70          1           0       20.750828   -0.186713    7.276079
     71          1           0       22.434127   -0.030805    6.788115
     72          1           0       21.570112   -1.570427    6.617214
     73          1           0       15.159472   -2.788224    4.624175
     74          1           0       16.572954   -1.851795    5.317960
     75          1           0       16.738880   -3.520841    4.777432
     76          1           0       13.442532   -0.252119    0.597306
     77          1           0       12.645877   -4.821366   -1.014513
     78          1           0       13.840833   -4.501999   -2.385015
     79          1           0       12.393237   -3.581639   -2.259428
     80         12           0      -18.601659    0.623297    0.448080
     81          6           0      -16.062652   -1.552139   -1.175015
     82          6           0      -20.406947   -2.223991    0.688492
     83          6           0      -20.804411    2.617744    1.551569
     84          6           0      -16.689914    3.363040   -0.781944
     85          7           0      -18.263644   -1.585086   -0.225176
     86          6           0      -17.119384   -2.223448   -0.672764
     87          6           0      -17.185213   -3.754483   -0.632475
     88          6           0      -18.728134   -3.918907   -0.472138
     89          6           0      -19.206866   -2.500384    0.025476
     90          6           0      -19.456099   -4.343468   -1.708553
     91          6           0      -16.305162   -4.480804    0.439380
     92          6           0      -15.791076   -5.844583    0.119157
     93          1           0      -15.745830   -6.816988    1.293548
     94          7           0      -20.405209    0.252593    1.106464
     95          6           0      -20.999782   -1.023337    1.197594
     96          6           0      -22.228524   -0.880050    1.923906
     97          6           0      -22.245869    0.531473    2.305964
     98          6           0      -21.143838    1.149658    1.661600
     99          6           0      -23.177049   -2.064528    2.340027
    100          6           0      -23.260834    1.171398    3.202992
    101          8           0      -23.255836    2.403524    3.442251
    102          6           0      -24.313827    0.405329    3.917094
    103          7           0      -18.857740    2.671883    0.281516
    104          6           0      -19.879616    3.305640    0.860369
    105          6           0      -19.817798    4.861158    0.727671
    106          6           0      -18.287769    5.010032    0.388835
    107          6           0      -17.906952    3.592691   -0.119743
    108          6           0      -20.719939    5.391995   -0.432568
    109          6           0      -17.421049    5.381088    1.664697
    110          6           0      -17.811991    6.607053    2.516500
    111          7           0      -16.741833    0.891579   -0.691874
    112          6           0      -16.095640    2.074086   -1.033698
    113          6           0      -14.900033    1.773317   -1.785882
    114          6           0      -14.830653    0.375013   -1.829889
    115          6           0      -16.013810   -0.135437   -1.228593
    116          6           0      -13.876787    2.745966   -2.267808
    117          6           0      -14.021135   -0.741833   -2.299184
    118          8           0      -12.935876   -0.828948   -2.858273
    119          6           0      -14.821152   -2.040554   -1.765617
    120          6           0      -14.963720   -2.912268   -2.919091
    121          8           0      -15.586050   -2.668729   -3.964880
    122          8           0      -13.963232   -3.839903   -2.863996
    123          6           0      -13.830478   -4.790370   -3.921092
    124          1           0      -20.868626   -3.197747    0.865870
    125          1           0      -21.534553    3.340123    1.921897
    126          1           0      -16.138559    4.243705   -1.119079
    127          1           0      -16.893404   -4.112759   -1.619915
    128          1           0      -18.957689   -4.570164    0.370710
    129          1           0      -19.993387   -3.469195   -2.076126
    130          1           0      -20.210139   -5.087801   -1.453044
    131          1           0      -18.858081   -4.732133   -2.532585
    132          1           0      -16.929758   -4.609742    1.322865
    133          1           0      -15.499857   -3.799108    0.711695
    134          1           0      -14.774705   -5.657063   -0.226562
    135          1           0      -16.227671   -6.254018   -0.791908
    136          1           0      -23.150535   -2.339939    3.393911
    137          1           0      -23.017536   -2.940624    1.712017
    138          1           0      -24.152561   -1.657142    2.071591
    139          1           0      -25.084770    0.131922    3.196225
    140          1           0      -24.715127    1.088278    4.666349
    141          1           0      -23.810436   -0.426755    4.408247
    142          1           0      -20.136641    5.253766    1.693816
    143          1           0      -18.046133    5.718213   -0.403172
    144          1           0      -21.524924    5.956546    0.038606
    145          1           0      -21.101266    4.639532   -1.122088
    146          1           0      -20.038637    6.076778   -0.939537
    147          1           0      -16.407505    5.610192    1.336406
    148          1           0      -17.346148    4.466480    2.252633
    149          1           0      -17.984509    6.204040    3.514344
    150          1           0      -18.758104    6.936831    2.086337
    151          1           0      -17.026389    7.361698    2.551361
    152          1           0      -14.116265    3.669952   -1.740997
    153          1           0      -14.046835    2.853902   -3.339001
    154          1           0      -12.847657    2.412703   -2.134027
    155          1           0      -14.243246   -2.526693   -0.979829
    156          1           0      -14.611393   -4.671624   -4.672528
    157          1           0      -13.970657   -5.761249   -3.445697
    158          1           0      -12.817080   -4.799895   -4.319851
 ---------------------------------------------------------------------

 SCF Done:  E(RCAM-B3LYP) =  -4069.79239734     A.U. after   18 cycles

 Excitation energies and oscillator strengths:

 Excited State   1:      Singlet-A      1.6590 eV  747.33 nm  f=0.3947  <S**2>=0.000
     310 -> 316       -0.15615
     312 -> 314        0.69165
     310 <- 316       -0.10434
 This state for optimization and/or second-order correction.
 Total Energy, E(TD-HF/TD-DFT) =  -4069.73142895
 Copying the excited state density for this state as the 1-particle RhoCI density.

 Excited State   2:      Singlet-A      1.7132 eV  723.71 nm  f=0.3767  <S**2>=0.000
     309 -> 315       -0.17421
     311 -> 313        0.68635
     309 <- 315       -0.10490

 Excited State   3:      Singlet-A      2.1718 eV  570.87 nm  f=0.1640  <S**2>=0.000
     309 -> 313        0.65120
     311 -> 315        0.25323

 Excited State   4:      Singlet-A      2.1782 eV  569.20 nm  f=0.2122  <S**2>=0.000
     310 -> 314        0.66683
     312 -> 316        0.21668

 Excited State   5:      Singlet-A      3.0018 eV  413.04 nm  f=0.0000  <S**2>=0.000
     312 -> 313        0.70710

 The electronic state is 1-A.
 Alpha  occ. eigenvalues --  -46.90496 -46.88860 -19.25132 -19.24767 -19.19850
 Alpha  occ. eigenvalues --  -19.19836 -19.19376 -19.19124 -19.18313 -19.17400
 Alpha  occ. eigenvalues --  -14.43500 -14.42270 -14.42006 -14.41394 -14.40062
 Alpha  occ. eigenvalues --  -14.39886 -14.39668 -14.39532 -10.39135 -10.39101
 Alpha  occ. eigenvalues --  -10.35935 -10.35288 -10.34201 -10.33958 -10.33120
 Alpha  occ. eigenvalues --  -10.32087 -10.31697 -10.31682 -10.31521 -10.31371
 Alpha  occ. eigenvalues --  -10.31078 -10.30839 -10.30764 -10.30695 -10.30661
 Alpha  occ. eigenvalues --  -10.30432 -10.30413 -10.30327 -10.30140 -10.29846
 Alpha  occ. eigenvalues --  -10.29814 -10.29433 -10.29105 -10.29035 -10.29020
 Alpha  occ. eigenvalues --  -10.28914 -10.28718 -10.28687 -10.28530 -10.28448
 Alpha  occ. eigenvalues --  -10.28303 -10.28281 -10.28271 -10.28267 -10.28209
 Alpha  occ. eigenvalues --  -10.28085 -10.28079 -10.28072 -10.27977 -10.27959
 Alpha  occ. eigenvalues --  -10.27906 -10.27886 -10.27734 -10.27475 -10.27384
 Alpha  occ. eigenvalues --  -10.27347 -10.27347 -10.27044 -10.27009 -10.26994
 Alpha  occ. eigenvalues --  -10.26844 -10.26678 -10.26352 -10.26255 -10.26192
 Alpha  occ. eigenvalues --  -10.26151 -10.26065 -10.25915 -10.25910 -10.25697
 Alpha  occ. eigenvalues --  -10.25582 -10.25560 -10.25504 -10.25502 -10.25428
 Alpha  occ. eigenvalues --  -10.24922  -3.18706  -3.17521  -1.93634  -1.93137
 Alpha  occ. eigenvalues --   -1.93008  -1.92390  -1.91973  -1.91843  -1.16494
 Alpha  occ. eigenvalues --   -1.15545  -1.10183  -1.10072  -1.09781  -1.07489
 Alpha  occ. eigenvalues --   -1.07433  -1.06977  -1.04877  -1.04832  -1.04069
 Alpha  occ. eigenvalues --   -1.03996  -1.03624  -1.02583  -1.02496  -1.01750
 Alpha  occ. eigenvalues --   -0.93664  -0.92599  -0.89515  -0.89515  -0.89390
 Alpha  occ. eigenvalues --   -0.88761  -0.88208  -0.88010  -0.87708  -0.87425
 Alpha  occ. eigenvalues --   -0.87187  -0.86801  -0.86204  -0.85830  -0.84705
 Alpha  occ. eigenvalues --   -0.84528  -0.84002  -0.83857  -0.83109  -0.82908
 Alpha  occ. eigenvalues --   -0.82242  -0.82037  -0.81027  -0.80900  -0.80818
 Alpha  occ. eigenvalues --   -0.80764  -0.78531  -0.77849  -0.77450  -0.77250
 Alpha  occ. eigenvalues --   -0.77199  -0.76999  -0.76231  -0.76189  -0.75540
 Alpha  occ. eigenvalues --   -0.75409  -0.73516  -0.73320  -0.72297  -0.70909
 Alpha  occ. eigenvalues --   -0.69409  -0.69255  -0.69007  -0.68608  -0.68135
 Alpha  occ. eigenvalues --   -0.68004  -0.67143  -0.66906  -0.65664  -0.65648
 Alpha  occ. eigenvalues --   -0.65484  -0.65262  -0.65099  -0.64866  -0.64821
 Alpha  occ. eigenvalues --   -0.64443  -0.63017  -0.62017  -0.60717  -0.60265
 Alpha  occ. eigenvalues --   -0.59763  -0.59744  -0.59486  -0.59471  -0.59080
 Alpha  occ. eigenvalues --   -0.58824  -0.58361  -0.57806  -0.57644  -0.56998
 Alpha  occ. eigenvalues --   -0.56566  -0.55987  -0.55868  -0.55595  -0.55458
 Alpha  occ. eigenvalues --   -0.54848  -0.54821  -0.54590  -0.54163  -0.53859
 Alpha  occ. eigenvalues --   -0.53662  -0.53534  -0.53244  -0.53195  -0.52840
 Alpha  occ. eigenvalues --   -0.52838  -0.52798  -0.52525  -0.52491  -0.52378
 Alpha  occ. eigenvalues --   -0.52105  -0.51859  -0.51723  -0.51385  -0.51339
 Alpha  occ. eigenvalues --   -0.51189  -0.50986  -0.50947  -0.50390  -0.50266
 Alpha  occ. eigenvalues --   -0.50221  -0.49871  -0.49809  -0.49725  -0.49686
 Alpha  occ. eigenvalues --   -0.49506  -0.49458  -0.49175  -0.49157  -0.48883
 Alpha  occ. eigenvalues --   -0.48698  -0.48660  -0.48321  -0.48294  -0.48118
 Alpha  occ. eigenvalues --   -0.47958  -0.47826  -0.47809  -0.47538  -0.47229
 Alpha  occ. eigenvalues --   -0.47185  -0.47024  -0.46718  -0.46593  -0.46491
 Alpha  occ. eigenvalues --   -0.46347  -0.46160  -0.46138  -0.46002  -0.45915
 Alpha  occ. eigenvalues --   -0.45848  -0.45697  -0.45358  -0.45321  -0.45197
 Alpha  occ. eigenvalues --   -0.45082  -0.44941  -0.44804  -0.44682  -0.44535
 Alpha  occ. eigenvalues --   -0.44329  -0.44131  -0.43915  -0.43737  -0.43669
 Alpha  occ. eigenvalues --   -0.43644  -0.43237  -0.43055  -0.42990  -0.42811
 Alpha  occ. eigenvalues --   -0.42767  -0.42648  -0.42438  -0.42237  -0.42077
 Alpha  occ. eigenvalues --   -0.41976  -0.41606  -0.41594  -0.41511  -0.41302
 Alpha  occ. eigenvalues --   -0.41287  -0.40650  -0.40602  -0.40494  -0.39978
 Alpha  occ. eigenvalues --   -0.39778  -0.39722  -0.39472  -0.39451  -0.39230
 Alpha  occ. eigenvalues --   -0.38543  -0.38361  -0.38204  -0.37825  -0.37728
 Alpha  occ. eigenvalues --   -0.37421  -0.37221  -0.37146  -0.36790  -0.36367
 Alpha  occ. eigenvalues --   -0.35902  -0.35783  -0.34578  -0.34497  -0.34327
 Alpha  occ. eigenvalues --   -0.34274  -0.33344  -0.33099  -0.31772  -0.31531
 Alpha  occ. eigenvalues --   -0.31357  -0.31234  -0.30536  -0.30200  -0.30098
 Alpha  occ. eigenvalues --   -0.29854  -0.29774  -0.29592  -0.24624  -0.24234
 Alpha  occ. eigenvalues --   -0.22164  -0.21692
 Alpha virt. eigenvalues --   -0.09736  -0.09621  -0.02348  -0.00740   0.00012
 Alpha virt. eigenvalues --    0.00329   0.01781   0.02206   0.02290   0.02328
 Alpha virt. eigenvalues --    0.03967   0.04501   0.05017   0.05263   0.05839

 Mulliken charges:
               1
     1  Mg   0.796931
     2  C    0.074210
     3  C   -0.043108
     4  C   -0.054852
     5  C   -0.052407
     6  N   -0.300178
     7  C   -0.060118
     8  C   -0.022635
     9  C   -0.080343
    10  C    0.067000
    11  C    0.078387
    12  C    0.079023
    13  C   -0.093794
    14  H    0.008151
    15  N   -0.374600
    16  C    0.119165
    17  C   -0.139286
    18  C   -0.092393
    19  C    0.150517
    20  C    0.136727
    21  C    0.043165
    22  O   -0.209335
    23  C    0.005534
    24  N   -0.267851
    25  C    0.091580
    26  C   -0.078094
    27  C   -0.006935
    28  C   -0.004259
    29  C    0.049038
    30  C    0.036112
    31  C    0.003128
    32  N   -0.332692
    33  C    0.107755
    34  C   -0.158963
    35  C    0.031421
    36  C    0.039538
    37  C    0.122500
    38  C   -0.007861
    39  O   -0.164699
    40  C    0.009201
    41  C    0.181778
    42  O   -0.214809
    43  O   -0.355696
    44  C    0.174513
    45  H   -0.038459
    46  H   -0.042482
    47  H   -0.028648
    48  H    0.009926
    49  H    0.015640
    50  H    0.021484
    51  H    0.026829
    52  H    0.021389
    53  H    0.016757
    54  H    0.018190
    55  H    0.047011
    56  H    0.036523
    57  H    0.034195
    58  H    0.033167
    59  H    0.040582
    60  H    0.045882
    61  H    0.034654
    62  H    0.021620
    63  H    0.028674
    64  H    0.005420
    65  H    0.013822
    66  H    0.019605
    67  H    0.009789
    68  H    0.018872
    69  H    0.003648
    70  H    0.014564
    71  H    0.015957
    72  H    0.017368
    73  H    0.038996
    74  H    0.023805
    75  H    0.024062
    76  H    0.036653
    77  H    0.051284
    78  H    0.034181
    79  H    0.038575
    80  Mg   0.846900
    81  C    0.005404
    82  C   -0.055093
    83  C   -0.031323
    84  C   -0.072630
    85  N   -0.231491
    86  C   -0.075648
    87  C   -0.050089
    88  C   -0.049629
    89  C   -0.041764
    90  C    0.095490
    91  C    0.083149
    92  C   -0.058036
    93  H    0.037283
    94  N   -0.406862
    95  C    0.180120
    96  C   -0.159296
    97  C   -0.027518
    98  C    0.117505
    99  C    0.116967
   100  C   -0.040728
   101  O   -0.244821
   102  C    0.073576
   103  N   -0.320052
   104  C    0.020743
   105  C   -0.057381
   106  C   -0.052505
   107  C    0.068262
   108  C    0.098075
   109  C    0.007906
   110  C    0.024828
   111  N   -0.315209
   112  C    0.105990
   113  C   -0.190281
   114  C    0.005623
   115  C    0.086718
   116  C    0.131686
   117  C    0.079978
   118  O   -0.155602
   119  C    0.008073
   120  C    0.184148
   121  O   -0.240467
   122  O   -0.318876
   123  C    0.170254
   124  H   -0.033494
   125  H   -0.013488
   126  H   -0.020845
   127  H    0.010331
   128  H   -0.000323
   129  H    0.022572
   130  H    0.011655
   131  H    0.026525
   132  H    0.008147
   133  H    0.007459
   134  H    0.024622
   135  H    0.020974
   136  H    0.046310
   137  H    0.017039
   138  H    0.021936
   139  H    0.041769
   140  H    0.028524
   141  H    0.025080
   142  H    0.021971
   143  H   -0.000208
   144  H    0.023628
   145  H    0.037997
   146  H    0.007156
   147  H   -0.000240
   148  H    0.009485
   149  H    0.020176
   150  H    0.016545
   151  H    0.025547
   152  H    0.010512
   153  H    0.036124
   154  H    0.041524
   155  H    0.042053
   156  H    0.049405
   157  H    0.016032
   158  H    0.044121
 Sum of Mulliken charges =  -0.00000

 Dipole moment (field-independent basis, Debye):
    X=              3.1334    Y=             -2.6839    Z=              2.3009  Tot=              4.7240
 Quadrupole moment (field-independent basis, Debye-Ang):
   XX=           -384.4169   YY=           -481.1157   ZZ=           -512.0169
   XY=             25.9260   XZ=              6.6590   YZ=              3.7318

 Normal termination of Gaussian 16 at Thu Sep 16 02:17:52 2021.
