 Gaussian 16, Revision A.03,
 Gaussian 16:  ES64L-G16RevA.03 25-Dec-2016

 ----------------------------------------------------------
 #p cam-b3lyp/Def2SVP td=(nstates=5) density=(transition=1)
 ----------------------------------------------------------

 --------------------------------
 TDDFT excited states in gaussian
 --------------------------------
 Symbolic Z-matrix:
 Charge =  0 Multiplicity = 1

                         Standard orientation:
 ---------------------------------------------------------------------
 Center     Atomic      Atomic             Coordinates (Angstroms)
 Number     Number       Type             X           Y           Z
 ---------------------------------------------------------------------
      1         12           0       -3.845304   -0.471998    1.254203
      2          6           0       -5.614720    1.797082   -0.560058
      3          6           0       -2.059977    2.043015    2.778737
      4          6           0       -2.042739   -2.848931    2.854739
      5          6           0       -5.355780   -3.021165   -0.672445
      6          7           0       -3.691870    1.682048    0.953000
      7          6           0       -4.730036    2.373229    0.411219
      8          6           0       -4.730829    3.820711    0.769429
      9          6           0       -3.382808    3.876576    1.658667
     10          6           0       -2.996815    2.443368    1.824393
     11          6           0       -2.222452    4.725671    0.966827
     12          6           0       -6.037901    4.137498    1.635483
     13          6           0       -6.524866    5.587863    1.665778
     14          1           0       -5.688920    6.801472    1.188445
     15          7           0       -2.336125   -0.463620    2.702203
     16          6           0       -1.716502    0.701224    3.183548
     17          6           0       -0.702234    0.282254    4.122922
     18          6           0       -0.707181   -1.126431    4.177167
     19          6           0       -1.763496   -1.512308    3.251684
     20          6           0        0.129448    1.317169    4.916061
     21          6           0        0.301916   -2.086591    4.999625
     22          8           0        0.130872   -3.308350    5.097175
     23          6           0        1.523726   -1.593804    5.757300
     24          7           0       -3.787489   -2.681555    1.133781
     25          6           0       -2.912387   -3.384027    1.892277
     26          6           0       -2.833054   -4.843094    1.446225
     27          6           0       -4.168819   -4.972075    0.510502
     28          6           0       -4.568311   -3.495540    0.362624
     29          6           0       -1.445029   -5.309769    0.808874
     30          6           0       -5.443463   -5.702632    1.174683
     31          6           0       -6.166180   -6.798991    0.413876
     32          7           0       -5.251288   -0.673292   -0.277311
     33          6           0       -5.752623   -1.718363   -0.958711
     34          6           0       -6.811686   -1.245562   -1.904470
     35          6           0       -6.794953    0.155012   -1.703033
     36          6           0       -5.738878    0.424576   -0.798602
     37          6           0       -7.719497   -1.999270   -2.810758
     38          6           0       -7.445698    1.324766   -2.161348
     39          8           0       -8.366440    1.462836   -2.992699
     40          6           0       -6.707245    2.451862   -1.443813
     41          6           0       -6.106601    3.318724   -2.431719
     42          8           0       -5.355927    3.078719   -3.325031
     43          8           0       -6.482398    4.614218   -2.089198
     44          6           0       -5.997415    5.824994   -2.856133
     45          1           0       -1.618782    2.774618    3.458273
     46          1           0       -1.392131   -3.603335    3.302765
     47          1           0       -5.713952   -3.722697   -1.427968
     48          1           0       -4.695952    4.598182    0.006519
     49          1           0       -3.571844    4.317350    2.637466
     50          1           0       -1.590732    5.304924    1.639852
     51          1           0       -2.648482    5.315815    0.155597
     52          1           0       -1.555499    4.002519    0.496310
     53          1           0       -5.915355    3.825419    2.672821
     54          1           0       -6.820881    3.514327    1.202649
     55          1           0       -6.827414    5.771477    2.697503
     56          1           0       -7.461514    5.649004    1.112962
     57          1           0       -0.157726    2.353669    4.739638
     58          1           0        1.171980    1.146047    4.649884
     59          1           0        0.023329    1.068404    5.972228
     60          1           0        1.113653   -1.035885    6.598311
     61          1           0        2.036085   -0.781618    5.241215
     62          1           0        2.237445   -2.405226    5.898312
     63          1           0       -3.004659   -5.465530    2.325231
     64          1           0       -3.941473   -5.483196   -0.425209
     65          1           0       -1.582302   -5.691768   -0.203001
     66          1           0       -0.979304   -6.066020    1.439736
     67          1           0       -0.770575   -4.460904    0.693944
     68          1           0       -6.185570   -4.984819    1.523836
     69          1           0       -5.086383   -6.136601    2.108148
     70          1           0       -7.207361   -6.487046    0.339560
     71          1           0       -6.070178   -7.777710    0.883153
     72          1           0       -5.797748   -6.837087   -0.612218
     73          1           0       -7.647985   -3.084082   -2.733952
     74          1           0       -7.516954   -1.755982   -3.854100
     75          1           0       -8.745650   -1.711120   -2.583430
     76          1           0       -7.371428    3.043938   -0.813530
     77          1           0       -5.299728    5.524489   -3.638116
     78          1           0       -5.441849    6.482935   -2.186543
     79          1           0       -6.895770    6.283469   -3.269399
     80         12           0        3.698838   -0.648610   -1.095682
     81          6           0        5.218125    2.515235   -0.206736
     82          6           0        0.864548    0.879560   -0.833227
     83          6           0        2.505372   -3.671428   -1.644092
     84          6           0        6.876129   -2.323531   -0.539712
     85          7           0        3.140352    1.541701   -0.685294
     86          6           0        3.866931    2.663435   -0.343760
     87          6           0        2.958053    3.815116   -0.106182
     88          6           0        1.586324    3.144740    0.163228
     89          6           0        1.864527    1.749244   -0.443559
     90          6           0        1.215086    3.030317    1.658013
     91          6           0        2.859416    4.681877   -1.398439
     92          6           0        2.929837    6.245918   -1.202422
     93          1           0        3.308855    7.179183   -2.420365
     94          7           0        1.820469   -1.289892   -1.270274
     95          6           0        0.768286   -0.515894   -1.247316
     96          6           0       -0.393767   -1.322438   -1.569497
     97          6           0        0.141844   -2.585461   -1.915300
     98          6           0        1.540672   -2.550071   -1.584720
     99          6           0       -1.795426   -0.691788   -1.656899
    100          6           0       -0.623775   -3.760316   -2.457102
    101          8           0       -0.062840   -4.790675   -2.683105
    102          6           0       -2.067088   -3.592552   -2.804355
    103          7           0        4.592353   -2.781403   -0.799809
    104          6           0        3.839455   -3.770400   -1.276950
    105          6           0        4.619235   -5.013715   -1.487216
    106          6           0        6.009075   -4.582637   -0.920714
    107          6           0        5.864161   -3.098288   -0.712313
    108          6           0        4.032147   -6.355621   -0.919005
    109          6           0        7.175879   -4.991975   -1.901992
    110          6           0        8.102747   -6.186151   -1.541024
    111          7           0        5.585987   -0.137153   -0.526234
    112          6           0        6.797732   -0.854118   -0.409244
    113          6           0        7.890126    0.080599   -0.068609
    114          6           0        7.308980    1.340267   -0.010807
    115          6           0        5.950651    1.194128   -0.235937
    116          6           0        9.335068   -0.332749    0.302029
    117          6           0        7.649434    2.777550    0.240743
    118          8           0        8.681024    3.368907    0.455874
    119          6           0        6.258506    3.587026    0.293742
    120          6           0        6.332898    4.808557   -0.420218
    121          8           0        6.006314    4.894521   -1.612272
    122          8           0        6.833485    5.908517    0.269349
    123          6           0        6.749192    7.260011   -0.364546
    124          1           0       -0.150278    1.281101   -0.823062
    125          1           0        2.120953   -4.663645   -1.889021
    126          1           0        7.839360   -2.810007   -0.378516
    127          1           0        3.241228    4.327784    0.813475
    128          1           0        0.716584    3.615554   -0.294602
    129          1           0        0.291170    3.571352    1.864520
    130          1           0        2.038508    3.467001    2.222389
    131          1           0        1.111508    2.008533    2.024240
    132          1           0        1.886846    4.432832   -1.823316
    133          1           0        3.636203    4.308101   -2.065210
    134          1           0        3.604923    6.442060   -0.369864
    135          1           0        1.912145    6.481489   -0.888850
    136          1           0       -2.133344   -0.748228   -2.692472
    137          1           0       -1.886453    0.324596   -1.275324
    138          1           0       -2.523870   -1.326905   -1.153632
    139          1           0       -2.223235   -2.858563   -3.594476
    140          1           0       -2.713770   -3.178682   -2.030732
    141          1           0       -2.441114   -4.534587   -3.206102
    142          1           0        4.724394   -5.156487   -2.562705
    143          1           0        6.129517   -4.989584    0.083506
    144          1           0        3.037446   -6.116962   -0.543994
    145          1           0        4.642493   -6.905644   -0.201859
    146          1           0        3.950898   -7.067905   -1.740245
    147          1           0        7.855053   -4.146305   -2.013385
    148          1           0        6.714629   -4.991574   -2.889582
    149          1           0        8.231750   -6.830206   -2.410729
    150          1           0        7.674465   -6.737944   -0.704071
    151          1           0        9.095502   -5.831353   -1.261567
    152          1           0        9.578836   -1.228833   -0.267992
    153          1           0        9.359689   -0.642707    1.346998
    154          1           0       10.054097    0.461041    0.098235
    155          1           0        6.035284    3.797095    1.339342
    156          1           0        5.710887    7.556638   -0.519571
    157          1           0        7.445235    7.355640   -1.197036
    158          1           0        7.011594    7.979699    0.410783
 ---------------------------------------------------------------------

 SCF Done:  E(RCAM-B3LYP) =  -4069.78573243     A.U. after   19 cycles

 Excitation energies and oscillator strengths:

 Excited State   1:      Singlet-A      1.7170 eV  722.10 nm  f=0.0887  <S**2>=0.000
     309 -> 315       -0.15238
     311 -> 313        0.56045
     312 -> 314       -0.38456
 This state for optimization and/or second-order correction.
 Total Energy, E(TD-HF/TD-DFT) =  -4069.72263426
 Copying the excited state density for this state as the 1-particle RhoCI density.

 Excited State   2:      Singlet-A      1.7360 eV  714.20 nm  f=0.6740  <S**2>=0.000
     309 -> 315       -0.10800
     310 -> 317        0.13311
     311 -> 313        0.38038
     312 -> 314        0.56075

 Excited State   3:      Singlet-A      2.1588 eV  574.32 nm  f=0.1040  <S**2>=0.000
     309 -> 313       -0.20654
     310 -> 314        0.63284
     312 -> 317       -0.18597

 Excited State   4:      Singlet-A      2.2233 eV  557.67 nm  f=0.1557  <S**2>=0.000
     309 -> 313        0.58449
     310 -> 314        0.19852
     311 -> 314        0.14813
     311 -> 315        0.27474

 Excited State   5:      Singlet-A      2.2587 eV  548.93 nm  f=0.0092  <S**2>=0.000
     309 -> 313       -0.12073
     311 -> 314        0.68265

 The electronic state is 1-A.
 Alpha  occ. eigenvalues --  -46.90124 -46.89392 -19.24258 -19.24025 -19.20221
 Alpha  occ. eigenvalues --  -19.19638 -19.19581 -19.19375 -19.19292 -19.18563
 Alpha  occ. eigenvalues --  -14.43254 -14.42335 -14.41740 -14.40177 -14.40106
 Alpha  occ. eigenvalues --  -14.40103 -14.39786 -14.39713 -10.39274 -10.38552
 Alpha  occ. eigenvalues --  -10.36617 -10.35956 -10.35120 -10.35076 -10.32462
 Alpha  occ. eigenvalues --  -10.32407 -10.31691 -10.31456 -10.31305 -10.31124
 Alpha  occ. eigenvalues --  -10.30985 -10.30799 -10.30683 -10.30571 -10.30534
 Alpha  occ. eigenvalues --  -10.30362 -10.30000 -10.29993 -10.29775 -10.29536
 Alpha  occ. eigenvalues --  -10.29487 -10.29457 -10.29319 -10.29267 -10.29031
 Alpha  occ. eigenvalues --  -10.29020 -10.28889 -10.28803 -10.28697 -10.28677
 Alpha  occ. eigenvalues --  -10.28617 -10.28582 -10.28269 -10.28221 -10.28185
 Alpha  occ. eigenvalues --  -10.28099 -10.28093 -10.28070 -10.27942 -10.27921
 Alpha  occ. eigenvalues --  -10.27911 -10.27781 -10.27285 -10.27198 -10.27149
 Alpha  occ. eigenvalues --  -10.27099 -10.27073 -10.26941 -10.26767 -10.26762
 Alpha  occ. eigenvalues --  -10.26478 -10.26466 -10.26442 -10.26229 -10.26227
 Alpha  occ. eigenvalues --  -10.26154 -10.26056 -10.25911 -10.25880 -10.25707
 Alpha  occ. eigenvalues --  -10.25680 -10.25615 -10.25502 -10.25397 -10.25371
 Alpha  occ. eigenvalues --  -10.25065  -3.18520  -3.17915  -1.93444  -1.92957
 Alpha  occ. eigenvalues --   -1.92831  -1.92802  -1.92378  -1.92215  -1.16242
 Alpha  occ. eigenvalues --   -1.14229  -1.12196  -1.10853  -1.09886  -1.08921
 Alpha  occ. eigenvalues --   -1.07799  -1.06357  -1.06277  -1.05696  -1.05217
 Alpha  occ. eigenvalues --   -1.04912  -1.04844  -1.04208  -1.03260  -1.00940
 Alpha  occ. eigenvalues --   -0.94161  -0.91239  -0.89301  -0.89221  -0.88969
 Alpha  occ. eigenvalues --   -0.88820  -0.88209  -0.87946  -0.87699  -0.87651
 Alpha  occ. eigenvalues --   -0.87573  -0.87329  -0.86832  -0.85149  -0.84962
 Alpha  occ. eigenvalues --   -0.84326  -0.84013  -0.83032  -0.82837  -0.82128
 Alpha  occ. eigenvalues --   -0.82054  -0.81924  -0.81680  -0.80941  -0.80895
 Alpha  occ. eigenvalues --   -0.80357  -0.78991  -0.78658  -0.78046  -0.77732
 Alpha  occ. eigenvalues --   -0.77137  -0.76810  -0.76665  -0.76236  -0.75648
 Alpha  occ. eigenvalues --   -0.75357  -0.73224  -0.72747  -0.72613  -0.71069
 Alpha  occ. eigenvalues --   -0.69894  -0.69226  -0.69176  -0.68747  -0.68667
 Alpha  occ. eigenvalues --   -0.67892  -0.67355  -0.66525  -0.66109  -0.65896
 Alpha  occ. eigenvalues --   -0.65771  -0.65582  -0.65140  -0.64930  -0.64882
 Alpha  occ. eigenvalues --   -0.64178  -0.62406  -0.61381  -0.61087  -0.61033
 Alpha  occ. eigenvalues --   -0.60578  -0.60095  -0.59799  -0.59426  -0.59093
 Alpha  occ. eigenvalues --   -0.59029  -0.58260  -0.58028  -0.57555  -0.57155
 Alpha  occ. eigenvalues --   -0.56666  -0.56479  -0.56033  -0.55917  -0.55742
 Alpha  occ. eigenvalues --   -0.55487  -0.54803  -0.54502  -0.54000  -0.53941
 Alpha  occ. eigenvalues --   -0.53666  -0.53640  -0.53380  -0.53368  -0.52874
 Alpha  occ. eigenvalues --   -0.52759  -0.52616  -0.52548  -0.52437  -0.52267
 Alpha  occ. eigenvalues --   -0.52089  -0.51978  -0.51936  -0.51830  -0.51369
 Alpha  occ. eigenvalues --   -0.51281  -0.51065  -0.50545  -0.50357  -0.50245
 Alpha  occ. eigenvalues --   -0.50194  -0.50078  -0.49934  -0.49866  -0.49750
 Alpha  occ. eigenvalues --   -0.49641  -0.49614  -0.49465  -0.49217  -0.48895
 Alpha  occ. eigenvalues --   -0.48840  -0.48706  -0.48695  -0.48457  -0.48293
 Alpha  occ. eigenvalues --   -0.48200  -0.47871  -0.47817  -0.47660  -0.47528
 Alpha  occ. eigenvalues --   -0.47401  -0.47344  -0.47252  -0.47043  -0.46853
 Alpha  occ. eigenvalues --   -0.46444  -0.46331  -0.46200  -0.46088  -0.45729
 Alpha  occ. eigenvalues --   -0.45702  -0.45501  -0.45377  -0.45284  -0.44896
 Alpha  occ. eigenvalues --   -0.44843  -0.44836  -0.44748  -0.44511  -0.44486
 Alpha  occ. eigenvalues --   -0.44375  -0.44302  -0.44070  -0.44032  -0.43714
 Alpha  occ. eigenvalues --   -0.43426  -0.43378  -0.43309  -0.42983  -0.42960
 Alpha  occ. eigenvalues --   -0.42726  -0.42594  -0.42388  -0.42269  -0.42171
 Alpha  occ. eigenvalues --   -0.41846  -0.41744  -0.41596  -0.41542  -0.41335
 Alpha  occ. eigenvalues --   -0.41273  -0.40994  -0.40679  -0.40587  -0.40353
 Alpha  occ. eigenvalues --   -0.40213  -0.40184  -0.39950  -0.39880  -0.39825
 Alpha  occ. eigenvalues --   -0.38799  -0.38441  -0.38270  -0.38143  -0.37622
 Alpha  occ. eigenvalues --   -0.37388  -0.37191  -0.37042  -0.36675  -0.36493
 Alpha  occ. eigenvalues --   -0.36033  -0.35764  -0.35111  -0.34837  -0.33835
 Alpha  occ. eigenvalues --   -0.33543  -0.33077  -0.32555  -0.31883  -0.31789
 Alpha  occ. eigenvalues --   -0.31651  -0.31492  -0.31474  -0.31087  -0.30779
 Alpha  occ. eigenvalues --   -0.30694  -0.30663  -0.29641  -0.24517  -0.23478
 Alpha  occ. eigenvalues --   -0.21797  -0.21576
 Alpha virt. eigenvalues --   -0.09201  -0.09002  -0.02414  -0.00609  -0.00331
 Alpha virt. eigenvalues --    0.00939   0.01764   0.02233   0.02384   0.02671
 Alpha virt. eigenvalues --    0.04168   0.04498   0.04997   0.05055   0.05609

 Mulliken charges:
               1
     1  Mg  11.993554
     2  C    6.021468
     3  C    5.979407
     4  C    5.980807
     5  C    6.008318
     6  N    6.998451
     7  C    5.965759
     8  C    6.015445
     9  C    5.987266
    10  C    6.033856
    11  C    5.998837
    12  C    6.003744
    13  C    5.999671
    14  H    0.995936
    15  N    6.991458
    16  C    6.046917
    17  C    6.007362
    18  C    6.022243
    19  C    6.024161
    20  C    5.998212
    21  C    6.009892
    22  O    8.023336
    23  C    5.997896
    24  N    6.995049
    25  C    6.027133
    26  C    5.990793
    27  C    6.008154
    28  C    5.975317
    29  C    5.998721
    30  C    6.007269
    31  C    5.999030
    32  N    7.006132
    33  C    5.960751
    34  C    5.972726
    35  C    5.999393
    36  C    5.968701
    37  C    6.004883
    38  C    5.988314
    39  O    7.977533
    40  C    6.001024
    41  C    5.996438
    42  O    7.996500
    43  O    7.999277
    44  C    6.001155
    45  H    1.009708
    46  H    1.005649
    47  H    0.992024
    48  H    0.996912
    49  H    1.003734
    50  H    1.003008
    51  H    1.013817
    52  H    0.997463
    53  H    0.990171
    54  H    1.006401
    55  H    0.997190
    56  H    1.002859
    57  H    1.016306
    58  H    1.017228
    59  H    1.015305
    60  H    1.006616
    61  H    1.008062
    62  H    1.013742
    63  H    1.002005
    64  H    0.994806
    65  H    1.007718
    66  H    1.004001
    67  H    0.990758
    68  H    1.001806
    69  H    0.989865
    70  H    1.003183
    71  H    0.996407
    72  H    0.999941
    73  H    0.983994
    74  H    0.982393
    75  H    0.985882
    76  H    0.994142
    77  H    0.997547
    78  H    0.995265
    79  H    0.999022
    80  Mg  11.994867
    81  C    6.012582
    82  C    5.987885
    83  C    5.989435
    84  C    6.007580
    85  N    7.008118
    86  C    5.982429
    87  C    6.003416
    88  C    5.996432
    89  C    6.014685
    90  C    5.999226
    91  C    6.001514
    92  C    6.000719
    93  H    1.002012
    94  N    6.991929
    95  C    6.022052
    96  C    6.009960
    97  C    6.006831
    98  C    6.020279
    99  C    5.995998
   100  C    6.004741
   101  O    8.012126
   102  C    5.994027
   103  N    7.000364
   104  C    6.017231
   105  C    5.992688
   106  C    6.006347
   107  C    5.986597
   108  C    5.999699
   109  C    6.000592
   110  C    5.999694
   111  N    6.999510
   112  C    5.974758
   113  C    5.981833
   114  C    5.999969
   115  C    5.976972
   116  C    6.000266
   117  C    5.991897
   118  O    7.986386
   119  C    5.997231
   120  C    5.997826
   121  O    7.996062
   122  O    7.999787
   123  C    6.001400
   124  H    1.006033
   125  H    1.005204
   126  H    0.994469
   127  H    0.999542
   128  H    1.003749
   129  H    0.999961
   130  H    1.009383
   131  H    0.985726
   132  H    0.993458
   133  H    1.003787
   134  H    1.001368
   135  H    0.996031
   136  H    1.018218
   137  H    1.008941
   138  H    1.018268
   139  H    1.006658
   140  H    1.013336
   141  H    1.009406
   142  H    1.002705
   143  H    0.997448
   144  H    0.995327
   145  H    1.004938
   146  H    1.002932
   147  H    1.005083
   148  H    0.996601
   149  H    0.998386
   150  H    0.997259
   151  H    1.002060
   152  H    0.990112
   153  H    0.986246
   154  H    0.990832
   155  H    0.993287
   156  H    0.996702
   157  H    0.999668
   158  H    0.997709
 Sum of Mulliken charges = 624.00000

 Dipole moment (field-independent basis, Debye):
    X=              0.6753    Y=             -1.5415    Z=              4.9424  Tot=              5.2211
 Quadrupole moment (field-independent basis, Debye-Ang):
   XX=            -88.0876   YY=              0.2952   ZZ=             18.8405
   XY=             -8.6875   XZ=            -14.9276   YZ=              0.3494

 Normal termination of Gaussian 16 at Wed Sep 22 14:11:29 2021.
