 Gaussian 16, Revision A.03,
 Gaussian 16:  ES64L-G16RevA.03 25-Dec-2016

 -----------------------------------
 #p cam-b3lyp/Def2SVP td=(nstates=5)
 -----------------------------------

 --------------------------------
 TDDFT excited states in gaussian
 --------------------------------
 Symbolic Z-matrix:
 Charge =  0 Multiplicity = 1

                         Standard orientation:
 ---------------------------------------------------------------------
 Center     Atomic      Atomic             Coordinates (Angstroms)
 Number     Number       Type             X           Y           Z
 ---------------------------------------------------------------------
      1         12           0      -13.823402   -0.502268    0.321527
      2          6           0      -13.603224    2.729058   -0.985778
      3          6           0      -12.174349    0.727088    3.161199
      4          6           0      -13.454145   -3.621241    1.476793
      5          6           0      -14.451358   -1.676999   -2.851638
      6          7           0      -13.050018    1.570210    1.093624
      7          6           0      -13.057329    2.669158    0.293193
      8          6           0      -12.388482    3.896257    1.030541
      9          6           0      -11.702503    3.145742    2.280853
     10          6           0      -12.283887    1.725721    2.177159
     11          6           0      -10.162877    3.059481    1.985708
     12          6           0      -13.548693    4.844726    1.508412
     13          6           0      -13.158098    6.068077    2.381716
     14          1           0      -13.817468    6.588756    3.624084
     15          7           0      -13.126380   -1.271012    2.137734
     16          6           0      -12.510818   -0.628884    3.225138
     17          6           0      -12.200670   -1.606665    4.181524
     18          6           0      -12.728048   -2.833451    3.801110
     19          6           0      -13.141842   -2.610290    2.425630
     20          6           0      -11.577669   -1.214468    5.481156
     21          6           0      -12.733927   -4.216921    4.531289
     22          8           0      -13.251130   -5.238771    4.092811
     23          6           0      -12.270546   -4.371953    5.982351
     24          7           0      -13.826116   -2.356522   -0.608348
     25          6           0      -13.794449   -3.492732    0.123269
     26          6           0      -14.171826   -4.754300   -0.677608
     27          6           0      -14.354131   -4.149470   -2.097365
     28          6           0      -14.330794   -2.650018   -1.860941
     29          6           0      -13.192397   -5.960329   -0.490970
     30          6           0      -15.578158   -4.631279   -2.923446
     31          6           0      -16.888427   -4.094780   -2.528797
     32          7           0      -14.094970    0.309804   -1.543350
     33          6           0      -14.337126   -0.253105   -2.704422
     34          6           0      -14.576056    0.740080   -3.756623
     35          6           0      -14.286022    1.955896   -3.058801
     36          6           0      -13.966642    1.649464   -1.750467
     37          6           0      -15.322911    0.600941   -4.999975
     38          6           0      -14.246290    3.397146   -3.234416
     39          8           0      -14.565814    4.086724   -4.176142
     40          6           0      -13.724540    3.921179   -1.890992
     41          6           0      -12.449808    4.754022   -2.062307
     42          8           0      -11.352630    4.289050   -2.231263
     43          8           0      -12.776394    6.089072   -2.067370
     44          6           0      -11.590131    6.962479   -2.220741
     45          1           0      -11.780441    1.145940    4.088638
     46          1           0      -13.552422   -4.632683    1.877167
     47          1           0      -14.780194   -2.284766   -3.696386
     48          1           0      -11.614480    4.374116    0.429442
     49          1           0      -11.875869    3.620974    3.247163
     50          1           0       -9.776689    2.083328    1.694060
     51          1           0       -9.575934    3.145029    2.900521
     52          1           0       -9.814508    3.774393    1.240570
     53          1           0      -14.274357    4.225225    2.034719
     54          1           0      -14.079896    5.169458    0.613311
     55          1           0      -13.052698    6.877459    1.658698
     56          1           0      -12.182945    5.744818    2.743867
     57          1           0      -11.332429   -0.157462    5.587987
     58          1           0      -10.762675   -1.910843    5.683200
     59          1           0      -12.365990   -1.406782    6.209457
     60          1           0      -11.201544   -4.210813    6.121957
     61          1           0      -12.590256   -5.295168    6.465896
     62          1           0      -12.823375   -3.629462    6.558145
     63          1           0      -15.117075   -4.957214   -0.174962
     64          1           0      -13.424804   -4.398406   -2.609700
     65          1           0      -12.729927   -5.938492    0.495260
     66          1           0      -12.401791   -5.898917   -1.239276
     67          1           0      -13.693792   -6.925969   -0.559325
     68          1           0      -15.542012   -5.706165   -2.749015
     69          1           0      -15.379960   -4.495064   -3.986760
     70          1           0      -17.033785   -3.117759   -2.989396
     71          1           0      -16.991018   -4.067540   -1.444152
     72          1           0      -17.709268   -4.691431   -2.927809
     73          1           0      -16.005535   -0.229964   -4.820305
     74          1           0      -14.809229    0.290102   -5.909843
     75          1           0      -15.819135    1.555826   -5.170090
     76          1           0      -14.511320    4.531890   -1.446925
     77          1           0      -11.880319    7.834772   -2.806097
     78          1           0      -10.788253    6.577153   -2.850871
     79          1           0      -11.246144    7.327137   -1.253403
     80         12           0       12.984445   -0.939563   -0.310205
     81          6           0       15.388788    1.781773    0.190653
     82          6           0       10.482918    1.470613    0.147344
     83          6           0       10.791863   -3.350749   -0.389901
     84          6           0       15.591871   -3.085905   -0.907259
     85          7           0       12.941755    1.284850    0.317306
     86          6           0       14.035989    2.247537    0.345378
     87          6           0       13.589126    3.689164    0.669788
     88          6           0       11.981080    3.433738    0.841393
     89          6           0       11.738777    1.968145    0.430429
     90          6           0       11.454745    3.757018    2.226229
     91          6           0       14.044915    4.670902   -0.451805
     92          6           0       13.421958    6.033689   -0.404682
     93          1           0       14.281024    7.260008   -0.618730
     94          7           0       10.888110   -0.975975   -0.122217
     95          6           0       10.026808    0.113094    0.052924
     96          6           0        8.641254   -0.352464    0.066376
     97          6           0        8.699967   -1.796713   -0.099853
     98          6           0       10.165577   -2.138831   -0.218375
     99          6           0        7.377341    0.580174    0.145113
    100          6           0        7.631788   -2.830104   -0.109031
    101          8           0        7.814358   -4.026411   -0.291424
    102          6           0        6.218233   -2.430134   -0.007757
    103          7           0       13.145405   -2.861807   -0.687154
    104          6           0       12.121147   -3.705532   -0.548145
    105          6           0       12.517755   -5.176165   -0.816958
    106          6           0       13.904612   -4.999953   -1.399724
    107          6           0       14.296492   -3.550526   -0.914728
    108          6           0       12.502534   -6.042795    0.436937
    109          6           0       14.201649   -5.157416   -2.868533
    110          6           0       13.503143   -4.150075   -3.756722
    111          7           0       15.059732   -0.770042   -0.263321
    112          6           0       15.997579   -1.748609   -0.639225
    113          6           0       17.322165   -1.186616   -0.541802
    114          6           0       17.056556    0.185134   -0.296208
    115          6           0       15.676806    0.401488   -0.118099
    116          6           0       18.640495   -1.835046   -0.848545
    117          6           0       17.775392    1.491620   -0.180114
    118          8           0       18.973791    1.786637   -0.375935
    119          6           0       16.703855    2.522615    0.167429
    120          6           0       17.073446    3.245108    1.464625
    121          8           0       17.190692    2.799442    2.644250
    122          8           0       17.128255    4.576165    1.173688
    123          6           0       17.392238    5.474231    2.320704
    124          1           0        9.717132    2.245484    0.086923
    125          1           0       10.082484   -4.180215   -0.356369
    126          1           0       16.470816   -3.715641   -1.060792
    127          1           0       14.151686    3.964846    1.561719
    128          1           0       11.452951    3.989654    0.066681
    129          1           0       10.679615    4.518103    2.132182
    130          1           0       12.295427    4.167842    2.784187
    131          1           0       11.236242    2.921262    2.890610
    132          1           0       13.917547    4.123192   -1.386201
    133          1           0       15.124135    4.804082   -0.375664
    134          1           0       12.940069    6.325707    0.528098
    135          1           0       12.708488    6.128208   -1.222791
    136          1           0        6.850328    0.408593   -0.793905
    137          1           0        7.623120    1.639421    0.218994
    138          1           0        6.806151    0.242185    1.009848
    139          1           0        6.028615   -1.667601    0.747964
    140          1           0        5.712689   -3.354161    0.270569
    141          1           0        6.024336   -1.927780   -0.954974
    142          1           0       11.788150   -5.578111   -1.520054
    143          1           0       14.617051   -5.713327   -0.984487
    144          1           0       12.082730   -7.014379    0.178949
    145          1           0       11.887629   -5.596795    1.217924
    146          1           0       13.521942   -6.283202    0.740925
    147          1           0       13.996847   -6.193063   -3.141202
    148          1           0       15.244929   -4.925903   -3.082530
    149          1           0       13.047371   -4.619958   -4.627490
    150          1           0       14.188565   -3.416967   -4.182575
    151          1           0       12.698745   -3.600788   -3.267349
    152          1           0       19.198090   -1.214854   -1.549936
    153          1           0       18.683313   -2.844420   -1.257657
    154          1           0       19.193978   -1.881150    0.089575
    155          1           0       16.715502    3.294632   -0.602486
    156          1           0       16.458341    5.922083    2.659725
    157          1           0       18.118833    6.135134    1.848064
    158          1           0       17.944339    4.978303    3.120071
 ---------------------------------------------------------------------

 SCF Done:  E(RCAM-B3LYP) =  -4069.83442712     A.U. after   19 cycles

 Excitation energies and oscillator strengths:

 Excited State   1:      Singlet-A      1.6630 eV  745.56 nm  f=0.4048  <S**2>=0.000
     309 -> 315        0.16581
     311 -> 313        0.68879
     309 <- 315        0.10534
 This state for optimization and/or second-order correction.
 Total Energy, E(TD-HF/TD-DFT) =  -4069.77331427
 Copying the excited state density for this state as the 1-particle RhoCI density.

 Excited State   2:      Singlet-A      1.7451 eV  710.46 nm  f=0.3873  <S**2>=0.000
     310 -> 316       -0.18612
     312 -> 314        0.68377
     310 <- 316       -0.10700

 Excited State   3:      Singlet-A      2.1713 eV  571.01 nm  f=0.1354  <S**2>=0.000
     309 -> 313        0.65260
     311 -> 315       -0.25469

 Excited State   4:      Singlet-A      2.2616 eV  548.21 nm  f=0.1158  <S**2>=0.000
     310 -> 314        0.64503
     312 -> 316        0.27676

 Excited State   5:      Singlet-A      2.8591 eV  433.65 nm  f=0.0000  <S**2>=0.000
     312 -> 313        0.70706

 The electronic state is 1-A.
 Alpha  occ. eigenvalues --  -46.88776 -46.87771 -19.25870 -19.25775 -19.20498
 Alpha  occ. eigenvalues --  -19.19649 -19.19496 -19.18906 -19.18778 -19.18482
 Alpha  occ. eigenvalues --  -14.42514 -14.42316 -14.42179 -14.41129 -14.39972
 Alpha  occ. eigenvalues --  -14.39215 -14.39208 -14.38877 -10.39970 -10.39863
 Alpha  occ. eigenvalues --  -10.36230 -10.34751 -10.34664 -10.34582 -10.31989
 Alpha  occ. eigenvalues --  -10.31927 -10.31904 -10.31516 -10.31386 -10.31150
 Alpha  occ. eigenvalues --  -10.31108 -10.30706 -10.30698 -10.30648 -10.30630
 Alpha  occ. eigenvalues --  -10.30484 -10.30427 -10.30028 -10.29720 -10.29686
 Alpha  occ. eigenvalues --  -10.29278 -10.28980 -10.28970 -10.28894 -10.28837
 Alpha  occ. eigenvalues --  -10.28777 -10.28758 -10.28668 -10.28637 -10.28614
 Alpha  occ. eigenvalues --  -10.28605 -10.28463 -10.28266 -10.28037 -10.27809
 Alpha  occ. eigenvalues --  -10.27706 -10.27669 -10.27567 -10.27548 -10.27523
 Alpha  occ. eigenvalues --  -10.27493 -10.27399 -10.27345 -10.27170 -10.27105
 Alpha  occ. eigenvalues --  -10.27036 -10.27022 -10.26982 -10.26853 -10.26411
 Alpha  occ. eigenvalues --  -10.26305 -10.26249 -10.26058 -10.26049 -10.25927
 Alpha  occ. eigenvalues --  -10.25908 -10.25839 -10.25747 -10.25735 -10.25644
 Alpha  occ. eigenvalues --  -10.25355 -10.25339 -10.25184 -10.24719 -10.24570
 Alpha  occ. eigenvalues --  -10.24366  -3.17339  -3.16511  -1.92226  -1.91808
 Alpha  occ. eigenvalues --   -1.91627  -1.91416  -1.90977  -1.90813  -1.16917
 Alpha  occ. eigenvalues --   -1.16017  -1.10460  -1.10398  -1.10372  -1.08854
 Alpha  occ. eigenvalues --   -1.07818  -1.05779  -1.05065  -1.05041  -1.03855
 Alpha  occ. eigenvalues --   -1.03416  -1.02839  -1.02510  -1.02285  -1.00622
 Alpha  occ. eigenvalues --   -0.93895  -0.92321  -0.89707  -0.89497  -0.88875
 Alpha  occ. eigenvalues --   -0.88714  -0.88632  -0.88326  -0.87555  -0.87338
 Alpha  occ. eigenvalues --   -0.87289  -0.87016  -0.86268  -0.85896  -0.84787
 Alpha  occ. eigenvalues --   -0.84140  -0.84067  -0.83693  -0.82957  -0.82479
 Alpha  occ. eigenvalues --   -0.82315  -0.81606  -0.81437  -0.80996  -0.80483
 Alpha  occ. eigenvalues --   -0.80092  -0.78581  -0.78537  -0.77665  -0.77287
 Alpha  occ. eigenvalues --   -0.76828  -0.76657  -0.76226  -0.75983  -0.75514
 Alpha  occ. eigenvalues --   -0.74937  -0.72778  -0.72552  -0.71969  -0.71870
 Alpha  occ. eigenvalues --   -0.70312  -0.70116  -0.69463  -0.69236  -0.68430
 Alpha  occ. eigenvalues --   -0.67651  -0.67158  -0.67075  -0.65446  -0.65079
 Alpha  occ. eigenvalues --   -0.64901  -0.64678  -0.64510  -0.64344  -0.64079
 Alpha  occ. eigenvalues --   -0.63839  -0.62567  -0.61957  -0.60244  -0.60138
 Alpha  occ. eigenvalues --   -0.59519  -0.59451  -0.59178  -0.59098  -0.58712
 Alpha  occ. eigenvalues --   -0.58340  -0.58316  -0.57736  -0.57417  -0.57417
 Alpha  occ. eigenvalues --   -0.56621  -0.56297  -0.56007  -0.55805  -0.55574
 Alpha  occ. eigenvalues --   -0.55499  -0.55315  -0.55301  -0.54822  -0.54679
 Alpha  occ. eigenvalues --   -0.54307  -0.54092  -0.53477  -0.53316  -0.53215
 Alpha  occ. eigenvalues --   -0.53090  -0.52753  -0.52744  -0.52612  -0.52511
 Alpha  occ. eigenvalues --   -0.52166  -0.52146  -0.51206  -0.51163  -0.51094
 Alpha  occ. eigenvalues --   -0.50850  -0.50749  -0.50668  -0.50403  -0.50351
 Alpha  occ. eigenvalues --   -0.50202  -0.49993  -0.49810  -0.49692  -0.49537
 Alpha  occ. eigenvalues --   -0.49520  -0.49293  -0.49044  -0.48896  -0.48858
 Alpha  occ. eigenvalues --   -0.48827  -0.48562  -0.48560  -0.48464  -0.48096
 Alpha  occ. eigenvalues --   -0.47974  -0.47734  -0.47582  -0.47576  -0.47164
 Alpha  occ. eigenvalues --   -0.47037  -0.46773  -0.46731  -0.46537  -0.46189
 Alpha  occ. eigenvalues --   -0.46169  -0.46069  -0.46018  -0.45807  -0.45719
 Alpha  occ. eigenvalues --   -0.45456  -0.45438  -0.45143  -0.45045  -0.44958
 Alpha  occ. eigenvalues --   -0.44804  -0.44550  -0.44498  -0.44371  -0.44282
 Alpha  occ. eigenvalues --   -0.44196  -0.44151  -0.43991  -0.43921  -0.43735
 Alpha  occ. eigenvalues --   -0.43504  -0.43408  -0.43314  -0.43199  -0.42980
 Alpha  occ. eigenvalues --   -0.42655  -0.42651  -0.42521  -0.42476  -0.42455
 Alpha  occ. eigenvalues --   -0.42217  -0.41914  -0.41865  -0.41771  -0.41724
 Alpha  occ. eigenvalues --   -0.41221  -0.40971  -0.40840  -0.40476  -0.40333
 Alpha  occ. eigenvalues --   -0.39970  -0.39672  -0.39247  -0.39120  -0.38908
 Alpha  occ. eigenvalues --   -0.38902  -0.38555  -0.37922  -0.37819  -0.37410
 Alpha  occ. eigenvalues --   -0.37348  -0.37144  -0.36786  -0.36784  -0.36538
 Alpha  occ. eigenvalues --   -0.36428  -0.36128  -0.35009  -0.34339  -0.34321
 Alpha  occ. eigenvalues --   -0.34114  -0.33232  -0.33085  -0.31529  -0.31509
 Alpha  occ. eigenvalues --   -0.31284  -0.31155  -0.30879  -0.30416  -0.30333
 Alpha  occ. eigenvalues --   -0.30121  -0.29251  -0.29189  -0.24266  -0.23861
 Alpha  occ. eigenvalues --   -0.21493  -0.21144
 Alpha virt. eigenvalues --   -0.09309  -0.08453  -0.01677  -0.01399   0.00315
 Alpha virt. eigenvalues --    0.00367   0.01832   0.02174   0.02490   0.03355
 Alpha virt. eigenvalues --    0.04492   0.05070   0.05143   0.05466   0.05719

 Mulliken charges:
               1
     1  Mg   0.838669
     2  C    0.003042
     3  C   -0.061171
     4  C   -0.104729
     5  C   -0.054744
     6  N   -0.218639
     7  C   -0.092794
     8  C   -0.042383
     9  C   -0.061280
    10  C    0.010985
    11  C    0.050464
    12  C    0.024642
    13  C   -0.040703
    14  H    0.041720
    15  N   -0.391197
    16  C    0.155201
    17  C   -0.142682
    18  C   -0.042323
    19  C    0.127182
    20  C    0.119212
    21  C    0.040016
    22  O   -0.203465
    23  C    0.039517
    24  N   -0.333302
    25  C    0.048215
    26  C   -0.057755
    27  C    0.015391
    28  C   -0.039394
    29  C    0.082130
    30  C    0.031335
    31  C    0.039645
    32  N   -0.320467
    33  C    0.146476
    34  C   -0.155202
    35  C   -0.024251
    36  C    0.123349
    37  C    0.118373
    38  C    0.036014
    39  O   -0.149036
    40  C   -0.004677
    41  C    0.202113
    42  O   -0.198583
    43  O   -0.329827
    44  C    0.164313
    45  H   -0.038411
    46  H   -0.000390
    47  H   -0.043625
    48  H    0.024881
    49  H    0.023776
    50  H    0.021337
    51  H    0.003386
    52  H    0.029110
    53  H    0.011375
    54  H    0.008556
    55  H    0.027335
    56  H    0.016090
    57  H    0.020554
    58  H    0.026073
    59  H    0.028382
    60  H    0.036664
    61  H    0.028351
    62  H    0.021142
    63  H    0.014733
    64  H    0.015000
    65  H    0.028222
    66  H    0.010032
    67  H    0.017556
    68  H   -0.003699
    69  H    0.009912
    70  H    0.011538
    71  H    0.012343
    72  H    0.011389
    73  H    0.009348
    74  H    0.018034
    75  H    0.040707
    76  H    0.048909
    77  H    0.031902
    78  H    0.051938
    79  H    0.038151
    80  Mg   0.833782
    81  C   -0.021287
    82  C   -0.080175
    83  C   -0.082725
    84  C   -0.070283
    85  N   -0.301403
    86  C   -0.047361
    87  C   -0.021599
    88  C   -0.058511
    89  C    0.064031
    90  C    0.100757
    91  C    0.032554
    92  C   -0.071176
    93  H    0.011809
    94  N   -0.386360
    95  C    0.146999
    96  C   -0.156178
    97  C   -0.010687
    98  C    0.125014
    99  C    0.113809
   100  C   -0.027353
   101  O   -0.211660
   102  C    0.063992
   103  N   -0.345396
   104  C    0.087663
   105  C   -0.030086
   106  C   -0.026321
   107  C    0.096029
   108  C    0.087954
   109  C    0.059794
   110  C   -0.013242
   111  N   -0.360289
   112  C    0.064921
   113  C   -0.139139
   114  C   -0.053525
   115  C    0.135981
   116  C    0.107474
   117  C    0.083462
   118  O   -0.200387
   119  C    0.008593
   120  C    0.216113
   121  O   -0.257681
   122  O   -0.336348
   123  C    0.163768
   124  H   -0.033254
   125  H   -0.005302
   126  H   -0.025193
   127  H    0.025781
   128  H    0.008774
   129  H    0.023423
   130  H    0.000205
   131  H    0.025490
   132  H    0.009633
   133  H    0.036929
   134  H    0.030315
   135  H    0.032748
   136  H    0.039282
   137  H    0.020263
   138  H    0.045653
   139  H    0.005712
   140  H    0.040857
   141  H    0.037863
   142  H    0.013812
   143  H   -0.013283
   144  H    0.012835
   145  H    0.026479
   146  H    0.015523
   147  H    0.009207
   148  H    0.004010
   149  H    0.005257
   150  H    0.012509
   151  H    0.021970
   152  H    0.039133
   153  H    0.005129
   154  H    0.032593
   155  H    0.049818
   156  H    0.048496
   157  H    0.042688
   158  H    0.059317
 Sum of Mulliken charges =  -0.00000

 Dipole moment (field-independent basis, Debye):
    X=             -4.2128    Y=              1.5323    Z=              2.9456  Tot=              5.3640
 Quadrupole moment (field-independent basis, Debye-Ang):
   XX=           -673.7321   YY=           -483.1363   ZZ=           -509.4301
   XY=             15.2106   XZ=            -62.9814   YZ=             36.2877

 Normal termination of Gaussian 16 at Tue Aug 31 20:27:53 2021.
