 Gaussian 16, Revision A.03,
 Gaussian 16:  ES64L-G16RevA.03 25-Dec-2016

 -----------------------------------
 #p cam-b3lyp/Def2SVP td=(nstates=5)
 -----------------------------------

 --------------------------------
 TDDFT excited states in gaussian
 --------------------------------
 Symbolic Z-matrix:
 Charge =  0 Multiplicity = 1

                         Standard orientation:
 ---------------------------------------------------------------------
 Center     Atomic      Atomic             Coordinates (Angstroms)
 Number     Number       Type             X           Y           Z
 ---------------------------------------------------------------------
      1         12           0      -20.141144   -0.190721   -0.528403
      2          6           0      -17.573149   -0.796352    1.632214
      3          6           0      -20.290253    3.119881    0.709175
      4          6           0      -22.812709    0.379202   -2.465195
      5          6           0      -19.859121   -3.407898   -1.698450
      6          7           0      -19.290091    0.931324    1.190987
      7          6           0      -18.147822    0.481847    1.865711
      8          6           0      -17.613468    1.539396    2.872692
      9          6           0      -18.585073    2.702769    2.539909
     10          6           0      -19.512419    2.217099    1.440599
     11          6           0      -19.416173    3.442185    3.673291
     12          6           0      -16.083963    1.957241    2.729269
     13          6           0      -15.679336    3.042491    3.762706
     14          1           0      -14.772810    2.510518    4.873590
     15          7           0      -21.372476    1.576267   -0.870099
     16          6           0      -21.092346    2.852851   -0.432388
     17          6           0      -22.174788    3.689592   -0.936952
     18          6           0      -22.909022    2.873896   -1.856890
     19          6           0      -22.376865    1.549127   -1.793191
     20          6           0      -22.282847    5.112656   -0.544742
     21          6           0      -24.175322    3.382833   -2.630229
     22          8           0      -24.944949    2.633631   -3.265287
     23          6           0      -24.560482    4.837879   -2.567130
     24          7           0      -21.148234   -1.291358   -1.792508
     25          6           0      -22.287433   -0.853136   -2.524606
     26          6           0      -22.993554   -2.020423   -3.176315
     27          6           0      -21.826060   -2.997849   -3.297902
     28          6           0      -20.833266   -2.538795   -2.239437
     29          6           0      -24.172054   -2.582351   -2.312240
     30          6           0      -21.124382   -2.923727   -4.672471
     31          6           0      -21.682462   -3.739803   -5.807395
     32          7           0      -19.013283   -1.875350   -0.153603
     33          6           0      -18.885987   -3.053464   -0.785220
     34          6           0      -17.877715   -3.835782   -0.133140
     35          6           0      -17.309929   -3.004657    0.809025
     36          6           0      -18.010007   -1.790493    0.733915
     37          6           0      -17.534290   -5.219451   -0.562627
     38          6           0      -16.307067   -2.942250    1.784689
     39          8           0      -15.466916   -3.748638    2.134350
     40          6           0      -16.431607   -1.462679    2.382100
     41          6           0      -16.645938   -1.579542    3.849626
     42          8           0      -17.617708   -2.022475    4.411991
     43          8           0      -15.663043   -0.983358    4.531065
     44          6           0      -15.792860   -0.987296    6.039174
     45          1           0      -20.171760    4.158054    1.025912
     46          1           0      -23.678927    0.552077   -3.106997
     47          1           0      -19.624135   -4.394364   -2.102693
     48          1           0      -17.799832    1.177190    3.883770
     49          1           0      -18.031907    3.510180    2.059188
     50          1           0      -19.556393    4.516032    3.546805
     51          1           0      -19.060362    3.129426    4.655125
     52          1           0      -20.428095    3.056373    3.550476
     53          1           0      -16.003304    2.256545    1.684996
     54          1           0      -15.473463    1.065041    2.867841
     55          1           0      -16.567423    3.560600    4.124601
     56          1           0      -15.078350    3.773029    3.221996
     57          1           0      -23.168680    5.220257    0.081508
     58          1           0      -22.231272    5.680234   -1.473892
     59          1           0      -21.401026    5.428453    0.012907
     60          1           0      -25.423062    5.020935   -3.207876
     61          1           0      -23.731490    5.347345   -3.060288
     62          1           0      -24.723007    5.265239   -1.578008
     63          1           0      -23.407827   -1.739509   -4.144991
     64          1           0      -22.104775   -4.032451   -3.098911
     65          1           0      -23.798572   -3.148766   -1.460023
     66          1           0      -24.828284   -3.201468   -2.924501
     67          1           0      -24.730077   -1.706147   -1.983967
     68          1           0      -20.057826   -3.137711   -4.616258
     69          1           0      -21.082518   -1.885599   -5.002371
     70          1           0      -21.950439   -3.034823   -6.593828
     71          1           0      -22.634401   -4.091817   -5.409604
     72          1           0      -21.047238   -4.565725   -6.127875
     73          1           0      -16.667062   -5.207187   -1.221683
     74          1           0      -18.332052   -5.857742   -0.943685
     75          1           0      -17.199282   -5.720480    0.345746
     76          1           0      -15.498426   -0.935132    2.183363
     77          1           0      -16.790466   -0.614651    6.272633
     78          1           0      -15.088376   -0.317666    6.533224
     79          1           0      -15.664791   -2.014899    6.380077
     80         12           0       20.211344   -0.457486    0.084717
     81          6           0       18.289477    2.480527    0.056667
     82          6           0       17.658686   -2.003579    1.708252
     83          6           0       21.923108   -3.209550   -0.353918
     84          6           0       22.287823    1.220935   -2.331384
     85          7           0       18.270071    0.204692    0.836621
     86          6           0       17.675629    1.427596    0.702531
     87          6           0       16.196982    1.287902    1.094240
     88          6           0       16.240705    0.114522    2.066844
     89          6           0       17.414681   -0.652513    1.428583
     90          6           0       16.559297    0.546198    3.516944
     91          6           0       15.295432    0.992277   -0.161023
     92          6           0       14.234185    2.108797   -0.619643
     93          1           0       14.362835    2.731425   -2.020305
     94          7           0       19.819975   -2.356648    0.552485
     95          6           0       18.718766   -2.802181    1.246856
     96          6           0       18.911843   -4.186389    1.547068
     97          6           0       20.204498   -4.594112    1.078467
     98          6           0       20.727698   -3.384631    0.379542
     99          6           0       17.856398   -5.056434    2.311898
    100          6           0       20.843728   -6.009464    1.320855
    101          8           0       20.288479   -6.805173    2.014140
    102          6           0       22.230630   -6.217836    0.922870
    103          7           0       21.690178   -1.016865   -1.413695
    104          6           0       22.425533   -2.094917   -1.051696
    105          6           0       23.864182   -2.028831   -1.536308
    106          6           0       23.862795   -0.821996   -2.462142
    107          6           0       22.510361   -0.138248   -2.058592
    108          6           0       24.900936   -1.876501   -0.362510
    109          6           0       23.987687   -1.038945   -4.043435
    110          6           0       25.241257   -0.689558   -4.799785
    111          7           0       20.429943    1.476036   -0.781085
    112          6           0       21.305312    2.012031   -1.734343
    113          6           0       20.960317    3.376936   -2.068457
    114          6           0       19.802709    3.599580   -1.364078
    115          6           0       19.471143    2.431005   -0.602304
    116          6           0       21.682669    4.232827   -3.023743
    117          6           0       18.773177    4.590694   -1.091214
    118          8           0       18.698652    5.770729   -1.455494
    119          6           0       17.828349    3.956334   -0.092364
    120          6           0       17.882801    4.797024    1.178589
    121          8           0       18.943135    4.970046    1.775194
    122          8           0       16.647208    5.405122    1.449646
    123          6           0       16.636266    6.242672    2.619135
    124          1           0       16.892504   -2.423829    2.362607
    125          1           0       22.604059   -4.047940   -0.199370
    126          1           0       22.985850    1.756892   -2.978202
    127          1           0       15.875094    2.265832    1.453084
    128          1           0       15.282334   -0.400786    2.016533
    129          1           0       15.749776    0.021363    4.023013
    130          1           0       16.448136    1.630867    3.511791
    131          1           0       17.540026    0.274748    3.907750
    132          1           0       14.695911    0.112813    0.073643
    133          1           0       15.953880    0.695965   -0.977184
    134          1           0       14.389537    2.946387    0.060785
    135          1           0       13.190552    1.820282   -0.500201
    136          1           0       17.574338   -6.015908    1.879466
    137          1           0       16.961090   -4.437403    2.378122
    138          1           0       18.158357   -5.280575    3.335130
    139          1           0       22.424560   -6.052263   -0.137106
    140          1           0       22.510154   -7.240262    1.176919
    141          1           0       22.897959   -5.675925    1.591620
    142          1           0       24.180472   -2.944826   -2.036439
    143          1           0       24.641562   -0.118808   -2.166883
    144          1           0       25.368124   -2.818133   -0.074633
    145          1           0       24.443200   -1.324111    0.458113
    146          1           0       25.706079   -1.239065   -0.730728
    147          1           0       23.146773   -0.742383   -4.669419
    148          1           0       23.933029   -2.126987   -3.998877
    149          1           0       25.757071   -1.556841   -5.210707
    150          1           0       25.941429   -0.186550   -4.132382
    151          1           0       24.901060   -0.018218   -5.587911
    152          1           0       22.192947    3.580459   -3.732878
    153          1           0       22.443929    4.746199   -2.435662
    154          1           0       21.022230    4.971123   -3.476233
    155          1           0       16.860335    4.078597   -0.576378
    156          1           0       16.596364    5.701520    3.564850
    157          1           0       15.786675    6.924939    2.615166
    158          1           0       17.493872    6.909719    2.702364
 ---------------------------------------------------------------------

 SCF Done:  E(RCAM-B3LYP) =  -4069.83841121     A.U. after   18 cycles

 Excitation energies and oscillator strengths:

 Excited State   1:      Singlet-A      1.6534 eV  749.87 nm  f=0.3865  <S**2>=0.000
     309 -> 316        0.16012
     311 -> 313        0.69078
     309 <- 316        0.10388
 This state for optimization and/or second-order correction.
 Total Energy, E(TD-HF/TD-DFT) =  -4069.77764929
 Copying the excited state density for this state as the 1-particle RhoCI density.

 Excited State   2:      Singlet-A      1.7237 eV  719.29 nm  f=0.3659  <S**2>=0.000
     310 -> 315       -0.19172
     312 -> 314        0.68302
     310 <- 315       -0.11116

 Excited State   3:      Singlet-A      2.2510 eV  550.79 nm  f=0.1082  <S**2>=0.000
     309 -> 313        0.63838
     311 -> 316       -0.28835

 Excited State   4:      Singlet-A      2.2830 eV  543.07 nm  f=0.0524  <S**2>=0.000
     310 -> 314        0.60481
     312 -> 315        0.35603

 Excited State   5:      Singlet-A      3.0098 eV  411.94 nm  f=0.0000  <S**2>=0.000
     312 -> 313        0.70710

 The electronic state is 1-A.
 Alpha  occ. eigenvalues --  -46.88701 -46.87517 -19.26043 -19.24932 -19.20597
 Alpha  occ. eigenvalues --  -19.19391 -19.19104 -19.18777 -19.18755 -19.18567
 Alpha  occ. eigenvalues --  -14.42735 -14.42151 -14.42093 -14.41755 -14.39398
 Alpha  occ. eigenvalues --  -14.39363 -14.38880 -14.38865 -10.40267 -10.38543
 Alpha  occ. eigenvalues --  -10.35227 -10.35067 -10.34955 -10.34582 -10.32308
 Alpha  occ. eigenvalues --  -10.32069 -10.31526 -10.31372 -10.31149 -10.31142
 Alpha  occ. eigenvalues --  -10.30849 -10.30671 -10.30579 -10.30565 -10.30025
 Alpha  occ. eigenvalues --  -10.29807 -10.29576 -10.29553 -10.29487 -10.29309
 Alpha  occ. eigenvalues --  -10.29282 -10.29007 -10.28996 -10.28629 -10.28616
 Alpha  occ. eigenvalues --  -10.28495 -10.28427 -10.28176 -10.28111 -10.28091
 Alpha  occ. eigenvalues --  -10.28073 -10.27903 -10.27890 -10.27832 -10.27830
 Alpha  occ. eigenvalues --  -10.27802 -10.27772 -10.27558 -10.27470 -10.27384
 Alpha  occ. eigenvalues --  -10.27382 -10.27270 -10.27132 -10.26942 -10.26913
 Alpha  occ. eigenvalues --  -10.26889 -10.26878 -10.26865 -10.26779 -10.26685
 Alpha  occ. eigenvalues --  -10.26547 -10.26449 -10.26366 -10.26248 -10.26244
 Alpha  occ. eigenvalues --  -10.26180 -10.26012 -10.25847 -10.25751 -10.25709
 Alpha  occ. eigenvalues --  -10.25590 -10.25541 -10.25520 -10.25151 -10.25113
 Alpha  occ. eigenvalues --  -10.25031  -3.17311  -3.16297  -1.92185  -1.91782
 Alpha  occ. eigenvalues --   -1.91611  -1.91199  -1.90768  -1.90596  -1.16927
 Alpha  occ. eigenvalues --   -1.15983  -1.11922  -1.10454  -1.09121  -1.08293
 Alpha  occ. eigenvalues --   -1.08240  -1.07157  -1.05455  -1.04798  -1.04290
 Alpha  occ. eigenvalues --   -1.03937  -1.03115  -1.02874  -1.02089  -1.01976
 Alpha  occ. eigenvalues --   -0.93349  -0.93062  -0.89167  -0.89097  -0.88986
 Alpha  occ. eigenvalues --   -0.88795  -0.88677  -0.88523  -0.87921  -0.87629
 Alpha  occ. eigenvalues --   -0.87187  -0.87121  -0.86584  -0.85011  -0.84622
 Alpha  occ. eigenvalues --   -0.84343  -0.84252  -0.83984  -0.82601  -0.82544
 Alpha  occ. eigenvalues --   -0.82535  -0.81597  -0.81229  -0.81054  -0.80871
 Alpha  occ. eigenvalues --   -0.80651  -0.78402  -0.78018  -0.77571  -0.77243
 Alpha  occ. eigenvalues --   -0.77233  -0.76415  -0.76327  -0.76227  -0.75217
 Alpha  occ. eigenvalues --   -0.75121  -0.73235  -0.72903  -0.72138  -0.71825
 Alpha  occ. eigenvalues --   -0.69461  -0.69045  -0.68973  -0.68634  -0.68332
 Alpha  occ. eigenvalues --   -0.68172  -0.66791  -0.66097  -0.65886  -0.65815
 Alpha  occ. eigenvalues --   -0.65614  -0.64969  -0.64880  -0.64638  -0.64472
 Alpha  occ. eigenvalues --   -0.64201  -0.62737  -0.62099  -0.60267  -0.60265
 Alpha  occ. eigenvalues --   -0.60063  -0.60008  -0.59134  -0.59132  -0.58904
 Alpha  occ. eigenvalues --   -0.58896  -0.58515  -0.58342  -0.58034  -0.57695
 Alpha  occ. eigenvalues --   -0.56566  -0.56252  -0.56099  -0.56088  -0.55307
 Alpha  occ. eigenvalues --   -0.55039  -0.54993  -0.54772  -0.54263  -0.53966
 Alpha  occ. eigenvalues --   -0.53555  -0.53479  -0.53366  -0.53210  -0.53013
 Alpha  occ. eigenvalues --   -0.52952  -0.52798  -0.52731  -0.52694  -0.52302
 Alpha  occ. eigenvalues --   -0.52205  -0.51779  -0.51762  -0.51685  -0.51342
 Alpha  occ. eigenvalues --   -0.51028  -0.50907  -0.50474  -0.50387  -0.50266
 Alpha  occ. eigenvalues --   -0.50152  -0.50000  -0.49918  -0.49841  -0.49748
 Alpha  occ. eigenvalues --   -0.49663  -0.49311  -0.49290  -0.49099  -0.48960
 Alpha  occ. eigenvalues --   -0.48777  -0.48697  -0.48351  -0.48276  -0.48104
 Alpha  occ. eigenvalues --   -0.48097  -0.47757  -0.47529  -0.47516  -0.47140
 Alpha  occ. eigenvalues --   -0.47137  -0.46941  -0.46607  -0.46535  -0.46471
 Alpha  occ. eigenvalues --   -0.46363  -0.46307  -0.46150  -0.46048  -0.45981
 Alpha  occ. eigenvalues --   -0.45870  -0.45514  -0.45439  -0.45355  -0.45289
 Alpha  occ. eigenvalues --   -0.44711  -0.44455  -0.44322  -0.44242  -0.44169
 Alpha  occ. eigenvalues --   -0.43871  -0.43767  -0.43729  -0.43575  -0.43571
 Alpha  occ. eigenvalues --   -0.43351  -0.43307  -0.43080  -0.42862  -0.42593
 Alpha  occ. eigenvalues --   -0.42418  -0.42150  -0.42020  -0.41982  -0.41823
 Alpha  occ. eigenvalues --   -0.41743  -0.41642  -0.41609  -0.41568  -0.41140
 Alpha  occ. eigenvalues --   -0.41092  -0.40893  -0.40882  -0.40733  -0.40655
 Alpha  occ. eigenvalues --   -0.40427  -0.40387  -0.40058  -0.40049  -0.39837
 Alpha  occ. eigenvalues --   -0.38980  -0.38453  -0.38078  -0.38003  -0.37492
 Alpha  occ. eigenvalues --   -0.37480  -0.37160  -0.36949  -0.36699  -0.36679
 Alpha  occ. eigenvalues --   -0.36583  -0.36540  -0.34863  -0.34724  -0.34232
 Alpha  occ. eigenvalues --   -0.34024  -0.33495  -0.33293  -0.31476  -0.31418
 Alpha  occ. eigenvalues --   -0.31260  -0.31224  -0.30961  -0.30665  -0.30491
 Alpha  occ. eigenvalues --   -0.30162  -0.29664  -0.29111  -0.24622  -0.24406
 Alpha  occ. eigenvalues --   -0.21130  -0.21007
 Alpha virt. eigenvalues --   -0.09084  -0.08332  -0.02240  -0.01560   0.00393
 Alpha virt. eigenvalues --    0.00486   0.01815   0.02344   0.02729   0.03401
 Alpha virt. eigenvalues --    0.04186   0.04642   0.05001   0.05349   0.05861

 Mulliken charges:
               1
     1  Mg   0.828515
     2  C    0.007478
     3  C   -0.059515
     4  C   -0.069220
     5  C   -0.093594
     6  N   -0.267892
     7  C   -0.051223
     8  C    0.020224
     9  C   -0.103972
    10  C    0.038324
    11  C    0.063727
    12  C    0.034973
    13  C   -0.056563
    14  H    0.031786
    15  N   -0.358576
    16  C    0.139205
    17  C   -0.203019
    18  C   -0.035925
    19  C    0.110395
    20  C    0.139566
    21  C    0.019211
    22  O   -0.225611
    23  C    0.056029
    24  N   -0.391519
    25  C    0.083623
    26  C   -0.019354
    27  C   -0.020667
    28  C    0.118486
    29  C    0.088231
    30  C   -0.004928
    31  C    0.053335
    32  N   -0.339565
    33  C    0.089637
    34  C   -0.168123
    35  C    0.069262
    36  C    0.103916
    37  C    0.107991
    38  C    0.017667
    39  O   -0.153791
    40  C   -0.052428
    41  C    0.180642
    42  O   -0.217041
    43  O   -0.331562
    44  C    0.179196
    45  H   -0.027506
    46  H   -0.006590
    47  H   -0.026942
    48  H    0.017579
    49  H    0.009460
    50  H    0.020288
    51  H    0.021738
    52  H    0.015396
    53  H    0.010974
    54  H    0.033004
    55  H    0.030017
    56  H    0.029327
    57  H    0.042917
    58  H    0.027705
    59  H    0.001095
    60  H    0.024416
    61  H    0.024859
    62  H    0.039981
    63  H    0.000243
    64  H   -0.003816
    65  H    0.020446
    66  H    0.019240
    67  H    0.019157
    68  H   -0.002522
    69  H   -0.003874
    70  H    0.012712
    71  H   -0.002484
    72  H    0.028760
    73  H    0.038347
    74  H    0.023672
    75  H    0.027415
    76  H    0.043183
    77  H    0.041486
    78  H    0.041624
    79  H    0.051359
    80  Mg   0.819051
    81  C   -0.027538
    82  C   -0.090337
    83  C   -0.046285
    84  C   -0.087336
    85  N   -0.261367
    86  C   -0.073434
    87  C   -0.067269
    88  C   -0.064303
    89  C    0.017959
    90  C    0.108026
    91  C    0.065017
    92  C   -0.081510
    93  H    0.029362
    94  N   -0.432484
    95  C    0.196340
    96  C   -0.155240
    97  C   -0.066207
    98  C    0.129230
    99  C    0.128358
   100  C    0.011637
   101  O   -0.165181
   102  C    0.046946
   103  N   -0.260880
   104  C    0.045610
   105  C   -0.043776
   106  C   -0.029933
   107  C    0.049906
   108  C    0.066782
   109  C    0.022698
   110  C    0.021384
   111  N   -0.342423
   112  C    0.111588
   113  C   -0.193847
   114  C    0.033630
   115  C    0.152523
   116  C    0.142363
   117  C    0.016922
   118  O   -0.185199
   119  C    0.043560
   120  C    0.222874
   121  O   -0.216001
   122  O   -0.330705
   123  C    0.180786
   124  H   -0.024238
   125  H   -0.052544
   126  H   -0.027325
   127  H   -0.005494
   128  H   -0.002386
   129  H    0.020575
   130  H    0.016858
   131  H    0.032977
   132  H    0.008356
   133  H    0.031385
   134  H    0.028561
   135  H    0.035476
   136  H    0.032265
   137  H   -0.009156
   138  H    0.027836
   139  H    0.050344
   140  H    0.014705
   141  H    0.046900
   142  H    0.006574
   143  H    0.001270
   144  H    0.023848
   145  H    0.019663
   146  H    0.008313
   147  H    0.019311
   148  H   -0.007787
   149  H    0.021972
   150  H    0.005688
   151  H    0.020181
   152  H    0.016089
   153  H    0.034072
   154  H    0.041556
   155  H    0.030792
   156  H    0.024054
   157  H    0.031467
   158  H    0.036545
 Sum of Mulliken charges =  -0.00000

 Dipole moment (field-independent basis, Debye):
    X=              2.7345    Y=              2.4140    Z=              0.0648  Tot=              3.6481
 Quadrupole moment (field-independent basis, Debye-Ang):
   XX=           -468.3493   YY=           -537.5914   ZZ=           -497.4323
   XY=            -95.8113   XZ=            -12.3274   YZ=             42.8013

 Normal termination of Gaussian 16 at Thu Sep  2 11:53:49 2021.
