 Gaussian 16, Revision A.03,
 Gaussian 16:  ES64L-G16RevA.03 25-Dec-2016

 ----------------------------------------------------------
 #p cam-b3lyp/Def2SVP td=(nstates=5) density=(transition=1)
 ----------------------------------------------------------

 --------------------------------
 TDDFT excited states in gaussian
 --------------------------------
 Symbolic Z-matrix:
 Charge =  0 Multiplicity = 1

                         Standard orientation:
 ---------------------------------------------------------------------
 Center     Atomic      Atomic             Coordinates (Angstroms)
 Number     Number       Type             X           Y           Z
 ---------------------------------------------------------------------
      1         12           0       -0.637665   -0.025660   -0.217153
      2          6           0        2.830579    0.274591    0.452073
      3          6           0       -0.288682   -3.386037    0.120034
      4          6           0       -4.027445   -0.213348   -0.034004
      5          6           0       -0.872481    3.425637   -0.002310
      6          7           0        1.130167   -1.291105    0.399275
      7          6           0        2.465736   -1.015533    0.527333
      8          6           0        3.273505   -2.246493    0.709531
      9          6           0        2.270115   -3.409232    0.257949
     10          6           0        0.968266   -2.683381    0.269710
     11          6           0        2.646889   -3.989166   -1.095825
     12          6           0        3.761698   -2.260537    2.166615
     13          6           0        5.321298   -2.411309    2.417274
     14          1           0        5.889978   -3.541168    3.327618
     15          7           0       -2.021382   -1.543244   -0.036003
     16          6           0       -1.650840   -2.894681    0.000518
     17          6           0       -2.845227   -3.675961   -0.117766
     18          6           0       -3.979032   -2.795144   -0.134200
     19          6           0       -3.356071   -1.444443   -0.142479
     20          6           0       -2.777753   -5.194555   -0.216323
     21          6           0       -5.450786   -3.140201   -0.180367
     22          8           0       -5.673632   -4.376430   -0.330553
     23          6           0       -6.676126   -2.207754    0.036190
     24          7           0       -2.270440    1.410941   -0.049081
     25          6           0       -3.579760    1.077763   -0.024914
     26          6           0       -4.520173    2.304518    0.110770
     27          6           0       -3.493742    3.484910    0.006899
     28          6           0       -2.093930    2.708759    0.038672
     29          6           0       -5.556181    2.278987   -0.998724
     30          6           0       -3.565066    4.497405    1.108959
     31          6           0       -4.050368    5.849812    0.662414
     32          7           0        0.626431    1.549558   -0.036483
     33          6           0        0.448489    2.938609   -0.011141
     34          6           0        1.641677    3.612950   -0.098545
     35          6           0        2.616642    2.604454    0.042876
     36          6           0        1.947054    1.388093    0.154888
     37          6           0        1.751213    5.087921   -0.422293
     38          6           0        4.082910    2.356867    0.025660
     39          8           0        4.977471    3.131184   -0.118135
     40          6           0        4.187439    0.825556    0.381239
     41          6           0        5.284343    0.245784   -0.484963
     42          8           0        6.415245   -0.034692   -0.087671
     43          8           0        4.807676    0.024290   -1.799869
     44          6           0        5.792606   -0.651983   -2.643551
     45          1           0       -0.160245   -4.464563    0.004941
     46          1           0       -5.119114   -0.225470   -0.075963
     47          1           0       -0.884962    4.476735    0.291310
     48          1           0        4.141038   -2.211472    0.050425
     49          1           0        2.325699   -4.209614    0.995301
     50          1           0        3.018877   -3.241751   -1.795263
     51          1           0        1.741595   -4.375045   -1.565671
     52          1           0        3.336230   -4.831428   -1.037074
     53          1           0        3.249533   -3.082887    2.665933
     54          1           0        3.411640   -1.413682    2.756869
     55          1           0        5.525699   -1.452147    2.893722
     56          1           0        5.872559   -2.318067    1.482325
     57          1           0       -2.163048   -5.612365    0.580983
     58          1           0       -2.289870   -5.413043   -1.166160
     59          1           0       -3.708191   -5.749734   -0.089637
     60          1           0       -6.667044   -1.577929   -0.852811
     61          1           0       -6.507886   -1.618294    0.937559
     62          1           0       -7.607177   -2.761409    0.160366
     63          1           0       -5.074351    2.338532    1.048423
     64          1           0       -3.530011    3.921033   -0.991060
     65          1           0       -6.016612    1.290864   -0.997574
     66          1           0       -5.042376    2.447630   -1.945664
     67          1           0       -6.318344    3.056349   -1.037276
     68          1           0       -2.601476    4.706928    1.573395
     69          1           0       -4.178050    4.240248    1.972576
     70          1           0       -4.895195    6.125916    1.292188
     71          1           0       -4.454120    5.840812   -0.350012
     72          1           0       -3.280030    6.621669    0.655029
     73          1           0        2.779408    5.247160   -0.748782
     74          1           0        1.541872    5.718043    0.441799
     75          1           0        1.014744    5.252744   -1.208456
     76          1           0        4.643476    0.858261    1.371390
     77          1           0        5.295881   -1.219168   -3.430856
     78          1           0        6.312813   -1.436815   -2.096274
     79          1           0        6.540790    0.026029   -3.055105
 ---------------------------------------------------------------------

 SCF Done:  E(RCAM-B3LYP) =  -2034.90385672     A.U. after   17 cycles

 Excitation energies and oscillator strengths:

 Excited State   1:      Singlet-A      1.6837 eV  736.38 nm  f=0.3613  <S**2>=0.000
     155 ->158         0.17403
     156 ->157         0.68683
     155 <-158         0.10798
 This state for optimization and/or second-order correction.
 Total Energy, E(TD-HF/TD-DFT) =  -2034.84198200
 Copying the excited state density for this state as the 1-particle RhoCI density.

 Excited State   2:      Singlet-A      2.2196 eV  558.59 nm  f=0.1596  <S**2>=0.000
     155 ->157         0.64861
     156 ->158        -0.26700

 Excited State   3:      Singlet-A      3.2218 eV  384.83 nm  f=0.0021  <S**2>=0.000
     153 ->157        -0.22799
     154 ->157         0.64696

 Excited State   4:      Singlet-A      3.2994 eV  375.78 nm  f=0.0029  <S**2>=0.000
     152 ->157         0.37157
     152 ->158         0.14142
     152 ->159         0.29803
     152 ->160         0.11021
     152 ->161        -0.13368
     153 ->157         0.41702
     154 ->159         0.10250

 Excited State   5:      Singlet-A      3.3817 eV  366.63 nm  f=0.0033  <S**2>=0.000
     152 ->157        -0.38662
     152 ->159        -0.15780
     153 ->157         0.48011
     154 ->157         0.22928
     156 ->158         0.10609

 The electronic state is 1-A.
 Alpha  occ. eigenvalues --  -46.89031 -19.25651 -19.21032 -19.19877 -19.18325
 Alpha  occ. eigenvalues --  -14.42393 -14.42252 -14.40111 -14.39021 -10.40377
 Alpha  occ. eigenvalues --  -10.35685 -10.35502 -10.32008 -10.31686 -10.31145
 Alpha  occ. eigenvalues --  -10.30878 -10.30689 -10.30658 -10.30573 -10.29082
 Alpha  occ. eigenvalues --  -10.28885 -10.28592 -10.28564 -10.28560 -10.28427
 Alpha  occ. eigenvalues --  -10.28350 -10.28342 -10.28226 -10.28008 -10.27749
 Alpha  occ. eigenvalues --  -10.27501 -10.27394 -10.27322 -10.27056 -10.26993
 Alpha  occ. eigenvalues --  -10.26781 -10.26609 -10.26513 -10.26316 -10.25974
 Alpha  occ. eigenvalues --  -10.25390 -10.25224 -10.25107  -3.17594  -1.92475
 Alpha  occ. eigenvalues --   -1.92055  -1.91899  -1.15613  -1.12065  -1.07975
 Alpha  occ. eigenvalues --   -1.07651  -1.05276  -1.04296  -1.03380  -1.02776
 Alpha  occ. eigenvalues --   -0.93342  -0.89958  -0.89345  -0.89086  -0.87889
 Alpha  occ. eigenvalues --   -0.87036  -0.85977  -0.84863  -0.84303  -0.82658
 Alpha  occ. eigenvalues --   -0.81975  -0.80728  -0.80521  -0.77839  -0.77487
 Alpha  occ. eigenvalues --   -0.76924  -0.76524  -0.75535  -0.73552  -0.72252
 Alpha  occ. eigenvalues --   -0.69438  -0.69015  -0.67741  -0.67263  -0.66378
 Alpha  occ. eigenvalues --   -0.65723  -0.65379  -0.64960  -0.63150  -0.60558
 Alpha  occ. eigenvalues --   -0.60122  -0.59623  -0.58989  -0.58085  -0.56917
 Alpha  occ. eigenvalues --   -0.56256  -0.55856  -0.55658  -0.54976  -0.54377
 Alpha  occ. eigenvalues --   -0.53928  -0.53617  -0.53234  -0.52728  -0.52313
 Alpha  occ. eigenvalues --   -0.52073  -0.51742  -0.51149  -0.50905  -0.50573
 Alpha  occ. eigenvalues --   -0.50319  -0.50070  -0.49895  -0.49685  -0.48940
 Alpha  occ. eigenvalues --   -0.48676  -0.48369  -0.48023  -0.47757  -0.47241
 Alpha  occ. eigenvalues --   -0.46914  -0.46633  -0.46489  -0.46047  -0.45937
 Alpha  occ. eigenvalues --   -0.45774  -0.45522  -0.45335  -0.45179  -0.44913
 Alpha  occ. eigenvalues --   -0.44080  -0.43996  -0.43692  -0.43295  -0.42680
 Alpha  occ. eigenvalues --   -0.42527  -0.42463  -0.42438  -0.42100  -0.41761
 Alpha  occ. eigenvalues --   -0.41607  -0.41420  -0.41137  -0.40157  -0.39063
 Alpha  occ. eigenvalues --   -0.38801  -0.38249  -0.37836  -0.37355  -0.37279
 Alpha  occ. eigenvalues --   -0.36449  -0.35439  -0.34724  -0.33214  -0.31773
 Alpha  occ. eigenvalues --   -0.31149  -0.30606  -0.30042  -0.29813  -0.24436
 Alpha  occ. eigenvalues --   -0.21667
 Alpha virt. eigenvalues --   -0.09351  -0.01857   0.00205   0.01777   0.02382
 Alpha virt. eigenvalues --    0.04123   0.04997   0.05685   0.06494   0.07750
 Alpha virt. eigenvalues --    0.08251   0.08595   0.08932   0.09301   0.10003

 Mulliken charges:
               1
     1  Mg  12.001557
     2  C    5.973417
     3  C    6.001245
     4  C    6.039098
     5  C    6.013145
     6  N    6.972445
     7  C    6.029904
     8  C    5.989864
     9  C    6.016717
    10  C    5.974002
    11  C    6.005059
    12  C    5.994529
    13  C    6.000525
    14  H    1.005627
    15  N    7.010064
    16  C    5.957156
    17  C    5.980291
    18  C    5.991108
    19  C    5.951300
    20  C    6.003842
    21  C    5.989079
    22  O    7.980324
    23  C    5.998170
    24  N    7.018638
    25  C    5.958293
    26  C    6.011779
    27  C    5.993234
    28  C    6.018892
    29  C    6.003953
    30  C    5.994587
    31  C    5.997788
    32  N    6.998790
    33  C    6.029244
    34  C    6.028739
    35  C    6.004879
    36  C    6.038230
    37  C    5.999404
    38  C    6.018333
    39  O    8.026417
    40  C    6.003471
    41  C    6.003421
    42  O    8.006371
    43  O    7.997866
    44  C    5.996680
    45  H    0.984662
    46  H    0.999240
    47  H    1.015737
    48  H    0.998414
    49  H    0.994454
    50  H    0.984517
    51  H    1.004947
    52  H    0.989102
    53  H    1.011214
    54  H    0.996277
    55  H    0.995230
    56  H    0.998423
    57  H    0.981998
    58  H    0.981413
    59  H    0.984381
    60  H    0.990041
    61  H    0.989895
    62  H    0.989228
    63  H    0.998941
    64  H    1.002003
    65  H    1.008150
    66  H    0.994757
    67  H    0.993129
    68  H    0.994575
    69  H    1.011114
    70  H    1.007279
    71  H    1.005424
    72  H    0.997745
    73  H    1.015318
    74  H    1.021003
    75  H    1.016516
    76  H    1.004582
    77  H    1.007029
    78  H    1.005618
    79  H    1.000165
 Sum of Mulliken charges = 312.00000

 Dipole moment (field-independent basis, Debye):
    X=              5.5785    Y=              9.0575    Z=              0.1510  Tot=             10.6386
 Quadrupole moment (field-independent basis, Debye-Ang):
   XX=             -6.2286   YY=             -0.1141   ZZ=              0.4374
   XY=             -6.8299   XZ=             -1.1291   YZ=             -1.1146

 Normal termination of Gaussian 16 at Fri Oct  8 17:26:47 2021.
