 Gaussian 16, Revision A.03,
 Gaussian 16:  ES64L-G16RevA.03 25-Dec-2016

 ----------------------------------------------------------
 #p cam-b3lyp/Def2SVP td=(nstates=5) density=(transition=1)
 ----------------------------------------------------------

 --------------------------------
 TDDFT excited states in gaussian
 --------------------------------
 Symbolic Z-matrix:
 Charge =  0 Multiplicity = 1

                         Standard orientation:
 ---------------------------------------------------------------------
 Center     Atomic      Atomic             Coordinates (Angstroms)
 Number     Number       Type             X           Y           Z
 ---------------------------------------------------------------------
      1         12           0       29.142389    0.118483   -0.450447
      2          6           0       25.903745   -0.961154    0.443954
      3          6           0       27.736559    2.985898   -1.853749
      4          6           0       32.238594    1.539049   -0.351017
      5          6           0       30.371055   -2.623926    1.498766
      6          7           0       27.093662    0.863672   -0.691130
      7          6           0       25.961011    0.287170   -0.236084
      8          6           0       24.724488    1.214038   -0.472960
      9          6           0       25.339903    2.244004   -1.528016
     10          6           0       26.880917    2.017235   -1.397845
     11          6           0       25.000119    2.136106   -3.031883
     12          6           0       24.302877    1.861962    0.899871
     13          6           0       22.768979    2.043129    1.070200
     14          1           0       22.312679    3.395477    1.754744
     15          7           0       29.954674    1.969112   -1.222682
     16          6           0       29.184625    2.949094   -1.790719
     17          6           0       30.071687    3.962713   -2.219552
     18          6           0       31.386548    3.652511   -1.761246
     19          6           0       31.272442    2.304261   -1.110757
     20          6           0       29.662756    5.216372   -2.956142
     21          6           0       32.576169    4.550634   -1.781589
     22          8           0       32.503473    5.709773   -2.156901
     23          6           0       33.888270    4.189679   -1.311558
     24          7           0       31.026896   -0.455591    0.572739
     25          6           0       32.195514    0.262925    0.279999
     26          6           0       33.400346   -0.458141    0.798399
     27          6           0       32.829195   -1.767807    1.457564
     28          6           0       31.340861   -1.639835    1.182408
     29          6           0       34.371983   -0.705369   -0.362661
     30          6           0       33.346933   -2.017546    2.924063
     31          6           0       34.045496   -3.317784    3.183652
     32          7           0       28.339413   -1.538748    0.734284
     33          6           0       28.979034   -2.561064    1.391319
     34          6           0       27.998885   -3.562260    1.866342
     35          6           0       26.786377   -2.894479    1.548927
     36          6           0       27.049498   -1.756102    0.810291
     37          6           0       28.225473   -4.834946    2.667158
     38          6           0       25.366930   -2.952361    1.776941
     39          8           0       24.697485   -3.771452    2.425626
     40          6           0       24.704742   -1.760798    1.085675
     41          6           0       23.665633   -2.202524    0.136866
     42          8           0       22.540125   -1.869108    0.229872
     43          8           0       24.161810   -2.858888   -0.952160
     44          6           0       23.111828   -3.038819   -1.978159
     45          1           0       27.327953    3.857494   -2.370215
     46          1           0       33.218521    2.010873   -0.438737
     47          1           0       30.551378   -3.485235    2.146237
     48          1           0       23.918255    0.603728   -0.880287
     49          1           0       25.356965    3.285094   -1.206031
     50          1           0       24.730868    1.110626   -3.287410
     51          1           0       25.765509    2.479574   -3.727879
     52          1           0       24.107324    2.744037   -3.174375
     53          1           0       24.820509    2.808814    1.056196
     54          1           0       24.674598    1.167540    1.653393
     55          1           0       22.483701    1.190305    1.686411
     56          1           0       22.396878    1.882468    0.058114
     57          1           0       30.442000    5.713875   -3.533666
     58          1           0       29.304359    5.869683   -2.161090
     59          1           0       28.733346    5.167776   -3.523570
     60          1           0       34.222005    3.352215   -1.925576
     61          1           0       33.875396    3.956575   -0.246465
     62          1           0       34.551611    5.042919   -1.453493
     63          1           0       33.840550    0.083308    1.635407
     64          1           0       32.930011   -2.699349    0.900204
     65          1           0       34.146936   -0.109193   -1.247318
     66          1           0       34.346380   -1.742645   -0.696583
     67          1           0       35.347419   -0.287995   -0.114584
     68          1           0       32.454846   -1.932417    3.544586
     69          1           0       34.133440   -1.332271    3.238025
     70          1           0       33.529231   -3.797559    4.014714
     71          1           0       35.075902   -3.167825    3.506486
     72          1           0       34.152605   -3.933906    2.290840
     73          1           0       28.322338   -4.647759    3.736780
     74          1           0       29.059381   -5.433171    2.297820
     75          1           0       27.259403   -5.325207    2.547578
     76          1           0       24.129231   -1.189509    1.812906
     77          1           0       23.560581   -3.564898   -2.821155
     78          1           0       22.711520   -2.075268   -2.293169
     79          1           0       22.311817   -3.718924   -1.687727
     80         12           0      -29.085692    0.297188    0.341226
     81          6           0      -26.238461   -1.730371   -0.110982
     82          6           0      -30.129816   -0.773128   -2.774677
     83          6           0      -31.834192    2.307157    0.586918
     84          6           0      -27.790431    1.510239    3.190801
     85          7           0      -28.279340   -1.139389   -1.263424
     86          6           0      -27.166986   -1.968845   -1.186791
     87          6           0      -27.186596   -2.985506   -2.310527
     88          6           0      -28.241092   -2.400180   -3.318784
     89          6           0      -28.918854   -1.407943   -2.400722
     90          6           0      -27.652496   -1.804641   -4.657494
     91          6           0      -27.624807   -4.384868   -1.853457
     92          6           0      -26.910066   -5.554519   -2.538609
     93          1           0      -27.203979   -5.825476   -4.040364
     94          7           0      -30.788628    0.647874   -0.861549
     95          6           0      -30.950881    0.121295   -2.097220
     96          6           0      -32.128782    0.679210   -2.677891
     97          6           0      -32.784738    1.497811   -1.694708
     98          6           0      -31.787440    1.550306   -0.640328
     99          6           0      -32.561917    0.351712   -4.079934
    100          6           0      -34.094085    2.286104   -1.732439
    101          8           0      -34.577479    2.807961   -0.703583
    102          6           0      -34.852767    2.556064   -3.026885
    103          7           0      -29.752906    1.621659    1.724562
    104          6           0      -30.891326    2.413907    1.610793
    105          6           0      -30.951722    3.348620    2.775047
    106          6           0      -29.709749    3.103737    3.705529
    107          6           0      -29.038670    1.989392    2.886336
    108          6           0      -31.223715    4.837010    2.401921
    109          6           0      -30.034776    2.653424    5.146268
    110          6           0      -30.044864    3.809970    6.164478
    111          7           0      -27.396542    0.039389    1.336848
    112          6           0      -26.967934    0.545303    2.563251
    113          6           0      -25.649236   -0.042027    3.005815
    114          6           0      -25.366528   -0.901290    1.931626
    115          6           0      -26.447025   -0.866318    0.992614
    116          6           0      -24.895500    0.271455    4.285426
    117          6           0      -24.356340   -1.840965    1.469133
    118          8           0      -23.272538   -2.166460    1.955419
    119          6           0      -24.978313   -2.498293    0.164727
    120          6           0      -23.888396   -2.360758   -0.916452
    121          8           0      -23.168820   -1.400232   -1.097509
    122          8           0      -23.741014   -3.590042   -1.556116
    123          6           0      -22.719423   -3.570110   -2.603208
    124          1           0      -30.468320   -1.191997   -3.724434
    125          1           0      -32.673920    2.979689    0.772817
    126          1           0      -27.387023    2.042381    4.054426
    127          1           0      -26.242611   -3.090083   -2.844804
    128          1           0      -28.969613   -3.123078   -3.686002
    129          1           0      -26.582485   -1.951661   -4.807125
    130          1           0      -27.757464   -0.729459   -4.800655
    131          1           0      -28.096942   -2.293440   -5.524484
    132          1           0      -28.695405   -4.530981   -1.995021
    133          1           0      -27.406035   -4.530778   -0.795463
    134          1           0      -27.039885   -6.487708   -1.990692
    135          1           0      -25.827406   -5.444530   -2.480127
    136          1           0      -31.639138    0.509536   -4.638412
    137          1           0      -33.310979    0.993944   -4.542898
    138          1           0      -32.878661   -0.679870   -4.231894
    139          1           0      -34.185412    2.951212   -3.792960
    140          1           0      -35.601178    3.278477   -2.701479
    141          1           0      -35.287588    1.639654   -3.425896
    142          1           0      -31.898713    3.153666    3.279255
    143          1           0      -28.996340    3.927488    3.752901
    144          1           0      -31.252535    4.905239    1.314223
    145          1           0      -30.396166    5.446312    2.764274
    146          1           0      -32.195922    5.045902    2.849578
    147          1           0      -29.367008    1.825729    5.384213
    148          1           0      -31.062555    2.297006    5.218484
    149          1           0      -30.239349    4.751693    5.650843
    150          1           0      -29.107347    4.013193    6.682367
    151          1           0      -30.872629    3.641630    6.854004
    152          1           0      -25.443807   -0.195796    5.103623
    153          1           0      -24.812899    1.328617    4.537009
    154          1           0      -23.912822   -0.184510    4.165894
    155          1           0      -25.257523   -3.548115    0.252249
    156          1           0      -23.084234   -3.295503   -3.593417
    157          1           0      -22.313984   -4.581668   -2.586576
    158          1           0      -21.872144   -2.891212   -2.506821
 ---------------------------------------------------------------------

 SCF Done:  E(RCAM-B3LYP) =  -4069.81703614     A.U. after   19 cycles

 Excitation energies and oscillator strengths:

 Excited State   1:      Singlet-A      1.6804 eV  737.80 nm  f=0.4071  <S**2>=0.000
     309 -> 315       -0.17286
     311 -> 313        0.68699
     309 <- 315       -0.10656
 This state for optimization and/or second-order correction.
 Total Energy, E(TD-HF/TD-DFT) =  -4069.75528081
 Copying the excited state density for this state as the 1-particle RhoCI density.

 Excited State   2:      Singlet-A      1.7014 eV  728.71 nm  f=0.3769  <S**2>=0.000
     310 -> 316        0.18653
     312 -> 314        0.68384
     310 <- 316        0.10955

 Excited State   3:      Singlet-A      2.2017 eV  563.14 nm  f=0.1138  <S**2>=0.000
     309 -> 313        0.64204
     311 -> 315        0.28114

 Excited State   4:      Singlet-A      2.2323 eV  555.40 nm  f=0.0993  <S**2>=0.000
     310 -> 314        0.63579
     312 -> 316       -0.29948

 Excited State   5:      Singlet-A      3.0142 eV  411.33 nm  f=0.0000  <S**2>=0.000
     312 -> 313        0.70711

 The electronic state is 1-A.
 Alpha  occ. eigenvalues --  -46.90844 -46.87633 -19.25747 -19.25118 -19.20395
 Alpha  occ. eigenvalues --  -19.19923 -19.19192 -19.19081 -19.18850 -19.17328
 Alpha  occ. eigenvalues --  -14.42982 -14.42709 -14.42660 -14.41261 -14.39913
 Alpha  occ. eigenvalues --  -14.39879 -14.39466 -14.39307 -10.39669 -10.38736
 Alpha  occ. eigenvalues --  -10.35832 -10.35064 -10.34779 -10.33512 -10.32250
 Alpha  occ. eigenvalues --  -10.31992 -10.31867 -10.31827 -10.31462 -10.31424
 Alpha  occ. eigenvalues --  -10.31070 -10.30995 -10.30859 -10.30729 -10.30712
 Alpha  occ. eigenvalues --  -10.30311 -10.30262 -10.30190 -10.29865 -10.29570
 Alpha  occ. eigenvalues --  -10.29314 -10.29206 -10.29090 -10.29090 -10.29039
 Alpha  occ. eigenvalues --  -10.28915 -10.28776 -10.28728 -10.28723 -10.28698
 Alpha  occ. eigenvalues --  -10.28613 -10.28543 -10.28511 -10.28468 -10.28431
 Alpha  occ. eigenvalues --  -10.28363 -10.28177 -10.28155 -10.27840 -10.27755
 Alpha  occ. eigenvalues --  -10.27547 -10.27532 -10.27486 -10.27357 -10.27188
 Alpha  occ. eigenvalues --  -10.27052 -10.27047 -10.27031 -10.26975 -10.26814
 Alpha  occ. eigenvalues --  -10.26667 -10.26587 -10.26525 -10.26411 -10.26398
 Alpha  occ. eigenvalues --  -10.26388 -10.26321 -10.25994 -10.25975 -10.25757
 Alpha  occ. eigenvalues --  -10.25678 -10.25647 -10.25546 -10.25456 -10.25297
 Alpha  occ. eigenvalues --  -10.25266  -3.18991  -3.16416  -1.93904  -1.93426
 Alpha  occ. eigenvalues --   -1.93286  -1.91314  -1.90847  -1.90760  -1.17978
 Alpha  occ. eigenvalues --   -1.16285  -1.09560  -1.09216  -1.09046  -1.08961
 Alpha  occ. eigenvalues --   -1.08915  -1.08159  -1.05121  -1.04701  -1.03757
 Alpha  occ. eigenvalues --   -1.03652  -1.03443  -1.03059  -1.02543  -1.01442
 Alpha  occ. eigenvalues --   -0.92636  -0.92559  -0.89431  -0.89420  -0.89027
 Alpha  occ. eigenvalues --   -0.89007  -0.88283  -0.88243  -0.88069  -0.87469
 Alpha  occ. eigenvalues --   -0.87022  -0.87000  -0.86132  -0.85831  -0.84890
 Alpha  occ. eigenvalues --   -0.84662  -0.84401  -0.83534  -0.82720  -0.82522
 Alpha  occ. eigenvalues --   -0.82286  -0.81716  -0.80973  -0.80935  -0.80559
 Alpha  occ. eigenvalues --   -0.80072  -0.78667  -0.78442  -0.77620  -0.77453
 Alpha  occ. eigenvalues --   -0.77274  -0.76876  -0.76504  -0.76139  -0.75440
 Alpha  occ. eigenvalues --   -0.75046  -0.73153  -0.72668  -0.72527  -0.71650
 Alpha  occ. eigenvalues --   -0.69382  -0.69372  -0.69273  -0.68803  -0.68173
 Alpha  occ. eigenvalues --   -0.67966  -0.67304  -0.66907  -0.66360  -0.65775
 Alpha  occ. eigenvalues --   -0.65720  -0.65492  -0.65004  -0.64658  -0.64479
 Alpha  occ. eigenvalues --   -0.64150  -0.63315  -0.62563  -0.60361  -0.60140
 Alpha  occ. eigenvalues --   -0.60088  -0.60032  -0.59001  -0.58922  -0.58897
 Alpha  occ. eigenvalues --   -0.58487  -0.58318  -0.57736  -0.57486  -0.57087
 Alpha  occ. eigenvalues --   -0.56518  -0.56089  -0.56008  -0.55565  -0.55438
 Alpha  occ. eigenvalues --   -0.55143  -0.55101  -0.54679  -0.54562  -0.53791
 Alpha  occ. eigenvalues --   -0.53514  -0.53484  -0.53391  -0.53205  -0.53123
 Alpha  occ. eigenvalues --   -0.52867  -0.52832  -0.52665  -0.52555  -0.52274
 Alpha  occ. eigenvalues --   -0.52138  -0.51842  -0.51765  -0.51738  -0.51479
 Alpha  occ. eigenvalues --   -0.51340  -0.51211  -0.50899  -0.50472  -0.50204
 Alpha  occ. eigenvalues --   -0.50055  -0.50030  -0.49866  -0.49783  -0.49573
 Alpha  occ. eigenvalues --   -0.49355  -0.49277  -0.49058  -0.49046  -0.48890
 Alpha  occ. eigenvalues --   -0.48628  -0.48482  -0.48407  -0.48230  -0.48211
 Alpha  occ. eigenvalues --   -0.48073  -0.47607  -0.47535  -0.47390  -0.47338
 Alpha  occ. eigenvalues --   -0.46970  -0.46842  -0.46803  -0.46691  -0.46648
 Alpha  occ. eigenvalues --   -0.46514  -0.46363  -0.46339  -0.46263  -0.45893
 Alpha  occ. eigenvalues --   -0.45766  -0.45503  -0.45145  -0.45097  -0.44909
 Alpha  occ. eigenvalues --   -0.44863  -0.44691  -0.44613  -0.44520  -0.44358
 Alpha  occ. eigenvalues --   -0.44343  -0.44331  -0.44023  -0.43603  -0.43578
 Alpha  occ. eigenvalues --   -0.43484  -0.43337  -0.43174  -0.43010  -0.43001
 Alpha  occ. eigenvalues --   -0.42886  -0.42673  -0.42655  -0.42345  -0.42304
 Alpha  occ. eigenvalues --   -0.41926  -0.41789  -0.41739  -0.41597  -0.41287
 Alpha  occ. eigenvalues --   -0.41218  -0.41040  -0.41035  -0.40800  -0.40437
 Alpha  occ. eigenvalues --   -0.40232  -0.40143  -0.39678  -0.39640  -0.39242
 Alpha  occ. eigenvalues --   -0.38698  -0.38683  -0.38299  -0.37921  -0.37905
 Alpha  occ. eigenvalues --   -0.37644  -0.37252  -0.37243  -0.36895  -0.36861
 Alpha  occ. eigenvalues --   -0.36624  -0.36409  -0.35146  -0.34941  -0.34928
 Alpha  occ. eigenvalues --   -0.34141  -0.33499  -0.32841  -0.31508  -0.31500
 Alpha  occ. eigenvalues --   -0.30980  -0.30962  -0.30928  -0.30543  -0.30398
 Alpha  occ. eigenvalues --   -0.30015  -0.29986  -0.29206  -0.24516  -0.23939
 Alpha  occ. eigenvalues --   -0.21581  -0.21065
 Alpha virt. eigenvalues --   -0.09390  -0.08561  -0.02260  -0.01768   0.00009
 Alpha virt. eigenvalues --    0.00279   0.01207   0.01759   0.02422   0.03749
 Alpha virt. eigenvalues --    0.04684   0.04767   0.05042   0.05438   0.05617

 Mulliken charges:
               1
     1  Mg  12.001651
     2  C    6.025575
     3  C    5.980142
     4  C    5.976729
     5  C    6.008890
     6  N    7.003728
     7  C    5.962556
     8  C    6.008339
     9  C    5.997559
    10  C    6.031274
    11  C    5.990899
    12  C    6.002029
    13  C    6.001155
    14  H    0.992101
    15  N    6.986322
    16  C    6.052344
    17  C    6.019283
    18  C    6.008153
    19  C    6.052624
    20  C    5.994802
    21  C    6.011385
    22  O    8.021758
    23  C    5.994542
    24  N    6.998888
    25  C    6.035203
    26  C    5.986501
    27  C    6.008180
    28  C    5.966637
    29  C    5.997050
    30  C    6.000571
    31  C    6.002356
    32  N    7.005022
    33  C    5.958109
    34  C    5.967053
    35  C    5.998577
    36  C    5.965875
    37  C    6.001452
    38  C    5.984134
    39  O    7.967736
    40  C    6.000997
    41  C    5.995219
    42  O    7.991541
    43  O    8.003926
    44  C    6.003163
    45  H    1.009782
    46  H    1.007254
    47  H    0.991979
    48  H    1.001764
    49  H    0.996692
    50  H    1.014675
    51  H    0.994573
    52  H    1.008491
    53  H    0.987587
    54  H    1.008383
    55  H    1.005006
    56  H    0.996613
    57  H    1.016183
    58  H    1.022115
    59  H    1.022124
    60  H    1.009747
    61  H    1.011629
    62  H    1.013362
    63  H    1.003059
    64  H    1.004256
    65  H    0.992084
    66  H    1.011113
    67  H    1.002502
    68  H    1.002948
    69  H    0.988311
    70  H    1.002175
    71  H    0.993635
    72  H    0.997655
    73  H    0.977744
    74  H    0.980791
    75  H    0.986840
    76  H    0.991067
    77  H    0.995657
    78  H    0.992472
    79  H    0.997702
    80  Mg  11.999999
    81  C    5.999720
    82  C    6.000058
    83  C    6.000304
    84  C    5.999958
    85  N    6.999957
    86  C    6.000365
    87  C    5.999910
    88  C    6.000076
    89  C    5.999752
    90  C    6.000053
    91  C    5.999968
    92  C    5.999977
    93  H    1.000090
    94  N    7.000036
    95  C    5.999680
    96  C    5.999724
    97  C    5.999891
    98  C    5.999633
    99  C    6.000075
   100  C    5.999887
   101  O    7.999736
   102  C    6.000044
   103  N    7.000033
   104  C    5.999618
   105  C    6.000130
   106  C    5.999890
   107  C    6.000246
   108  C    6.000014
   109  C    5.999956
   110  C    5.999996
   111  N    7.000024
   112  C    6.000276
   113  C    6.000357
   114  C    5.999965
   115  C    6.000364
   116  C    5.999942
   117  C    6.000182
   118  O    8.000312
   119  C    6.000029
   120  C    6.000049
   121  O    8.000027
   122  O    8.000027
   123  C    5.999958
   124  H    0.999912
   125  H    0.999900
   126  H    1.000092
   127  H    1.000021
   128  H    0.999985
   129  H    0.999870
   130  H    0.999988
   131  H    0.999966
   132  H    1.000116
   133  H    0.999941
   134  H    1.000020
   135  H    0.999979
   136  H    0.999829
   137  H    0.999818
   138  H    0.999778
   139  H    0.999926
   140  H    0.999854
   141  H    0.999919
   142  H    0.999975
   143  H    1.000009
   144  H    1.000040
   145  H    0.999884
   146  H    0.999970
   147  H    0.999957
   148  H    1.000101
   149  H    1.000049
   150  H    0.999991
   151  H    1.000038
   152  H    1.000204
   153  H    1.000188
   154  H    1.000150
   155  H    1.000095
   156  H    1.000056
   157  H    1.000063
   158  H    1.000029
 Sum of Mulliken charges = 624.00000

 Dipole moment (field-independent basis, Debye):
    X=              4.2363    Y=              9.1704    Z=             -5.0710  Tot=             11.3030
 Quadrupole moment (field-independent basis, Debye-Ang):
   XX=            233.5515   YY=              5.4956   ZZ=              0.5946
   XY=            270.2903   XZ=           -151.0552   YZ=             -2.6984

 Normal termination of Gaussian 16 at Wed Sep 22 02:17:54 2021.
