 Gaussian 16, Revision A.03,
 Gaussian 16:  ES64L-G16RevA.03 25-Dec-2016

 -----------------------------------
 #p cam-b3lyp/Def2SVP td=(nstates=5)
 -----------------------------------

 --------------------------------
 TDDFT excited states in gaussian
 --------------------------------
 Symbolic Z-matrix:
 Charge =  0 Multiplicity = 1

                         Standard orientation:
 ---------------------------------------------------------------------
 Center     Atomic      Atomic             Coordinates (Angstroms)
 Number     Number       Type             X           Y           Z
 ---------------------------------------------------------------------
      1         12           0       27.852920   -0.693693    0.208816
      2          6           0       26.327929    2.481017    0.878581
      3          6           0       29.476458    0.783187   -2.450975
      4          6           0       28.717671   -3.699270   -0.736657
      5          6           0       25.939973   -1.974652    2.799223
      6          7           0       27.675806    1.397942   -0.876994
      7          6           0       27.080879    2.488482   -0.302624
      8          6           0       27.558928    3.777926   -1.022487
      9          6           0       28.536040    3.234822   -2.147476
     10          6           0       28.587574    1.689012   -1.865021
     11          6           0       28.145060    3.501912   -3.661739
     12          6           0       28.261990    4.820314   -0.112574
     13          6           0       27.881633    6.249258   -0.272280
     14          1           0       27.162035    6.820427   -1.553347
     15          7           0       28.967212   -1.420078   -1.417905
     16          6           0       29.681311   -0.665792   -2.348557
     17          6           0       30.343837   -1.582576   -3.296008
     18          6           0       30.209491   -2.901615   -2.714539
     19          6           0       29.268624   -2.723421   -1.584277
     20          6           0       31.071683   -1.186131   -4.544722
     21          6           0       30.824044   -4.260265   -3.125920
     22          8           0       30.890907   -5.267859   -2.390681
     23          6           0       31.533278   -4.322063   -4.418685
     24          7           0       27.344910   -2.500810    0.889562
     25          6           0       27.813631   -3.626211    0.248059
     26          6           0       27.514392   -4.908172    1.073569
     27          6           0       26.931586   -4.270676    2.411788
     28          6           0       26.732564   -2.813449    2.032568
     29          6           0       26.572077   -6.007466    0.433363
     30          6           0       27.782354   -4.396916    3.665623
     31          6           0       27.185453   -5.265524    4.792698
     32          7           0       26.570582    0.086820    1.697192
     33          6           0       25.844758   -0.568914    2.663282
     34          6           0       24.988465    0.384299    3.381211
     35          6           0       25.210551    1.586818    2.733910
     36          6           0       26.170796    1.364702    1.721739
     37          6           0       24.027588    0.133642    4.496197
     38          6           0       24.834667    2.953943    2.782758
     39          8           0       24.128543    3.610760    3.599766
     40          6           0       25.504596    3.573958    1.630565
     41          6           0       24.503942    4.314784    0.785420
     42          8           0       23.672447    3.812797    0.109210
     43          8           0       24.734545    5.625760    0.853469
     44          6           0       23.741422    6.535620    0.392638
     45          1           0       30.019266    1.166311   -3.317781
     46          1           0       28.960688   -4.751390   -0.904594
     47          1           0       25.284692   -2.401775    3.560143
     48          1           0       26.662507    4.227821   -1.450853
     49          1           0       29.537108    3.636919   -1.994574
     50          1           0       27.303562    4.177115   -3.814382
     51          1           0       27.812825    2.546923   -4.071422
     52          1           0       29.015752    3.836325   -4.226616
     53          1           0       29.344526    4.835772   -0.244262
     54          1           0       28.088463    4.639171    0.947779
     55          1           0       28.777258    6.871119   -0.259499
     56          1           0       27.263154    6.515297    0.584481
     57          1           0       30.660298   -1.734022   -5.392191
     58          1           0       32.109029   -1.488748   -4.401730
     59          1           0       31.139871   -0.102187   -4.642637
     60          1           0       30.802891   -4.121120   -5.202492
     61          1           0       31.840314   -5.361892   -4.528232
     62          1           0       32.444509   -3.724558   -4.415712
     63          1           0       28.490016   -5.341162    1.296725
     64          1           0       25.980016   -4.765869    2.604925
     65          1           0       26.254878   -5.695910   -0.561191
     66          1           0       25.744963   -6.294469    1.083810
     67          1           0       27.154654   -6.926228    0.363806
     68          1           0       28.173727   -3.470477    4.086145
     69          1           0       28.691506   -4.920761    3.372328
     70          1           0       27.260070   -4.877274    5.808274
     71          1           0       27.837909   -6.133326    4.892928
     72          1           0       26.140245   -5.544536    4.666323
     73          1           0       24.205828   -0.818126    4.997487
     74          1           0       23.024349   -0.015878    4.097390
     75          1           0       24.020345    1.037624    5.105057
     76          1           0       26.225643    4.275394    2.049477
     77          1           0       22.951171    6.528088    1.144660
     78          1           0       23.261633    6.163742   -0.512807
     79          1           0       24.132886    7.551751    0.337513
     80         12           0      -27.885286   -0.637325   -0.201962
     81          6           0      -25.739097    2.052418   -0.938259
     82          6           0      -29.708813    1.542335    1.801641
     83          6           0      -29.683783   -3.273125    0.717567
     84          6           0      -25.444442   -2.885286   -1.572888
     85          7           0      -27.728356    1.509405    0.377492
     86          6           0      -26.821046    2.429379   -0.166484
     87          6           0      -27.346675    3.835783    0.053792
     88          6           0      -28.440670    3.689767    1.149494
     89          6           0      -28.646800    2.145588    1.106321
     90          6           0      -28.111942    4.306650    2.545248
     91          6           0      -27.830584    4.564902   -1.247365
     92          6           0      -27.638608    6.145107   -1.218710
     93          1           0      -27.071523    6.773316    0.057134
     94          7           0      -29.497923   -0.800559    0.942836
     95          6           0      -30.150703    0.213493    1.622341
     96          6           0      -31.353129   -0.275841    2.232629
     97          6           0      -31.313347   -1.694892    2.047428
     98          6           0      -30.170613   -1.954347    1.189959
     99          6           0      -32.325753    0.615834    3.063363
    100          6           0      -32.234306   -2.736160    2.594188
    101          8           0      -31.984409   -3.959510    2.476108
    102          6           0      -33.535655   -2.556200    3.430037
    103          7           0      -27.494677   -2.788250   -0.147554
    104          6           0      -28.459245   -3.664814    0.190276
    105          6           0      -28.088927   -5.090479   -0.290356
    106          6           0      -26.733775   -4.982027   -0.998570
    107          6           0      -26.561293   -3.400168   -0.943152
    108          6           0      -28.229560   -6.103329    0.804777
    109          6           0      -26.635503   -5.565610   -2.424442
    110          6           0      -27.610950   -4.952794   -3.459401
    111          7           0      -25.922533   -0.521430   -1.042023
    112          6           0      -25.185807   -1.469938   -1.666002
    113          6           0      -24.112613   -0.770479   -2.370780
    114          6           0      -24.259921    0.630047   -2.166391
    115          6           0      -25.368734    0.742586   -1.292734
    116          6           0      -23.086497   -1.417342   -3.297362
    117          6           0      -23.724858    1.921423   -2.458783
    118          8           0      -22.844449    2.328949   -3.211889
    119          6           0      -24.679088    2.958542   -1.572634
    120          6           0      -23.794246    3.816013   -0.687513
    121          8           0      -23.329488    3.435490    0.369091
    122          8           0      -23.683349    5.091165   -1.193635
    123          6           0      -22.597543    5.945402   -0.723682
    124          1           0      -30.274276    2.335883    2.294202
    125          1           0      -30.366342   -4.087109    0.969421
    126          1           0      -24.819551   -3.619656   -2.084818
    127          1           0      -26.545352    4.461927    0.445855
    128          1           0      -29.340410    4.168025    0.763479
    129          1           0      -28.234861    3.452833    3.210727
    130          1           0      -28.875236    5.029490    2.835826
    131          1           0      -27.127789    4.738016    2.728038
    132          1           0      -28.904447    4.450490   -1.391819
    133          1           0      -27.333357    4.111503   -2.103897
    134          1           0      -28.631573    6.592098   -1.269319
    135          1           0      -27.018753    6.409830   -2.074987
    136          1           0      -32.673142    0.021416    3.909284
    137          1           0      -33.210220    0.909539    2.499076
    138          1           0      -32.008440    1.576860    3.467858
    139          1           0      -34.244379   -1.915497    2.904575
    140          1           0      -33.337866   -2.187175    4.436381
    141          1           0      -34.191613   -3.425922    3.431457
    142          1           0      -28.908627   -5.397982   -0.938420
    143          1           0      -26.010623   -5.340353   -0.265085
    144          1           0      -29.141905   -6.694053    0.720387
    145          1           0      -28.164393   -5.611756    1.775586
    146          1           0      -27.410905   -6.821969    0.856741
    147          1           0      -26.908521   -6.611390   -2.281879
    148          1           0      -25.609607   -5.499263   -2.787920
    149          1           0      -26.973426   -4.532213   -4.236811
    150          1           0      -28.180379   -4.184146   -2.936802
    151          1           0      -28.365390   -5.646078   -3.831584
    152          1           0      -22.925116   -0.843742   -4.209629
    153          1           0      -23.443950   -2.371025   -3.684654
    154          1           0      -22.184407   -1.613600   -2.717216
    155          1           0      -25.123183    3.614995   -2.321367
    156          1           0      -22.507439    5.768682    0.348440
    157          1           0      -22.760661    7.013672   -0.866557
    158          1           0      -21.729977    5.666671   -1.321845
 ---------------------------------------------------------------------

 SCF Done:  E(RCAM-B3LYP) =  -4069.81419338     A.U. after   18 cycles

 Excitation energies and oscillator strengths:

 Excited State   1:      Singlet-A      1.6591 eV  747.30 nm  f=0.4046  <S**2>=0.000
     309 -> 316        0.16731
     311 -> 313        0.68827
     309 <- 316        0.10534
 This state for optimization and/or second-order correction.
 Total Energy, E(TD-HF/TD-DFT) =  -4069.75322308
 Copying the excited state density for this state as the 1-particle RhoCI density.

 Excited State   2:      Singlet-A      1.7200 eV  720.83 nm  f=0.4204  <S**2>=0.000
     310 -> 315        0.17638
     312 -> 314        0.68704
     310 <- 315        0.10598

 Excited State   3:      Singlet-A      2.1919 eV  565.66 nm  f=0.1536  <S**2>=0.000
     309 -> 313        0.65715
     311 -> 316       -0.24517

 Excited State   4:      Singlet-A      2.2103 eV  560.94 nm  f=0.1302  <S**2>=0.000
     310 -> 314        0.65015
     312 -> 315       -0.26633

 Excited State   5:      Singlet-A      3.1161 eV  397.89 nm  f=0.0000  <S**2>=0.000
     312 -> 313        0.70710

 The electronic state is 1-A.
 Alpha  occ. eigenvalues --  -46.88899 -46.88890 -19.24987 -19.24236 -19.19640
 Alpha  occ. eigenvalues --  -19.19339 -19.19237 -19.19013 -19.18537 -19.18345
 Alpha  occ. eigenvalues --  -14.42531 -14.42044 -14.41608 -14.41413 -14.40254
 Alpha  occ. eigenvalues --  -14.39684 -14.39547 -14.39360 -10.39098 -10.39033
 Alpha  occ. eigenvalues --  -10.35569 -10.35459 -10.34949 -10.34696 -10.31689
 Alpha  occ. eigenvalues --  -10.31522 -10.31491 -10.31392 -10.31017 -10.30944
 Alpha  occ. eigenvalues --  -10.30918 -10.30781 -10.30712 -10.30537 -10.30450
 Alpha  occ. eigenvalues --  -10.30333 -10.30146 -10.29834 -10.29687 -10.29538
 Alpha  occ. eigenvalues --  -10.29498 -10.29285 -10.29273 -10.29019 -10.28746
 Alpha  occ. eigenvalues --  -10.28739 -10.28371 -10.28357 -10.28254 -10.28224
 Alpha  occ. eigenvalues --  -10.28184 -10.28182 -10.28135 -10.28086 -10.27958
 Alpha  occ. eigenvalues --  -10.27927 -10.27834 -10.27553 -10.27505 -10.27503
 Alpha  occ. eigenvalues --  -10.27501 -10.27457 -10.27437 -10.27176 -10.27043
 Alpha  occ. eigenvalues --  -10.26986 -10.26866 -10.26755 -10.26720 -10.26707
 Alpha  occ. eigenvalues --  -10.26572 -10.26458 -10.26315 -10.26239 -10.26195
 Alpha  occ. eigenvalues --  -10.26053 -10.25904 -10.25882 -10.25598 -10.25580
 Alpha  occ. eigenvalues --  -10.25570 -10.25437 -10.25274 -10.25180 -10.25171
 Alpha  occ. eigenvalues --  -10.24889  -3.17477  -3.17460  -1.92359  -1.92330
 Alpha  occ. eigenvalues --   -1.91947  -1.91916  -1.91776  -1.91774  -1.18606
 Alpha  occ. eigenvalues --   -1.15427  -1.09695  -1.09428  -1.08395  -1.08297
 Alpha  occ. eigenvalues --   -1.08071  -1.07435  -1.04820  -1.04310  -1.03759
 Alpha  occ. eigenvalues --   -1.03450  -1.03198  -1.02520  -1.02096  -1.01773
 Alpha  occ. eigenvalues --   -0.93560  -0.92169  -0.89192  -0.89117  -0.88533
 Alpha  occ. eigenvalues --   -0.88532  -0.88360  -0.88130  -0.87728  -0.87350
 Alpha  occ. eigenvalues --   -0.86871  -0.86783  -0.86276  -0.85297  -0.84543
 Alpha  occ. eigenvalues --   -0.83800  -0.83515  -0.83319  -0.82612  -0.82168
 Alpha  occ. eigenvalues --   -0.82050  -0.81705  -0.81047  -0.80609  -0.80496
 Alpha  occ. eigenvalues --   -0.80022  -0.78691  -0.78291  -0.77700  -0.77148
 Alpha  occ. eigenvalues --   -0.76932  -0.76754  -0.76348  -0.75819  -0.75190
 Alpha  occ. eigenvalues --   -0.74968  -0.73164  -0.72524  -0.71481  -0.71067
 Alpha  occ. eigenvalues --   -0.69908  -0.69390  -0.69119  -0.68963  -0.68316
 Alpha  occ. eigenvalues --   -0.67508  -0.67482  -0.66241  -0.65911  -0.65200
 Alpha  occ. eigenvalues --   -0.64907  -0.64896  -0.64838  -0.64462  -0.64135
 Alpha  occ. eigenvalues --   -0.64115  -0.63019  -0.61616  -0.60890  -0.60322
 Alpha  occ. eigenvalues --   -0.59852  -0.59471  -0.59325  -0.59127  -0.58776
 Alpha  occ. eigenvalues --   -0.58201  -0.58054  -0.57746  -0.57401  -0.56935
 Alpha  occ. eigenvalues --   -0.56482  -0.56099  -0.55881  -0.55745  -0.55165
 Alpha  occ. eigenvalues --   -0.54904  -0.54904  -0.54726  -0.53925  -0.53743
 Alpha  occ. eigenvalues --   -0.53457  -0.53419  -0.53239  -0.53032  -0.53007
 Alpha  occ. eigenvalues --   -0.52786  -0.52759  -0.52527  -0.52395  -0.52332
 Alpha  occ. eigenvalues --   -0.51971  -0.51641  -0.51570  -0.51476  -0.51303
 Alpha  occ. eigenvalues --   -0.51105  -0.51008  -0.50703  -0.50069  -0.50024
 Alpha  occ. eigenvalues --   -0.50000  -0.49872  -0.49499  -0.49262  -0.49243
 Alpha  occ. eigenvalues --   -0.49187  -0.49078  -0.49010  -0.48750  -0.48743
 Alpha  occ. eigenvalues --   -0.48587  -0.48568  -0.48322  -0.48226  -0.48171
 Alpha  occ. eigenvalues --   -0.47856  -0.47734  -0.47697  -0.47405  -0.47398
 Alpha  occ. eigenvalues --   -0.46900  -0.46767  -0.46665  -0.46358  -0.46276
 Alpha  occ. eigenvalues --   -0.46201  -0.46102  -0.46040  -0.45814  -0.45794
 Alpha  occ. eigenvalues --   -0.45445  -0.45271  -0.45186  -0.44775  -0.44701
 Alpha  occ. eigenvalues --   -0.44532  -0.44529  -0.44437  -0.44221  -0.44059
 Alpha  occ. eigenvalues --   -0.43981  -0.43631  -0.43430  -0.43385  -0.43117
 Alpha  occ. eigenvalues --   -0.43026  -0.43022  -0.42675  -0.42622  -0.42597
 Alpha  occ. eigenvalues --   -0.42397  -0.42141  -0.41907  -0.41846  -0.41829
 Alpha  occ. eigenvalues --   -0.41616  -0.41584  -0.41514  -0.41421  -0.41161
 Alpha  occ. eigenvalues --   -0.40955  -0.40716  -0.40587  -0.40258  -0.40081
 Alpha  occ. eigenvalues --   -0.40071  -0.39673  -0.39615  -0.39225  -0.39112
 Alpha  occ. eigenvalues --   -0.38662  -0.38174  -0.37899  -0.37785  -0.37617
 Alpha  occ. eigenvalues --   -0.36936  -0.36805  -0.36516  -0.36293  -0.36252
 Alpha  occ. eigenvalues --   -0.35948  -0.35839  -0.34666  -0.34114  -0.33993
 Alpha  occ. eigenvalues --   -0.33725  -0.33041  -0.32894  -0.31585  -0.31451
 Alpha  occ. eigenvalues --   -0.31429  -0.30775  -0.30751  -0.30720  -0.30587
 Alpha  occ. eigenvalues --   -0.30278  -0.29473  -0.29471  -0.24105  -0.24103
 Alpha  occ. eigenvalues --   -0.21365  -0.21294
 Alpha virt. eigenvalues --   -0.09227  -0.08925  -0.01461  -0.01393  -0.00178
 Alpha virt. eigenvalues --   -0.00033   0.01376   0.01941   0.02184   0.02375
 Alpha virt. eigenvalues --    0.05226   0.05285   0.05405   0.06092   0.06128

 Mulliken charges:
               1
     1  Mg   0.831064
     2  C   -0.003500
     3  C   -0.022631
     4  C   -0.061409
     5  C   -0.094160
     6  N   -0.252735
     7  C   -0.054195
     8  C    0.021053
     9  C   -0.061043
    10  C    0.018213
    11  C    0.057385
    12  C    0.048950
    13  C   -0.081510
    14  H    0.000643
    15  N   -0.364184
    16  C    0.090938
    17  C   -0.170513
    18  C   -0.041475
    19  C    0.129264
    20  C    0.140612
    21  C    0.009626
    22  O   -0.229747
    23  C    0.054898
    24  N   -0.351644
    25  C    0.076934
    26  C   -0.074960
    27  C   -0.035785
    28  C    0.084586
    29  C    0.075266
    30  C    0.058333
    31  C   -0.010527
    32  N   -0.321540
    33  C    0.100468
    34  C   -0.161309
    35  C   -0.007600
    36  C    0.104574
    37  C    0.130294
    38  C    0.044988
    39  O   -0.216228
    40  C    0.039336
    41  C    0.154799
    42  O   -0.173620
    43  O   -0.300087
    44  C    0.179697
    45  H   -0.038470
    46  H   -0.005600
    47  H   -0.029175
    48  H    0.021607
    49  H    0.016300
    50  H    0.019330
    51  H    0.019367
    52  H    0.018308
    53  H    0.008895
    54  H    0.007773
    55  H    0.022198
    56  H    0.037186
    57  H    0.036381
    58  H    0.019917
    59  H    0.011623
    60  H    0.032308
    61  H    0.020462
    62  H    0.045017
    63  H    0.021373
    64  H    0.000799
    65  H    0.029712
    66  H    0.014108
    67  H    0.016446
    68  H    0.016403
    69  H   -0.002386
    70  H    0.007277
    71  H    0.010566
    72  H    0.017273
    73  H    0.008813
    74  H    0.034191
    75  H    0.049480
    76  H    0.040249
    77  H    0.029077
    78  H    0.038760
    79  H    0.042909
    80  Mg   0.835513
    81  C    0.031240
    82  C   -0.057070
    83  C   -0.053491
    84  C   -0.058919
    85  N   -0.269258
    86  C   -0.044974
    87  C    0.001999
    88  C   -0.047175
    89  C   -0.014829
    90  C    0.074618
    91  C    0.034735
    92  C   -0.076599
    93  H    0.020634
    94  N   -0.405723
    95  C    0.178223
    96  C   -0.125151
    97  C   -0.000863
    98  C    0.109740
    99  C    0.101759
   100  C   -0.004300
   101  O   -0.244047
   102  C    0.051039
   103  N   -0.270194
   104  C    0.053234
   105  C   -0.078185
   106  C    0.027909
   107  C   -0.007830
   108  C    0.069548
   109  C    0.031240
   110  C    0.009336
   111  N   -0.344261
   112  C    0.135707
   113  C   -0.189178
   114  C    0.048242
   115  C    0.088872
   116  C    0.113945
   117  C    0.043027
   118  O   -0.170938
   119  C   -0.068838
   120  C    0.209033
   121  O   -0.207524
   122  O   -0.347380
   123  C    0.172011
   124  H   -0.027412
   125  H   -0.004063
   126  H   -0.028292
   127  H    0.008161
   128  H    0.006970
   129  H    0.010118
   130  H    0.012674
   131  H    0.036579
   132  H    0.005602
   133  H    0.014510
   134  H    0.032429
   135  H    0.046721
   136  H    0.016014
   137  H    0.027831
   138  H    0.023620
   139  H    0.009453
   140  H    0.052513
   141  H    0.022984
   142  H    0.010393
   143  H    0.010005
   144  H    0.021267
   145  H    0.019818
   146  H   -0.000302
   147  H    0.007279
   148  H    0.015375
   149  H    0.024408
   150  H    0.019928
   151  H    0.019847
   152  H    0.034818
   153  H   -0.002157
   154  H    0.035986
   155  H    0.036128
   156  H    0.043654
   157  H    0.035895
   158  H    0.046367
 Sum of Mulliken charges =  -0.00000

 Dipole moment (field-independent basis, Debye):
    X=             -2.0929    Y=              2.4375    Z=             -1.1284  Tot=              3.4051
 Quadrupole moment (field-independent basis, Debye-Ang):
   XX=           -121.6803   YY=           -482.8455   ZZ=           -504.4060
   XY=            -27.2231   XZ=            -13.2617   YZ=             -3.0657

 Normal termination of Gaussian 16 at Thu Sep  2 17:13:04 2021.
