 Gaussian 16, Revision A.03,
 Gaussian 16:  ES64L-G16RevA.03 25-Dec-2016

 ----------------------------------------------------------
 #p cam-b3lyp/Def2SVP td=(nstates=5) density=(transition=1)
 ----------------------------------------------------------

 --------------------------------
 TDDFT excited states in gaussian
 --------------------------------
 Symbolic Z-matrix:
 Charge =  0 Multiplicity = 1

                         Standard orientation:
 ---------------------------------------------------------------------
 Center     Atomic      Atomic             Coordinates (Angstroms)
 Number     Number       Type             X           Y           Z
 ---------------------------------------------------------------------
      1         12           0      -16.032825    0.394582    0.331867
      2          6           0      -15.579778   -2.397892   -1.804383
      3          6           0      -12.679317    0.902726    0.178917
      4          6           0      -16.585279    3.475068    1.660319
      5          6           0      -19.454581    0.014051   -0.067538
      6          7           0      -14.419236   -0.626479   -0.876575
      7          6           0      -14.399930   -1.791005   -1.597400
      8          6           0      -13.024651   -2.172922   -2.001995
      9          6           0      -12.103452   -1.267329   -1.056493
     10          6           0      -13.094139   -0.267787   -0.565306
     11          6           0      -11.445338   -2.083708    0.044143
     12          6           0      -12.916332   -1.949222   -3.518519
     13          6           0      -12.433226   -3.170878   -4.408508
     14          1           0      -11.214003   -3.040246   -5.370346
     15          7           0      -14.852439    1.983731    0.907927
     16          6           0      -13.453143    1.942911    0.834964
     17          6           0      -12.948256    3.088226    1.530874
     18          6           0      -14.053608    3.897813    1.960280
     19          6           0      -15.237191    3.083188    1.575499
     20          6           0      -11.450394    3.285198    1.725825
     21          6           0      -14.035206    5.231447    2.673259
     22          8           0      -12.875489    5.603429    3.015552
     23          6           0      -15.212570    6.214367    2.929176
     24          7           0      -17.790244    1.612475    0.763425
     25          6           0      -17.748791    2.833081    1.341621
     26          6           0      -19.151128    3.473000    1.519579
     27          6           0      -20.080323    2.296950    1.060040
     28          6           0      -19.019645    1.241080    0.491714
     29          6           0      -19.342137    3.890268    2.966764
     30          6           0      -21.092624    2.649184    0.013165
     31          6           0      -22.514590    2.607879    0.503299
     32          7           0      -17.298154   -0.940624   -0.521398
     33          6           0      -18.692921   -1.048034   -0.591069
     34          6           0      -19.092099   -2.262601   -1.092622
     35          6           0      -17.897466   -2.852646   -1.553404
     36          6           0      -16.855922   -1.977695   -1.253283
     37          6           0      -20.505803   -2.793307   -0.982424
     38          6           0      -17.338017   -4.092682   -2.154126
     39          8           0      -17.899050   -5.091095   -2.484117
     40          6           0      -15.823186   -3.723764   -2.380981
     41          6           0      -15.012966   -4.952763   -2.030627
     42          8           0      -14.497224   -5.709052   -2.853721
     43          8           0      -14.889939   -5.076862   -0.625382
     44          6           0      -14.009940   -6.178961   -0.237810
     45          1           0      -11.597730    0.952221    0.322720
     46          1           0      -16.809598    4.412733    2.174237
     47          1           0      -20.485641   -0.052018   -0.419288
     48          1           0      -12.865878   -3.230803   -1.792376
     49          1           0      -11.315695   -0.830251   -1.669510
     50          1           0      -12.089058   -2.867103    0.441803
     51          1           0      -11.261142   -1.425281    0.893708
     52          1           0      -10.474226   -2.493718   -0.233132
     53          1           0      -12.228293   -1.117479   -3.669175
     54          1           0      -13.823396   -1.548175   -3.970737
     55          1           0      -13.328952   -3.327069   -5.010216
     56          1           0      -12.397691   -4.086470   -3.819320
     57          1           0      -10.915457    3.184840    0.781423
     58          1           0      -11.124155    2.479898    2.383866
     59          1           0      -11.110929    4.264107    2.067130
     60          1           0      -15.818657    5.687054    3.665167
     61          1           0      -15.758465    6.351576    1.995684
     62          1           0      -14.874707    7.192396    3.272859
     63          1           0      -19.311547    4.367225    0.917840
     64          1           0      -20.506304    1.799075    1.930731
     65          1           0      -18.477250    4.488141    3.254696
     66          1           0      -19.388232    2.987197    3.576245
     67          1           0      -20.265820    4.385697    3.263460
     68          1           0      -21.091989    1.972221   -0.841134
     69          1           0      -20.980966    3.619363   -0.470570
     70          1           0      -22.971948    3.571477    0.282201
     71          1           0      -22.585522    2.512544    1.586804
     72          1           0      -23.101174    1.779119    0.105412
     73          1           0      -20.436037   -3.868282   -1.151835
     74          1           0      -21.172899   -2.350753   -1.721790
     75          1           0      -20.820227   -2.531666    0.027667
     76          1           0      -15.763899   -3.688695   -3.469417
     77          1           0      -13.557817   -5.982842    0.734510
     78          1           0      -13.135265   -6.235416   -0.884220
     79          1           0      -14.506618   -7.149452   -0.255592
     80         12           0       16.156036    0.670845   -0.359523
     81          6           0       15.695791   -2.122460    1.875525
     82          6           0       13.193477    1.991443    0.973364
     83          6           0       16.618799    3.278962   -2.299489
     84          6           0       18.906446   -0.965948   -1.765682
     85          7           0       14.610190   -0.067504    1.265930
     86          6           0       14.748972   -1.084304    2.157056
     87          6           0       13.756854   -0.975988    3.303536
     88          6           0       12.712197    0.173594    2.811318
     89          6           0       13.523694    0.722804    1.602525
     90          6           0       11.277790   -0.329952    2.512800
     91          6           0       14.446187   -0.648174    4.670994
     92          6           0       14.151899   -1.681752    5.788931
     93          1           0       13.316904   -1.064402    7.053115
     94          7           0       15.093669    2.346179   -0.612263
     95          6           0       13.855511    2.764671   -0.017298
     96          6           0       13.398521    4.095348   -0.483110
     97          6           0       14.449324    4.459116   -1.387545
     98          6           0       15.427520    3.360552   -1.455919
     99          6           0       12.103011    4.781867   -0.045710
    100          6           0       14.555733    5.668277   -2.236566
    101          8           0       15.568617    6.049263   -2.813343
    102          6           0       13.339136    6.612416   -2.301401
    103          7           0       17.640890    1.141550   -1.668602
    104          6           0       17.604239    2.284263   -2.391371
    105          6           0       18.609222    2.304405   -3.509373
    106          6           0       19.395136    0.980529   -3.342934
    107          6           0       18.658215    0.337857   -2.146273
    108          6           0       18.023854    2.552031   -4.883840
    109          6           0       20.965031    1.282295   -2.974921
    110          6           0       22.063219    0.573624   -3.939306
    111          7           0       16.976722   -1.285988   -0.223668
    112          6           0       18.169072   -1.752139   -0.828029
    113          6           0       18.460497   -3.078834   -0.272967
    114          6           0       17.600147   -3.158355    0.853601
    115          6           0       16.662216   -2.128732    0.763397
    116          6           0       19.483508   -4.121725   -0.713037
    117          6           0       17.157691   -4.122922    1.899840
    118          8           0       17.493305   -5.289013    2.247748
    119          6           0       15.984131   -3.389596    2.657389
    120          6           0       14.802048   -4.312077    2.707879
    121          8           0       14.412625   -4.962713    1.779756
    122          8           0       14.328630   -4.378517    3.988857
    123          6           0       13.391852   -5.512692    4.190469
    124          1           0       12.202925    2.290896    1.321470
    125          1           0       16.826954    4.114908   -2.970989
    126          1           0       19.784056   -1.479535   -2.163183
    127          1           0       13.221824   -1.925386    3.327013
    128          1           0       12.641411    1.002744    3.515819
    129          1           0       11.042616   -0.226793    1.453077
    130          1           0       10.549012    0.219928    3.109715
    131          1           0       11.061128   -1.355056    2.813430
    132          1           0       14.129571    0.319611    5.060766
    133          1           0       15.532048   -0.618992    4.576840
    134          1           0       15.047595   -2.003626    6.320820
    135          1           0       13.702205   -2.615228    5.452018
    136          1           0       11.629647    4.414041    0.865185
    137          1           0       11.325426    4.845406   -0.806844
    138          1           0       12.391260    5.813565    0.158321
    139          1           0       12.477306    6.092594   -2.719804
    140          1           0       13.553574    7.528162   -2.853368
    141          1           0       13.099507    6.915744   -1.282262
    142          1           0       19.245989    3.179209   -3.370891
    143          1           0       19.288219    0.343857   -4.220687
    144          1           0       18.246020    3.543710   -5.278897
    145          1           0       16.935262    2.530712   -4.933647
    146          1           0       18.396295    1.773924   -5.550447
    147          1           0       21.244873    0.997391   -1.961237
    148          1           0       21.207765    2.343524   -3.022657
    149          1           0       21.532029    0.344901   -4.863434
    150          1           0       22.478665   -0.328192   -3.487721
    151          1           0       22.828716    1.281306   -4.256513
    152          1           0       19.859251   -4.708904    0.124674
    153          1           0       20.368927   -3.582885   -1.052361
    154          1           0       18.993510   -4.616692   -1.551618
    155          1           0       16.321151   -3.288096    3.688686
    156          1           0       12.609743   -5.424649    3.436621
    157          1           0       12.927136   -5.287381    5.150227
    158          1           0       13.766610   -6.533355    4.114118
 ---------------------------------------------------------------------

 SCF Done:  E(RCAM-B3LYP) =  -4069.80129204     A.U. after   19 cycles

 Excitation energies and oscillator strengths:

 Excited State   1:      Singlet-A      1.6720 eV  741.52 nm  f=0.3653  <S**2>=0.000
     310 -> 316       -0.18656
     312 -> 314        0.67923
     310 <- 316       -0.11099
 This state for optimization and/or second-order correction.
 Total Energy, E(TD-HF/TD-DFT) =  -4069.73984653
 Copying the excited state density for this state as the 1-particle RhoCI density.

 Excited State   2:      Singlet-A      1.6838 eV  736.35 nm  f=0.3687  <S**2>=0.000
     309 -> 315       -0.17267
     311 -> 313        0.68176
     309 <- 315       -0.10716

 Excited State   3:      Singlet-A      2.1741 eV  570.28 nm  f=0.1344  <S**2>=0.000
     310 -> 314        0.64731
     312 -> 316        0.27758

 Excited State   4:      Singlet-A      2.2195 eV  558.61 nm  f=0.1593  <S**2>=0.000
     309 -> 313        0.64873
     311 -> 315        0.26680

 Excited State   5:      Singlet-A      2.9506 eV  420.20 nm  f=0.0000  <S**2>=0.000
     312 -> 313        0.70709

 The electronic state is 1-A.
 Alpha  occ. eigenvalues --  -46.89071 -46.88530 -19.25686 -19.25649 -19.21067
 Alpha  occ. eigenvalues --  -19.19914 -19.19746 -19.18951 -19.18685 -19.18371
 Alpha  occ. eigenvalues --  -14.42607 -14.42432 -14.42293 -14.41934 -14.40715
 Alpha  occ. eigenvalues --  -14.40152 -14.39249 -14.39061 -10.40412 -10.38820
 Alpha  occ. eigenvalues --  -10.35730 -10.35539 -10.35142 -10.35121 -10.32048
 Alpha  occ. eigenvalues --  -10.31928 -10.31828 -10.31720 -10.31576 -10.31488
 Alpha  occ. eigenvalues --  -10.31289 -10.31186 -10.30916 -10.30866 -10.30798
 Alpha  occ. eigenvalues --  -10.30729 -10.30697 -10.30666 -10.30615 -10.29978
 Alpha  occ. eigenvalues --  -10.29123 -10.29099 -10.29041 -10.28993 -10.28927
 Alpha  occ. eigenvalues --  -10.28908 -10.28630 -10.28629 -10.28606 -10.28602
 Alpha  occ. eigenvalues --  -10.28528 -10.28464 -10.28449 -10.28387 -10.28383
 Alpha  occ. eigenvalues --  -10.28267 -10.28239 -10.28081 -10.28046 -10.27960
 Alpha  occ. eigenvalues --  -10.27831 -10.27791 -10.27541 -10.27439 -10.27363
 Alpha  occ. eigenvalues --  -10.27329 -10.27237 -10.27143 -10.27097 -10.27033
 Alpha  occ. eigenvalues --  -10.26821 -10.26756 -10.26653 -10.26597 -10.26550
 Alpha  occ. eigenvalues --  -10.26351 -10.26123 -10.26110 -10.26052 -10.26010
 Alpha  occ. eigenvalues --  -10.25912 -10.25489 -10.25441 -10.25256 -10.25188
 Alpha  occ. eigenvalues --  -10.25147  -3.17634  -3.17173  -1.92515  -1.92095
 Alpha  occ. eigenvalues --   -1.92070  -1.91939  -1.91628  -1.91494  -1.16964
 Alpha  occ. eigenvalues --   -1.15648  -1.12101  -1.09966  -1.08687  -1.08010
 Alpha  occ. eigenvalues --   -1.07697  -1.07065  -1.05316  -1.04337  -1.03998
 Alpha  occ. eigenvalues --   -1.03421  -1.03266  -1.02816  -1.02582  -1.02015
 Alpha  occ. eigenvalues --   -0.93381  -0.91575  -0.89994  -0.89385  -0.89127
 Alpha  occ. eigenvalues --   -0.88640  -0.88495  -0.88128  -0.87929  -0.87412
 Alpha  occ. eigenvalues --   -0.87076  -0.86994  -0.86020  -0.85635  -0.84903
 Alpha  occ. eigenvalues --   -0.84342  -0.84022  -0.83170  -0.82698  -0.82018
 Alpha  occ. eigenvalues --   -0.81816  -0.81392  -0.80769  -0.80675  -0.80558
 Alpha  occ. eigenvalues --   -0.79758  -0.79094  -0.77879  -0.77524  -0.77097
 Alpha  occ. eigenvalues --   -0.76966  -0.76786  -0.76562  -0.76036  -0.75576
 Alpha  occ. eigenvalues --   -0.75226  -0.73593  -0.72555  -0.72293  -0.71418
 Alpha  occ. eigenvalues --   -0.69478  -0.69174  -0.69052  -0.68746  -0.67780
 Alpha  occ. eigenvalues --   -0.67595  -0.67304  -0.67089  -0.66415  -0.65919
 Alpha  occ. eigenvalues --   -0.65764  -0.65634  -0.65419  -0.65000  -0.64386
 Alpha  occ. eigenvalues --   -0.63996  -0.63186  -0.62368  -0.60800  -0.60598
 Alpha  occ. eigenvalues --   -0.60163  -0.59664  -0.59262  -0.59028  -0.58736
 Alpha  occ. eigenvalues --   -0.58347  -0.58126  -0.57957  -0.57138  -0.56955
 Alpha  occ. eigenvalues --   -0.56298  -0.56137  -0.55894  -0.55698  -0.55276
 Alpha  occ. eigenvalues --   -0.55064  -0.55013  -0.54496  -0.54416  -0.53966
 Alpha  occ. eigenvalues --   -0.53778  -0.53654  -0.53394  -0.53273  -0.52766
 Alpha  occ. eigenvalues --   -0.52665  -0.52562  -0.52354  -0.52153  -0.52114
 Alpha  occ. eigenvalues --   -0.51785  -0.51653  -0.51449  -0.51376  -0.51187
 Alpha  occ. eigenvalues --   -0.50946  -0.50848  -0.50612  -0.50459  -0.50361
 Alpha  occ. eigenvalues --   -0.50109  -0.50063  -0.49967  -0.49934  -0.49802
 Alpha  occ. eigenvalues --   -0.49726  -0.49425  -0.49208  -0.48980  -0.48783
 Alpha  occ. eigenvalues --   -0.48713  -0.48412  -0.48244  -0.48114  -0.48063
 Alpha  occ. eigenvalues --   -0.48005  -0.47796  -0.47564  -0.47467  -0.47282
 Alpha  occ. eigenvalues --   -0.47045  -0.46954  -0.46840  -0.46674  -0.46568
 Alpha  occ. eigenvalues --   -0.46530  -0.46201  -0.46087  -0.45978  -0.45944
 Alpha  occ. eigenvalues --   -0.45813  -0.45574  -0.45561  -0.45374  -0.45219
 Alpha  occ. eigenvalues --   -0.44988  -0.44954  -0.44813  -0.44774  -0.44373
 Alpha  occ. eigenvalues --   -0.44119  -0.44097  -0.44041  -0.43882  -0.43785
 Alpha  occ. eigenvalues --   -0.43730  -0.43334  -0.43319  -0.42860  -0.42720
 Alpha  occ. eigenvalues --   -0.42608  -0.42563  -0.42500  -0.42479  -0.42216
 Alpha  occ. eigenvalues --   -0.42138  -0.42033  -0.41800  -0.41647  -0.41544
 Alpha  occ. eigenvalues --   -0.41464  -0.41312  -0.41178  -0.40792  -0.40693
 Alpha  occ. eigenvalues --   -0.40433  -0.40195  -0.40176  -0.39376  -0.39102
 Alpha  occ. eigenvalues --   -0.38839  -0.38599  -0.38290  -0.38232  -0.37875
 Alpha  occ. eigenvalues --   -0.37488  -0.37395  -0.37342  -0.37315  -0.36488
 Alpha  occ. eigenvalues --   -0.36378  -0.35502  -0.35475  -0.34763  -0.34639
 Alpha  occ. eigenvalues --   -0.34421  -0.33254  -0.33018  -0.31813  -0.31632
 Alpha  occ. eigenvalues --   -0.31186  -0.30989  -0.30652  -0.30596  -0.30271
 Alpha  occ. eigenvalues --   -0.30083  -0.29855  -0.29383  -0.24476  -0.23905
 Alpha  occ. eigenvalues --   -0.21708  -0.21304
 Alpha virt. eigenvalues --   -0.09392  -0.08979  -0.01897  -0.01833   0.00132
 Alpha virt. eigenvalues --    0.00163   0.01735   0.02057   0.02342   0.03558
 Alpha virt. eigenvalues --    0.04087   0.04226   0.04957   0.05216   0.05645

 Mulliken charges:
               1
     1  Mg  12.000228
     2  C    5.996789
     3  C    6.000055
     4  C    6.004678
     5  C    6.001681
     6  N    6.996686
     7  C    6.003606
     8  C    5.998758
     9  C    6.002053
    10  C    5.996888
    11  C    6.000634
    12  C    5.999337
    13  C    6.000074
    14  H    1.000581
    15  N    7.001237
    16  C    5.994742
    17  C    5.997629
    18  C    5.998883
    19  C    5.994103
    20  C    6.000468
    21  C    5.998683
    22  O    7.997435
    23  C    5.999775
    24  N    7.002199
    25  C    5.995039
    26  C    6.001419
    27  C    5.999196
    28  C    6.002259
    29  C    6.000476
    30  C    5.999321
    31  C    5.999727
    32  N    6.999822
    33  C    6.003574
    34  C    6.003472
    35  C    6.000602
    36  C    6.004715
    37  C    5.999984
    38  C    6.002270
    39  O    8.003338
    40  C    6.000410
    41  C    6.000411
    42  O    8.000821
    43  O    7.999731
    44  C    5.999581
    45  H    0.997964
    46  H    0.999891
    47  H    1.001999
    48  H    0.999861
    49  H    0.999174
    50  H    0.998235
    51  H    1.000524
    52  H    0.998605
    53  H    1.001229
    54  H    0.999573
    55  H    0.999500
    56  H    0.999890
    57  H    0.997646
    58  H    0.997721
    59  H    0.997926
    60  H    0.998867
    61  H    0.998793
    62  H    0.998610
    63  H    0.999869
    64  H    1.000302
    65  H    1.000930
    66  H    0.999413
    67  H    0.999231
    68  H    0.999365
    69  H    1.001327
    70  H    1.000903
    71  H    1.000687
    72  H    0.999791
    73  H    1.001930
    74  H    1.002595
    75  H    1.002042
    76  H    1.000581
    77  H    1.000849
    78  H    1.000664
    79  H    1.000139
    80  Mg  11.995590
    81  C    6.028397
    82  C    5.993223
    83  C    5.965939
    84  C    6.011062
    85  N    7.016952
    86  C    5.964225
    87  C    6.010472
    88  C    5.987435
    89  C    6.031392
    90  C    5.997065
    91  C    6.001826
    92  C    6.002068
    93  H    0.992759
    94  N    6.993133
    95  C    6.039401
    96  C    6.024112
    97  C    6.014404
    98  C    6.032165
    99  C    5.995055
   100  C    6.011400
   101  O    8.031675
   102  C    5.995623
   103  N    6.992046
   104  C    6.040193
   105  C    5.989511
   106  C    6.012218
   107  C    5.968445
   108  C    5.999185
   109  C    6.005066
   110  C    6.000928
   111  N    7.004780
   112  C    5.953764
   113  C    5.969897
   114  C    5.995251
   115  C    5.966625
   116  C    5.999840
   117  C    5.990449
   118  O    7.969206
   119  C    5.995261
   120  C    5.993220
   121  O    7.999771
   122  O    7.998107
   123  C    6.002165
   124  H    1.013497
   125  H    1.001048
   126  H    0.987291
   127  H    1.002371
   128  H    1.001257
   129  H    0.999515
   130  H    1.003993
   131  H    1.014272
   132  H    0.990784
   133  H    1.004968
   134  H    1.003025
   135  H    1.001970
   136  H    1.016721
   137  H    1.020242
   138  H    1.016614
   139  H    1.007747
   140  H    1.014930
   141  H    1.005291
   142  H    0.998873
   143  H    0.996048
   144  H    0.997655
   145  H    0.994668
   146  H    1.009990
   147  H    1.001030
   148  H    0.987309
   149  H    0.995979
   150  H    1.002870
   151  H    0.993537
   152  H    0.984273
   153  H    0.983055
   154  H    0.982586
   155  H    0.995261
   156  H    0.995374
   157  H    0.994804
   158  H    0.999851
 Sum of Mulliken charges = 624.00000

 Dipole moment (field-independent basis, Debye):
    X=             -7.0880    Y=              7.9779    Z=             -1.1588  Tot=             10.7345
 Quadrupole moment (field-independent basis, Debye-Ang):
   XX=           -165.1075   YY=              9.7566   ZZ=             -1.7121
   XY=            149.0216   XZ=             -2.0043   YZ=             -3.9109

 Normal termination of Gaussian 16 at Wed Sep 22 19:02:28 2021.
