 Gaussian 16, Revision A.03,
 Gaussian 16:  ES64L-G16RevA.03 25-Dec-2016

 ----------------------------------------------------------
 #p cam-b3lyp/Def2SVP td=(nstates=5) density=(transition=1)
 ----------------------------------------------------------

 --------------------------------
 TDDFT excited states in gaussian
 --------------------------------
 Symbolic Z-matrix:
 Charge =  0 Multiplicity = 1

                         Standard orientation:
 ---------------------------------------------------------------------
 Center     Atomic      Atomic             Coordinates (Angstroms)
 Number     Number       Type             X           Y           Z
 ---------------------------------------------------------------------
      1         12           0       33.263624    0.466159   -0.402449
      2          6           0       31.520146   -2.420855    0.362397
      3          6           0       30.935099    2.293425    1.555074
      4          6           0       35.234973    3.260156   -0.625003
      5          6           0       35.775199   -1.374611   -1.896626
      6          7           0       31.380180   -0.036450    0.691329
      7          6           0       30.929751   -1.314928    0.945050
      8          6           0       29.763533   -1.383324    2.000938
      9          6           0       29.328439    0.156476    2.063140
     10          6           0       30.585135    0.918551    1.361256
     11          6           0       27.951113    0.594499    1.434244
     12          6           0       30.145809   -1.917829    3.336258
     13          6           0       29.497259   -3.174612    3.884039
     14          1           0       29.406521   -3.274335    5.415241
     15          7           0       33.055057    2.537339    0.288791
     16          6           0       31.970828    3.040161    1.032429
     17          6           0       32.125078    4.448793    1.211888
     18          6           0       33.491336    4.738800    0.703012
     19          6           0       34.023946    3.484122    0.087151
     20          6           0       31.168885    5.320765    2.032307
     21          6           0       34.109868    6.142106    0.828038
     22          8           0       33.607742    7.131877    1.352774
     23          6           0       35.572399    6.259252    0.581897
     24          7           0       35.392478    0.878788   -1.024978
     25          6           0       35.837156    2.134490   -1.170287
     26          6           0       37.328941    2.032914   -1.484937
     27          6           0       37.556393    0.536701   -2.003615
     28          6           0       36.124277   -0.067635   -1.651878
     29          6           0       37.691600    3.025799   -2.645552
     30          6           0       38.733321   -0.335706   -1.401716
     31          6           0       39.899832   -0.769706   -2.276652
     32          7           0       33.577944   -1.534580   -0.797351
     33          6           0       34.643495   -2.156164   -1.455919
     34          6           0       34.459090   -3.575207   -1.450117
     35          6           0       33.234815   -3.766348   -0.737949
     36          6           0       32.739636   -2.442575   -0.416889
     37          6           0       35.346962   -4.633502   -2.024941
     38          6           0       32.277204   -4.689634   -0.286586
     39          8           0       32.289248   -5.898419   -0.406144
     40          6           0       31.177354   -3.885093    0.508744
     41          6           0       29.851193   -4.369216    0.094518
     42          8           0       29.156116   -5.103386    0.787690
     43          8           0       29.544090   -3.896610   -1.172696
     44          6           0       28.238170   -4.383410   -1.671309
     45          1           0       30.263538    2.964472    2.093862
     46          1           0       35.757004    4.214405   -0.725759
     47          1           0       36.598981   -1.941844   -2.334615
     48          1           0       28.943943   -1.976046    1.596157
     49          1           0       29.378816    0.447786    3.112898
     50          1           0       27.383881   -0.316406    1.243190
     51          1           0       28.035425    1.182995    0.520548
     52          1           0       27.463952    1.243032    2.161422
     53          1           0       29.875249   -1.149322    4.061906
     54          1           0       31.212264   -2.139713    3.356033
     55          1           0       30.122560   -4.019906    3.598159
     56          1           0       28.467128   -3.307917    3.554431
     57          1           0       30.329509    4.886870    2.575248
     58          1           0       30.862782    6.067441    1.300005
     59          1           0       31.844251    5.911662    2.650209
     60          1           0       35.935219    6.466987   -0.423821
     61          1           0       36.131002    5.428630    1.013590
     62          1           0       35.894576    7.149021    1.124114
     63          1           0       37.959494    2.241029   -0.620234
     64          1           0       37.588339    0.517958   -3.092424
     65          1           0       38.559071    3.594728   -2.311045
     66          1           0       36.894613    3.705911   -2.948790
     67          1           0       37.944977    2.522186   -3.578721
     68          1           0       38.227154   -1.214920   -1.003731
     69          1           0       39.182618    0.292068   -0.630964
     70          1           0       40.299843   -1.660127   -1.790981
     71          1           0       40.671652   -0.000505   -2.241898
     72          1           0       39.728131   -1.051412   -3.314991
     73          1           0       34.852015   -5.582400   -1.816599
     74          1           0       36.324168   -4.523692   -1.555694
     75          1           0       35.486943   -4.586658   -3.105051
     76          1           0       31.329672   -4.200063    1.541620
     77          1           0       28.369644   -5.320286   -2.212574
     78          1           0       27.814258   -3.559997   -2.246063
     79          1           0       27.526676   -4.537861   -0.860622
     80         12           0      -33.494717   -0.406852   -0.640654
     81          6           0      -30.616783    1.597403   -0.281446
     82          6           0      -31.766462   -2.933434    0.854899
     83          6           0      -36.460799   -2.069546   -0.295317
     84          6           0      -35.167398    2.562153   -1.683324
     85          7           0      -31.431433   -0.591702    0.334285
     86          6           0      -30.366902    0.258799    0.245549
     87          6           0      -29.139907   -0.260640    1.014671
     88          6           0      -29.524922   -1.820333    0.974139
     89          6           0      -31.007974   -1.787905    0.700095
     90          6           0      -28.773313   -2.672582   -0.083352
     91          6           0      -29.024324    0.267698    2.514963
     92          6           0      -27.657945    0.293891    3.182368
     93          1           0      -27.290296   -0.657890    4.340587
     94          7           0      -34.124564   -2.307798    0.142473
     95          6           0      -33.207644   -3.220982    0.575571
     96          6           0      -33.798972   -4.468827    0.779855
     97          6           0      -35.189187   -4.283517    0.428936
     98          6           0      -35.353903   -2.840698    0.094137
     99          6           0      -33.064871   -5.721170    1.243688
    100          6           0      -36.194771   -5.411996    0.466460
    101          8           0      -35.821852   -6.564706    0.805436
    102          6           0      -37.684752   -5.266541   -0.004201
    103          7           0      -35.457756    0.205179   -0.959183
    104          6           0      -36.536250   -0.701916   -0.775220
    105          6           0      -37.783407   -0.150613   -1.408437
    106          6           0      -37.512966    1.364585   -1.532124
    107          6           0      -35.958199    1.407079   -1.470945
    108          6           0      -38.223963   -0.650684   -2.802793
    109          6           0      -38.139257    2.204281   -0.298124
    110          6           0      -39.602287    2.615326   -0.367603
    111          7           0      -32.928211    1.619705   -1.095298
    112          6           0      -33.705104    2.690388   -1.511586
    113          6           0      -32.966137    3.855311   -1.596736
    114          6           0      -31.684110    3.474001   -1.165201
    115          6           0      -31.727107    2.105544   -0.849366
    116          6           0      -33.491954    5.179890   -2.052257
    117          6           0      -30.393587    3.903365   -1.028740
    118          8           0      -29.879258    4.955416   -1.353473
    119          6           0      -29.718931    2.781450   -0.211693
    120          6           0      -29.532102    3.361874    1.158337
    121          8           0      -30.420547    3.780808    1.833048
    122          8           0      -28.174893    3.407307    1.482003
    123          6           0      -27.933332    4.102140    2.698485
    124          1           0      -31.200245   -3.824549    1.134626
    125          1           0      -37.402107   -2.614057   -0.399301
    126          1           0      -35.713595    3.389521   -2.140639
    127          1           0      -28.219783   -0.176607    0.437353
    128          1           0      -29.246526   -2.229017    1.945119
    129          1           0      -27.982015   -3.134309    0.507872
    130          1           0      -28.310819   -2.059043   -0.856414
    131          1           0      -29.411457   -3.453766   -0.496746
    132          1           0      -29.616799   -0.356690    3.183770
    133          1           0      -29.508943    1.244092    2.534267
    134          1           0      -27.558559    1.322571    3.531862
    135          1           0      -26.914878    0.160072    2.396374
    136          1           0      -33.355945   -6.695411    0.849536
    137          1           0      -33.214178   -5.594181    2.315667
    138          1           0      -32.023689   -5.680779    0.923603
    139          1           0      -37.706725   -5.014935   -1.064192
    140          1           0      -38.057448   -4.481278    0.653201
    141          1           0      -38.344943   -6.103230    0.223883
    142          1           0      -38.581732   -0.290382   -0.680296
    143          1           0      -37.896035    1.778692   -2.464866
    144          1           0      -38.164474    0.089326   -3.600690
    145          1           0      -39.062585   -1.343378   -2.729153
    146          1           0      -37.432870   -1.343670   -3.088779
    147          1           0      -37.482819    3.074033   -0.315849
    148          1           0      -38.006182    1.668683    0.642027
    149          1           0      -40.106737    2.293934    0.543226
    150          1           0      -40.069644    2.134646   -1.227484
    151          1           0      -39.708992    3.699640   -0.408233
    152          1           0      -33.176613    5.900791   -1.298518
    153          1           0      -34.581909    5.218593   -2.063622
    154          1           0      -33.083426    5.490636   -3.013995
    155          1           0      -28.753548    2.566992   -0.668813
    156          1           0      -27.732847    5.151913    2.486029
    157          1           0      -27.003126    3.811023    3.187890
    158          1           0      -28.773565    4.038203    3.387766
 ---------------------------------------------------------------------

 SCF Done:  E(RCAM-B3LYP) =  -4069.77076965     A.U. after   19 cycles

 Excitation energies and oscillator strengths:

 Excited State   1:      Singlet-A      1.7067 eV  726.48 nm  f=0.3917  <S**2>=0.000
     310 -> 315       -0.18533
     312 -> 314        0.68229
     310 <- 315       -0.10818
 This state for optimization and/or second-order correction.
 Total Energy, E(TD-HF/TD-DFT) =  -4069.70805133
 Copying the excited state density for this state as the 1-particle RhoCI density.

 Excited State   2:      Singlet-A      1.7132 eV  723.71 nm  f=0.3909  <S**2>=0.000
     309 -> 316        0.17420
     311 -> 313        0.68624
     309 <- 316        0.10489

 Excited State   3:      Singlet-A      2.1433 eV  578.46 nm  f=0.1306  <S**2>=0.000
     310 -> 314        0.65033
     312 -> 315        0.26016

 Excited State   4:      Singlet-A      2.1719 eV  570.86 nm  f=0.1592  <S**2>=0.000
     309 -> 313        0.65199
     311 -> 316       -0.25356

 Excited State   5:      Singlet-A      3.2069 eV  386.61 nm  f=0.0000  <S**2>=0.000
     312 -> 313        0.70711

 The electronic state is 1-A.
 Alpha  occ. eigenvalues --  -46.90509 -46.90329 -19.25408 -19.25150 -19.20939
 Alpha  occ. eigenvalues --  -19.19855 -19.19136 -19.18328 -19.18110 -19.17900
 Alpha  occ. eigenvalues --  -14.43514 -14.43192 -14.42685 -14.42019 -14.40075
 Alpha  occ. eigenvalues --  -14.39899 -14.39837 -14.39221 -10.39715 -10.39153
 Alpha  occ. eigenvalues --  -10.35300 -10.35040 -10.34216 -10.33372 -10.33135
 Alpha  occ. eigenvalues --  -10.32417 -10.32342 -10.32099 -10.31709 -10.31697
 Alpha  occ. eigenvalues --  -10.31651 -10.31540 -10.31003 -10.30956 -10.30851
 Alpha  occ. eigenvalues --  -10.30731 -10.30445 -10.30243 -10.30153 -10.29963
 Alpha  occ. eigenvalues --  -10.29859 -10.29450 -10.29250 -10.29119 -10.29113
 Alpha  occ. eigenvalues --  -10.28735 -10.28698 -10.28543 -10.28463 -10.28339
 Alpha  occ. eigenvalues --  -10.28319 -10.28317 -10.28291 -10.28289 -10.28226
 Alpha  occ. eigenvalues --  -10.28223 -10.28077 -10.28068 -10.27974 -10.27922
 Alpha  occ. eigenvalues --  -10.27879 -10.27855 -10.27683 -10.27565 -10.27488
 Alpha  occ. eigenvalues --  -10.27466 -10.27427 -10.27360 -10.27354 -10.27054
 Alpha  occ. eigenvalues --  -10.27012 -10.26857 -10.26605 -10.26506 -10.26495
 Alpha  occ. eigenvalues --  -10.26382 -10.26274 -10.26202 -10.26098 -10.26077
 Alpha  occ. eigenvalues --  -10.25923 -10.25858 -10.25675 -10.25439 -10.24936
 Alpha  occ. eigenvalues --  -10.24182  -3.18720  -3.18621  -1.93648  -1.93519
 Alpha  occ. eigenvalues --   -1.93151  -1.93069  -1.93022  -1.92918  -1.17656
 Alpha  occ. eigenvalues --   -1.15564  -1.10084  -1.10063  -1.09796  -1.09524
 Alpha  occ. eigenvalues --   -1.07508  -1.07336  -1.05772  -1.04845  -1.04666
 Alpha  occ. eigenvalues --   -1.04082  -1.03938  -1.02597  -1.01932  -1.01763
 Alpha  occ. eigenvalues --   -0.94358  -0.92613  -0.89529  -0.89407  -0.88983
 Alpha  occ. eigenvalues --   -0.88740  -0.88698  -0.88219  -0.87721  -0.87582
 Alpha  occ. eigenvalues --   -0.87200  -0.87118  -0.85928  -0.85843  -0.84542
 Alpha  occ. eigenvalues --   -0.84404  -0.83869  -0.83654  -0.82933  -0.82923
 Alpha  occ. eigenvalues --   -0.82255  -0.81907  -0.80915  -0.80779  -0.80710
 Alpha  occ. eigenvalues --   -0.80368  -0.78090  -0.77862  -0.77408  -0.77213
 Alpha  occ. eigenvalues --   -0.77015  -0.76968  -0.76247  -0.75986  -0.75711
 Alpha  occ. eigenvalues --   -0.75553  -0.73631  -0.73530  -0.72310  -0.72274
 Alpha  occ. eigenvalues --   -0.69507  -0.69420  -0.69021  -0.68497  -0.68453
 Alpha  occ. eigenvalues --   -0.68019  -0.67184  -0.67159  -0.66331  -0.65659
 Alpha  occ. eigenvalues --   -0.65500  -0.65385  -0.65276  -0.64836  -0.64769
 Alpha  occ. eigenvalues --   -0.64240  -0.63034  -0.62833  -0.60545  -0.60278
 Alpha  occ. eigenvalues --   -0.60174  -0.59776  -0.59633  -0.59486  -0.59206
 Alpha  occ. eigenvalues --   -0.59094  -0.59045  -0.58082  -0.57819  -0.57013
 Alpha  occ. eigenvalues --   -0.56579  -0.56524  -0.56001  -0.55803  -0.55474
 Alpha  occ. eigenvalues --   -0.55331  -0.55102  -0.54836  -0.53872  -0.53866
 Alpha  occ. eigenvalues --   -0.53573  -0.53548  -0.53261  -0.53218  -0.52853
 Alpha  occ. eigenvalues --   -0.52814  -0.52809  -0.52625  -0.52510  -0.52298
 Alpha  occ. eigenvalues --   -0.52120  -0.51871  -0.51850  -0.51463  -0.51353
 Alpha  occ. eigenvalues --   -0.51240  -0.50960  -0.50839  -0.50628  -0.50403
 Alpha  occ. eigenvalues --   -0.50236  -0.50171  -0.49851  -0.49765  -0.49738
 Alpha  occ. eigenvalues --   -0.49521  -0.49372  -0.49169  -0.49017  -0.48897
 Alpha  occ. eigenvalues --   -0.48834  -0.48671  -0.48455  -0.48335  -0.47974
 Alpha  occ. eigenvalues --   -0.47960  -0.47821  -0.47365  -0.47246  -0.47197
 Alpha  occ. eigenvalues --   -0.47037  -0.47026  -0.46731  -0.46619  -0.46609
 Alpha  occ. eigenvalues --   -0.46418  -0.46366  -0.46153  -0.46041  -0.46016
 Alpha  occ. eigenvalues --   -0.45861  -0.45803  -0.45712  -0.45334  -0.45303
 Alpha  occ. eigenvalues --   -0.45212  -0.45097  -0.44737  -0.44697  -0.44613
 Alpha  occ. eigenvalues --   -0.44548  -0.44144  -0.43869  -0.43787  -0.43750
 Alpha  occ. eigenvalues --   -0.43658  -0.43353  -0.43273  -0.43004  -0.42960
 Alpha  occ. eigenvalues --   -0.42781  -0.42607  -0.42518  -0.42450  -0.42253
 Alpha  occ. eigenvalues --   -0.42203  -0.41618  -0.41566  -0.41525  -0.41341
 Alpha  occ. eigenvalues --   -0.41299  -0.41207  -0.41034  -0.40523  -0.40509
 Alpha  occ. eigenvalues --   -0.40324  -0.39991  -0.39735  -0.39489  -0.39416
 Alpha  occ. eigenvalues --   -0.38507  -0.38373  -0.37839  -0.37824  -0.37662
 Alpha  occ. eigenvalues --   -0.37434  -0.37238  -0.37154  -0.36973  -0.36808
 Alpha  occ. eigenvalues --   -0.36600  -0.35919  -0.35517  -0.35070  -0.34514
 Alpha  occ. eigenvalues --   -0.34341  -0.33427  -0.33357  -0.31786  -0.31461
 Alpha  occ. eigenvalues --   -0.31246  -0.30551  -0.30463  -0.30214  -0.30047
 Alpha  occ. eigenvalues --   -0.29940  -0.29604  -0.29533  -0.24638  -0.24337
 Alpha  occ. eigenvalues --   -0.22177  -0.22052
 Alpha virt. eigenvalues --   -0.09749  -0.09606  -0.02495  -0.02361  -0.00093
 Alpha virt. eigenvalues --   -0.00002   0.01409   0.02192   0.02314   0.02584
 Alpha virt. eigenvalues --    0.04284   0.04486   0.05138   0.05245   0.05491

 Mulliken charges:
               1
     1  Mg  12.000038
     2  C    6.000643
     3  C    5.999802
     4  C    5.999235
     5  C    6.000107
     6  N    7.000311
     7  C    5.999296
     8  C    6.000213
     9  C    5.999905
    10  C    6.000608
    11  C    5.999886
    12  C    5.999986
    13  C    6.000029
    14  H    0.999913
    15  N    6.999712
    16  C    6.000865
    17  C    6.000416
    18  C    6.000168
    19  C    6.000933
    20  C    5.999913
    21  C    6.000245
    22  O    8.000392
    23  C    5.999851
    24  N    6.999849
    25  C    6.000775
    26  C    5.999806
    27  C    6.000091
    28  C    5.999481
    29  C    5.999948
    30  C    6.000084
    31  C    6.000022
    32  N    7.000091
    33  C    5.999181
    34  C    5.999577
    35  C    5.999859
    36  C    5.999289
    37  C    6.000036
    38  C    5.999683
    39  O    7.999371
    40  C    5.999864
    41  C    5.999907
    42  O    7.999860
    43  O    8.000044
    44  C    6.000068
    45  H    1.000289
    46  H    0.999997
    47  H    0.999709
    48  H    1.000054
    49  H    1.000059
    50  H    1.000301
    51  H    1.000021
    52  H    1.000067
    53  H    0.999826
    54  H    1.000096
    55  H    1.000128
    56  H    0.999981
    57  H    1.000353
    58  H    1.000362
    59  H    1.000304
    60  H    1.000271
    61  H    1.000192
    62  H    1.000219
    63  H    1.000035
    64  H    0.999983
    65  H    1.000003
    66  H    0.999910
    67  H    1.000138
    68  H    1.000136
    69  H    0.999777
    70  H    0.999976
    71  H    0.999849
    72  H    0.999992
    73  H    0.999742
    74  H    0.999631
    75  H    0.999598
    76  H    0.999881
    77  H    0.999993
    78  H    0.999883
    79  H    0.999890
    80  Mg  12.000009
    81  C    6.001200
    82  C    5.967194
    83  C    5.986924
    84  C    6.036104
    85  N    6.988008
    86  C    5.967238
    87  C    6.011820
    88  C    5.987567
    89  C    6.040676
    90  C    5.996433
    91  C    6.001937
    92  C    6.002120
    93  H    0.987878
    94  N    6.989778
    95  C    6.050717
    96  C    6.016747
    97  C    6.014634
    98  C    6.041669
    99  C    5.998402
   100  C    6.009671
   101  O    8.025464
   102  C    5.998867
   103  N    7.015294
   104  C    6.029597
   105  C    5.988343
   106  C    6.007820
   107  C    5.956749
   108  C    6.002954
   109  C    6.001640
   110  C    5.999626
   111  N    7.001828
   112  C    5.955678
   113  C    5.978719
   114  C    5.990461
   115  C    5.977721
   116  C    6.003928
   117  C    5.982773
   118  O    7.964349
   119  C    6.005837
   120  C    5.995040
   121  O    7.996410
   122  O    7.996816
   123  C    6.004123
   124  H    1.003554
   125  H    1.011163
   126  H    0.996320
   127  H    0.998354
   128  H    1.001861
   129  H    1.004097
   130  H    1.012498
   131  H    0.992376
   132  H    0.987102
   133  H    1.006360
   134  H    1.001895
   135  H    0.998394
   136  H    1.015085
   137  H    1.017482
   138  H    1.020695
   139  H    1.009964
   140  H    1.008218
   141  H    1.014359
   142  H    1.001928
   143  H    1.000093
   144  H    1.014266
   145  H    1.001099
   146  H    0.997451
   147  H    1.007591
   148  H    0.989300
   149  H    0.995628
   150  H    0.995626
   151  H    1.002550
   152  H    0.984468
   153  H    0.979217
   154  H    0.981328
   155  H    0.988124
   156  H    0.997004
   157  H    0.992569
   158  H    0.995222
 Sum of Mulliken charges = 624.00000

 Dipole moment (field-independent basis, Debye):
    X=             -4.4495    Y=             -9.9128    Z=              1.7308  Tot=             11.0026
 Quadrupole moment (field-independent basis, Debye-Ang):
   XX=            287.9720   YY=              8.2845   ZZ=             -3.0128
   XY=            344.7994   XZ=            -53.8561   YZ=              2.5328

 Normal termination of Gaussian 16 at Thu Sep 23 03:35:43 2021.
