 Gaussian 16, Revision A.03,
 Gaussian 16:  ES64L-G16RevA.03 25-Dec-2016

 ---------------------------------------------------
 #p cam-b3lyp/Def2SVP td=(nstates=5) density=(CIS=1)
 ---------------------------------------------------

 --------------------------------
 TDDFT excited states in gaussian
 --------------------------------
 Symbolic Z-matrix:
 Charge =  0 Multiplicity = 1

                         Standard orientation:
 ---------------------------------------------------------------------
 Center     Atomic      Atomic             Coordinates (Angstroms)
 Number     Number       Type             X           Y           Z
 ---------------------------------------------------------------------
      1         12           0       -0.701979    0.053843   -0.397823
      2          6           0        2.744528   -0.145074   -0.504842
      3          6           0       -0.803033   -3.386716   -0.346205
      4          6           0       -4.058377    0.239819    0.308721
      5          6           0       -0.511636    3.490622   -0.338553
      6          7           0        0.783663   -1.557755   -0.221067
      7          6           0        2.145208   -1.372784   -0.359150
      8          6           0        2.902988   -2.697744   -0.351353
      9          6           0        1.737352   -3.714278   -0.644743
     10          6           0        0.517428   -2.855780   -0.344153
     11          6           0        1.738019   -4.440524   -2.065586
     12          6           0        3.752764   -3.004643    0.922867
     13          6           0        5.145321   -3.542912    0.670647
     14          1           0        5.279667   -5.000857    1.081927
     15          7           0       -2.167542   -1.379863   -0.059274
     16          6           0       -2.024224   -2.709100   -0.107009
     17          6           0       -3.304676   -3.372566    0.067564
     18          6           0       -4.306460   -2.437547    0.267889
     19          6           0       -3.542879   -1.116921    0.232783
     20          6           0       -3.449933   -4.967737    0.116538
     21          6           0       -5.841471   -2.712618    0.411301
     22          8           0       -6.242144   -3.910762    0.434184
     23          6           0       -6.823343   -1.615783    0.570990
     24          7           0       -2.111959    1.684369    0.195417
     25          6           0       -3.414067    1.524619    0.253486
     26          6           0       -4.171771    2.832162    0.155259
     27          6           0       -3.095262    3.963687    0.035430
     28          6           0       -1.802548    3.028582   -0.124369
     29          6           0       -5.437767    2.935466   -0.754019
     30          6           0       -2.915872    5.008641    1.174621
     31          6           0       -2.157644    6.242747    0.731383
     32          7           0        0.833969    1.436203   -0.406101
     33          6           0        0.765732    2.847416   -0.465121
     34          6           0        2.102863    3.346027   -0.638107
     35          6           0        2.945725    2.209442   -0.697049
     36          6           0        2.102978    1.117824   -0.506990
     37          6           0        2.500889    4.777241   -0.966788
     38          6           0        4.261788    1.841649   -0.875433
     39          8           0        5.310760    2.421013   -0.953291
     40          6           0        4.235487    0.247462   -0.609607
     41          6           0        4.755950    0.105905    0.819948
     42          8           0        4.105429    0.279392    1.832522
     43          8           0        6.096081   -0.232750    0.724406
     44          6           0        6.824900   -0.312282    1.986206
     45          1           0       -0.915578   -4.457656   -0.526630
     46          1           0       -5.129539    0.225550    0.519061
     47          1           0       -0.309728    4.555571   -0.471007
     48          1           0        3.549217   -2.707805   -1.228592
     49          1           0        1.717637   -4.412618    0.192729
     50          1           0        0.685331   -4.699885   -2.177669
     51          1           0        2.230931   -5.413005   -2.071548
     52          1           0        2.118254   -3.867538   -2.911175
     53          1           0        3.152367   -3.749360    1.445778
     54          1           0        3.771916   -2.240850    1.699995
     55          1           0        5.839949   -2.916652    1.230926
     56          1           0        5.424897   -3.501207   -0.382249
     57          1           0       -2.513524   -5.522283    0.042382
     58          1           0       -4.110197   -5.316107   -0.678387
     59          1           0       -3.804795   -5.335339    1.078371
     60          1           0       -6.776883   -0.957155   -0.295701
     61          1           0       -6.742765   -1.143616    1.550194
     62          1           0       -7.784430   -2.100397    0.403594
     63          1           0       -4.621482    3.185455    1.083413
     64          1           0       -3.075415    4.417640   -0.955626
     65          1           0       -5.698030    1.909833   -1.019243
     66          1           0       -5.321793    3.618986   -1.595908
     67          1           0       -6.321205    3.325642   -0.248440
     68          1           0       -2.445818    4.474315    2.000129
     69          1           0       -3.932959    5.221091    1.503855
     70          1           0       -2.535039    7.084615    1.312380
     71          1           0       -2.265955    6.504163   -0.321915
     72          1           0       -1.116255    6.148063    1.039134
     73          1           0        3.546293    4.889837   -1.254254
     74          1           0        2.262512    5.392007   -0.099804
     75          1           0        1.906544    5.173827   -1.790014
     76          1           0        4.765623   -0.295111   -1.392946
     77          1           0        6.874290    0.677738    2.439851
     78          1           0        7.814489   -0.748993    1.856094
     79          1           0        6.263539   -0.925657    2.690444
 ---------------------------------------------------------------------

 SCF Done:  E(RCAM-B3LYP) =  -2034.90458071     A.U. after   17 cycles

 Excitation energies and oscillator strengths:

 Excited State   1:      Singlet-A      1.8652 eV  664.73 nm  f=0.0000  <S**2>=0.000
     155 ->158         0.14288
     156 ->157         0.68808
 This state for optimization and/or second-order correction.
 Total Energy, E(TD-HF/TD-DFT) =  -2034.83603680
 Copying the excited state density for this state as the 1-particle RhoCI density.

 Excited State   2:      Singlet-A      2.2638 eV  547.68 nm  f=0.0000  <S**2>=0.000
     155 ->157         0.64673
     156 ->158        -0.24678
     156 ->159        -0.10355

 Excited State   3:      Singlet-A      3.5497 eV  349.28 nm  f=0.0000  <S**2>=0.000
     150 ->157        -0.15713
     150 ->158         0.12778
     150 ->159        -0.14556
     151 ->157         0.29285
     152 ->157         0.30328
     153 ->157        -0.14712
     154 ->157        -0.15494
     155 ->157         0.14311
     156 ->158         0.40569

 Excited State   4:      Singlet-A      3.5895 eV  345.41 nm  f=0.0000  <S**2>=0.000
     150 ->157         0.11698
     152 ->157        -0.10258
     153 ->157         0.22740
     154 ->157         0.40836
     155 ->157         0.16910
     156 ->158         0.42657

 Excited State   5:      Singlet-A      3.6023 eV  344.18 nm  f=0.0000  <S**2>=0.000
     150 ->157         0.40708
     150 ->158        -0.24680
     150 ->159         0.27318
     150 ->161         0.15479
     152 ->157         0.14096
     153 ->157        -0.12653
     154 ->157        -0.29037
     156 ->158         0.11170

 The electronic state is 1-A.
 Alpha  occ. eigenvalues --  -46.89404 -19.24524 -19.20227 -19.19878 -19.17723
 Alpha  occ. eigenvalues --  -14.42315 -14.42052 -14.40555 -14.38492 -10.39093
 Alpha  occ. eigenvalues --  -10.37033 -10.33404 -10.33079 -10.32421 -10.31724
 Alpha  occ. eigenvalues --  -10.31150 -10.31084 -10.30358 -10.29807 -10.29799
 Alpha  occ. eigenvalues --  -10.29168 -10.28418 -10.28394 -10.28348 -10.28303
 Alpha  occ. eigenvalues --  -10.28067 -10.28062 -10.27520 -10.27426 -10.27237
 Alpha  occ. eigenvalues --  -10.27194 -10.27158 -10.26958 -10.26941 -10.26922
 Alpha  occ. eigenvalues --  -10.26861 -10.26785 -10.26760 -10.26448 -10.25947
 Alpha  occ. eigenvalues --  -10.25805 -10.25298 -10.23105  -3.17843  -1.92727
 Alpha  occ. eigenvalues --   -1.92304  -1.92146  -1.15466  -1.09805  -1.09148
 Alpha  occ. eigenvalues --   -1.07911  -1.04589  -1.03845  -1.03197  -1.02552
 Alpha  occ. eigenvalues --   -0.91566  -0.89185  -0.88501  -0.87973  -0.87061
 Alpha  occ. eigenvalues --   -0.86636  -0.85829  -0.84509  -0.83638  -0.83211
 Alpha  occ. eigenvalues --   -0.82064  -0.80712  -0.80224  -0.77647  -0.77166
 Alpha  occ. eigenvalues --   -0.76746  -0.75335  -0.75146  -0.72398  -0.71699
 Alpha  occ. eigenvalues --   -0.69728  -0.69119  -0.67910  -0.67359  -0.65619
 Alpha  occ. eigenvalues --   -0.65483  -0.64683  -0.64046  -0.61708  -0.59975
 Alpha  occ. eigenvalues --   -0.59477  -0.59032  -0.58467  -0.57846  -0.57394
 Alpha  occ. eigenvalues --   -0.56442  -0.55494  -0.55046  -0.54188  -0.53929
 Alpha  occ. eigenvalues --   -0.53735  -0.53340  -0.53164  -0.52720  -0.52014
 Alpha  occ. eigenvalues --   -0.51592  -0.51034  -0.50807  -0.50534  -0.50160
 Alpha  occ. eigenvalues --   -0.50013  -0.49816  -0.49457  -0.49033  -0.48711
 Alpha  occ. eigenvalues --   -0.48545  -0.48222  -0.47588  -0.47368  -0.47182
 Alpha  occ. eigenvalues --   -0.46552  -0.46193  -0.46137  -0.45964  -0.45223
 Alpha  occ. eigenvalues --   -0.45195  -0.45050  -0.44884  -0.44670  -0.44282
 Alpha  occ. eigenvalues --   -0.43948  -0.43592  -0.43414  -0.43088  -0.42711
 Alpha  occ. eigenvalues --   -0.42558  -0.42480  -0.42182  -0.42043  -0.41607
 Alpha  occ. eigenvalues --   -0.40776  -0.40413  -0.40159  -0.39868  -0.39274
 Alpha  occ. eigenvalues --   -0.38979  -0.38063  -0.37342  -0.36490  -0.36331
 Alpha  occ. eigenvalues --   -0.35339  -0.34424  -0.34293  -0.33083  -0.32445
 Alpha  occ. eigenvalues --   -0.31884  -0.30861  -0.29664  -0.29105  -0.24071
 Alpha  occ. eigenvalues --   -0.21488
 Alpha virt. eigenvalues --   -0.08453  -0.01794   0.00112   0.01803   0.01990
 Alpha virt. eigenvalues --    0.05171   0.05830   0.06381   0.06927   0.07960
 Alpha virt. eigenvalues --    0.08752   0.09370   0.09823   0.09906   0.10515

 Mulliken charges:
               1
     1  Mg   0.818203
     2  C   -0.059653
     3  C   -0.173525
     4  C   -0.157682
     5  C   -0.049713
     6  N   -0.323420
     7  C    0.033170
     8  C   -0.035706
     9  C   -0.021662
    10  C    0.034282
    11  C    0.084268
    12  C    0.073403
    13  C   -0.052773
    14  H    0.008665
    15  N   -0.385239
    16  C    0.142648
    17  C   -0.201209
    18  C   -0.061228
    19  C    0.102243
    20  C    0.116688
    21  C   -0.003358
    22  O   -0.240016
    23  C    0.070374
    24  N   -0.326858
    25  C    0.118267
    26  C   -0.026202
    27  C   -0.051305
    28  C    0.114028
    29  C    0.066677
    30  C    0.062991
    31  C    0.025991
    32  N   -0.349601
    33  C    0.141409
    34  C   -0.098855
    35  C    0.075573
    36  C    0.184765
    37  C    0.106306
    38  C   -0.017302
    39  O   -0.153231
    40  C   -0.045281
    41  C    0.231590
    42  O   -0.212184
    43  O   -0.335426
    44  C    0.185474
    45  H   -0.026384
    46  H   -0.042987
    47  H   -0.041008
    48  H    0.001795
    49  H    0.006826
    50  H    0.003987
    51  H    0.020941
    52  H    0.031468
    53  H   -0.003554
    54  H    0.029014
    55  H    0.025660
    56  H    0.027415
    57  H   -0.002913
    58  H    0.039857
    59  H    0.034017
    60  H    0.040451
    61  H    0.068308
    62  H    0.028126
    63  H    0.012586
    64  H    0.009333
    65  H    0.009549
    66  H    0.019664
    67  H    0.006675
    68  H    0.017319
    69  H    0.002892
    70  H    0.007779
    71  H    0.022200
    72  H    0.030937
    73  H    0.034197
    74  H    0.017899
    75  H    0.020939
    76  H    0.024840
    77  H    0.038232
    78  H    0.041650
    79  H    0.026708
 Sum of Mulliken charges =  -0.00000

 Dipole moment (field-independent basis, Debye):
    X=              2.0195    Y=              7.0240    Z=             -1.8604  Tot=              7.5416
 Quadrupole moment (field-independent basis, Debye-Ang):
   XX=           -274.6696   YY=           -244.9047   ZZ=           -254.9039
   XY=            -49.6957   XZ=              6.9573   YZ=              3.4697

 Normal termination of Gaussian 16 at Fri Oct  8 18:47:53 2021.
