 Gaussian 16, Revision A.03,
 Gaussian 16:  ES64L-G16RevA.03 25-Dec-2016

 -----------------------------------
 #p cam-b3lyp/Def2SVP td=(nstates=5)
 -----------------------------------

 --------------------------------
 TDDFT excited states in gaussian
 --------------------------------
 Symbolic Z-matrix:
 Charge =  0 Multiplicity = 1

                         Standard orientation:
 ---------------------------------------------------------------------
 Center     Atomic      Atomic             Coordinates (Angstroms)
 Number     Number       Type             X           Y           Z
 ---------------------------------------------------------------------
      1         12           0      -19.096872    0.323885    0.493742
      2          6           0      -16.199154   -1.141955   -0.822309
      3          6           0      -20.884104   -2.565474   -0.502953
      4          6           0      -21.976225    1.853822    1.441425
      5          6           0      -17.393794    3.318208    0.727367
      6          7           0      -18.533568   -1.636378   -0.373423
      7          6           0      -17.225053   -2.038846   -0.655922
      8          6           0      -17.186136   -3.603620   -0.792439
      9          6           0      -18.673189   -3.976152   -0.777325
     10          6           0      -19.439882   -2.621620   -0.582708
     11          6           0      -19.069069   -4.677582   -2.104544
     12          6           0      -16.336135   -4.169485    0.338619
     13          6           0      -15.617899   -5.487937    0.101954
     14          1           0      -16.028126   -6.334514   -1.124183
     15          7           0      -21.156637   -0.233525    0.504077
     16          6           0      -21.683658   -1.447969    0.025075
     17          6           0      -23.130629   -1.461303    0.149573
     18          6           0      -23.521587   -0.215564    0.781170
     19          6           0      -22.199657    0.534548    0.914775
     20          6           0      -24.013444   -2.679084   -0.151906
     21          6           0      -24.881456    0.290063    1.223138
     22          8           0      -24.988448    1.383284    1.762695
     23          6           0      -26.031215   -0.641824    1.185673
     24          7           0      -19.568010    2.319828    1.077167
     25          6           0      -20.812573    2.666773    1.508560
     26          6           0      -20.783712    4.105918    2.086539
     27          6           0      -19.286022    4.575029    1.922790
     28          6           0      -18.642549    3.308704    1.300846
     29          6           0      -21.800275    4.998411    1.352256
     30          6           0      -18.564777    4.934578    3.248929
     31          6           0      -18.516313    6.452105    3.397505
     32          7           0      -17.217393    1.078937   -0.030758
     33          6           0      -16.657192    2.310645    0.040315
     34          6           0      -15.366550    2.252261   -0.688108
     35          6           0      -15.096003    0.939701   -0.942951
     36          6           0      -16.286537    0.270861   -0.559701
     37          6           0      -14.494144    3.484781   -0.857030
     38          6           0      -14.118869   -0.034891   -1.446266
     39          8           0      -13.004533    0.158838   -1.916974
     40          6           0      -14.785519   -1.388136   -1.291095
     41          6           0      -14.648526   -2.046058   -2.600100
     42          8           0      -15.284685   -1.880631   -3.649706
     43          8           0      -13.570825   -2.904078   -2.520006
     44          6           0      -13.210734   -3.611010   -3.729844
     45          1           0      -21.385030   -3.503669   -0.749666
     46          1           0      -22.927990    2.230456    1.821967
     47          1           0      -16.956069    4.318439    0.750574
     48          1           0      -16.731839   -3.701653   -1.779134
     49          1           0      -18.774108   -4.761955   -0.028769
     50          1           0      -19.729243   -4.099035   -2.750952
     51          1           0      -19.757141   -5.476028   -1.828250
     52          1           0      -18.199243   -4.953073   -2.700556
     53          1           0      -17.014641   -4.198455    1.191741
     54          1           0      -15.607408   -3.417726    0.639500
     55          1           0      -15.692902   -6.090749    1.005983
     56          1           0      -14.583969   -5.150754    0.020511
     57          1           0      -23.481799   -3.504548   -0.625639
     58          1           0      -24.827474   -2.390632   -0.818266
     59          1           0      -24.516863   -2.977625    0.766870
     60          1           0      -25.847979   -1.446847    1.897773
     61          1           0      -26.288727   -0.906470    0.160152
     62          1           0      -26.939198   -0.180148    1.573771
     63          1           0      -21.115016    4.048873    3.123149
     64          1           0      -19.319356    5.369967    1.176618
     65          1           0      -21.407561    5.897221    0.877727
     66          1           0      -22.402890    5.307454    2.206065
     67          1           0      -22.320111    4.511240    0.527787
     68          1           0      -17.498664    4.722003    3.167494
     69          1           0      -19.023367    4.491432    4.133111
     70          1           0      -18.841326    6.618789    4.424368
     71          1           0      -19.275456    6.982964    2.823567
     72          1           0      -17.541791    6.909345    3.223963
     73          1           0      -14.976455    4.433558   -0.620441
     74          1           0      -14.080983    3.571519   -1.861209
     75          1           0      -13.718551    3.458465   -0.090802
     76          1           0      -14.259190   -1.926913   -0.503857
     77          1           0      -13.123568   -2.873298   -4.527929
     78          1           0      -13.941993   -4.361924   -4.029792
     79          1           0      -12.155370   -3.849628   -3.602489
     80         12           0       19.394124   -0.084234    0.012616
     81          6           0       15.939041   -0.174795   -0.438778
     82          6           0       19.562473    2.609138   -2.132608
     83          6           0       22.610566   -0.115862    0.662078
     84          6           0       18.943877   -2.146230    2.983810
     85          7           0       17.822867    1.053464   -1.225698
     86          6           0       16.469081    0.866848   -1.233653
     87          6           0       15.809836    1.794492   -2.191573
     88          6           0       16.983895    2.721182   -2.703020
     89          6           0       18.255120    2.114398   -1.990547
     90          6           0       17.047724    2.896999   -4.241155
     91          6           0       14.666636    2.617378   -1.549402
     92          6           0       13.385905    2.500385   -2.373960
     93          1           0       12.689260    3.823886   -2.812181
     94          7           0       20.893327    1.075945   -0.676448
     95          6           0       20.800676    2.120351   -1.595229
     96          6           0       22.172460    2.550980   -1.832305
     97          6           0       23.107323    1.734512   -1.041397
     98          6           0       22.216109    0.764741   -0.329669
     99          6           0       22.499113    3.733886   -2.597727
    100          6           0       24.542941    2.048374   -0.947932
    101          8           0       25.086607    2.946270   -1.556323
    102          6           0       25.483548    1.363844   -0.018662
    103          7           0       20.530539   -0.941253    1.574039
    104          6           0       21.892124   -1.027669    1.430245
    105          6           0       22.490679   -1.797506    2.588565
    106          6           0       21.357086   -1.984574    3.526218
    107          6           0       20.212021   -1.624337    2.717124
    108          6           0       23.291906   -3.102737    2.185792
    109          6           0       21.384033   -0.986697    4.734489
    110          6           0       20.791879   -1.453810    5.983071
    111          7           0       17.792102   -1.030447    1.086287
    112          6           0       17.758259   -1.871448    2.206320
    113          6           0       16.463263   -2.468818    2.301229
    114          6           0       15.702764   -1.822530    1.333922
    115          6           0       16.557269   -0.904563    0.625183
    116          6           0       16.098609   -3.502379    3.302016
    117          6           0       14.403845   -1.694286    0.803866
    118          8           0       13.378235   -2.261576    1.107733
    119          6           0       14.504616   -0.694916   -0.370063
    120          6           0       14.016177   -1.344421   -1.596860
    121          8           0       14.695398   -2.048308   -2.363152
    122          8           0       12.652007   -1.188766   -1.687880
    123          6           0       11.937364   -1.655267   -2.864923
    124          1           0       19.547672    3.416199   -2.867309
    125          1           0       23.641047   -0.191535    1.018089
    126          1           0       18.860813   -2.783224    3.866894
    127          1           0       15.616239    1.176942   -3.069096
    128          1           0       16.901193    3.754262   -2.366773
    129          1           0       16.045393    2.597425   -4.549625
    130          1           0       17.860403    2.386803   -4.758326
    131          1           0       17.173401    3.950963   -4.487877
    132          1           0       14.843372    3.692771   -1.541825
    133          1           0       14.547785    2.232040   -0.536900
    134          1           0       12.730064    2.073318   -1.615429
    135          1           0       13.585190    1.797426   -3.181462
    136          1           0       21.569595    4.149443   -2.987429
    137          1           0       23.099269    3.573017   -3.493793
    138          1           0       22.948799    4.477054   -1.938316
    139          1           0       25.208015    0.330032   -0.227107
    140          1           0       25.227594    1.643062    1.003748
    141          1           0       26.521113    1.566108   -0.285343
    142          1           0       23.239011   -1.108057    2.977673
    143          1           0       21.128871   -2.998521    3.854906
    144          1           0       23.441440   -3.141224    1.106622
    145          1           0       22.907961   -4.029005    2.614669
    146          1           0       24.339310   -3.071664    2.484640
    147          1           0       20.913323   -0.050256    4.434886
    148          1           0       22.409407   -0.716229    4.986101
    149          1           0       21.552471   -1.993943    6.547904
    150          1           0       19.900863   -2.060331    5.817492
    151          1           0       20.634594   -0.607654    6.652716
    152          1           0       16.917053   -4.204792    3.459122
    153          1           0       15.179060   -4.039489    3.068991
    154          1           0       16.034551   -2.941536    4.234509
    155          1           0       13.798159    0.130955   -0.285601
    156          1           0       11.803719   -2.726748   -3.014167
    157          1           0       12.381535   -1.215248   -3.757551
    158          1           0       10.920401   -1.295781   -2.712339
 ---------------------------------------------------------------------

 SCF Done:  E(RCAM-B3LYP) =  -4069.77728184     A.U. after   19 cycles

 Excitation energies and oscillator strengths:

 Excited State   1:      Singlet-A      1.6749 eV  740.24 nm  f=0.5429  <S**2>=0.000
     309 -> 315        0.18244
     311 -> 313        0.66250
     312 -> 314       -0.16877
     309 <- 315        0.10749
 This state for optimization and/or second-order correction.
 Total Energy, E(TD-HF/TD-DFT) =  -4069.71572940
 Copying the excited state density for this state as the 1-particle RhoCI density.

 Excited State   2:      Singlet-A      1.6784 eV  738.72 nm  f=0.2244  <S**2>=0.000
     310 -> 316        0.16771
     311 -> 313        0.16774
     312 -> 314        0.66607
     310 <- 316        0.10134

 Excited State   3:      Singlet-A      2.1859 eV  567.21 nm  f=0.1035  <S**2>=0.000
     309 -> 313        0.63554
     311 -> 315       -0.29755

 Excited State   4:      Singlet-A      2.1968 eV  564.39 nm  f=0.1200  <S**2>=0.000
     310 -> 314        0.64516
     312 -> 316       -0.27389

 Excited State   5:      Singlet-A      2.9549 eV  419.59 nm  f=0.0000  <S**2>=0.000
     312 -> 313        0.70710

 The electronic state is 1-A.
 Alpha  occ. eigenvalues --  -46.89101 -46.88930 -19.24848 -19.24435 -19.19774
 Alpha  occ. eigenvalues --  -19.19345 -19.19279 -19.19191 -19.18341 -19.17370
 Alpha  occ. eigenvalues --  -14.42313 -14.42173 -14.41918 -14.41724 -14.40255
 Alpha  occ. eigenvalues --  -14.40103 -14.39186 -14.39156 -10.39342 -10.39072
 Alpha  occ. eigenvalues --  -10.35465 -10.35385 -10.34194 -10.33693 -10.31976
 Alpha  occ. eigenvalues --  -10.31653 -10.31606 -10.31558 -10.31557 -10.31189
 Alpha  occ. eigenvalues --  -10.31139 -10.31049 -10.31039 -10.30975 -10.30947
 Alpha  occ. eigenvalues --  -10.30632 -10.30462 -10.30068 -10.29854 -10.29522
 Alpha  occ. eigenvalues --  -10.29330 -10.29079 -10.29035 -10.28961 -10.28576
 Alpha  occ. eigenvalues --  -10.28541 -10.28534 -10.28385 -10.28355 -10.28299
 Alpha  occ. eigenvalues --  -10.28209 -10.28154 -10.28111 -10.28030 -10.27956
 Alpha  occ. eigenvalues --  -10.27794 -10.27760 -10.27752 -10.27652 -10.27598
 Alpha  occ. eigenvalues --  -10.27582 -10.27548 -10.27380 -10.27348 -10.27285
 Alpha  occ. eigenvalues --  -10.27196 -10.27155 -10.27128 -10.26786 -10.26775
 Alpha  occ. eigenvalues --  -10.26511 -10.26480 -10.26449 -10.26432 -10.26277
 Alpha  occ. eigenvalues --  -10.26211 -10.26211 -10.25544 -10.25510 -10.25491
 Alpha  occ. eigenvalues --  -10.25247 -10.25177 -10.24993 -10.24852 -10.24757
 Alpha  occ. eigenvalues --  -10.24709  -3.17498  -3.17420  -1.92412  -1.92323
 Alpha  occ. eigenvalues --   -1.91913  -1.91884  -1.91830  -1.91710  -1.15773
 Alpha  occ. eigenvalues --   -1.15429  -1.10444  -1.10041  -1.09992  -1.09832
 Alpha  occ. eigenvalues --   -1.06845  -1.06689  -1.04973  -1.04305  -1.03788
 Alpha  occ. eigenvalues --   -1.02974  -1.02772  -1.02621  -1.01611  -1.01559
 Alpha  occ. eigenvalues --   -0.93352  -0.92638  -0.90754  -0.89574  -0.89250
 Alpha  occ. eigenvalues --   -0.89038  -0.88766  -0.87950  -0.87695  -0.87229
 Alpha  occ. eigenvalues --   -0.87092  -0.86838  -0.86284  -0.85581  -0.85251
 Alpha  occ. eigenvalues --   -0.84531  -0.84292  -0.83866  -0.83439  -0.82710
 Alpha  occ. eigenvalues --   -0.82558  -0.82368  -0.81396  -0.80878  -0.80810
 Alpha  occ. eigenvalues --   -0.80004  -0.78659  -0.78082  -0.77962  -0.77244
 Alpha  occ. eigenvalues --   -0.77105  -0.76796  -0.76289  -0.75940  -0.75370
 Alpha  occ. eigenvalues --   -0.74520  -0.73396  -0.72519  -0.72020  -0.70990
 Alpha  occ. eigenvalues --   -0.69324  -0.69098  -0.69044  -0.68474  -0.67975
 Alpha  occ. eigenvalues --   -0.67907  -0.67500  -0.67054  -0.66455  -0.65914
 Alpha  occ. eigenvalues --   -0.65409  -0.65261  -0.64899  -0.64668  -0.64617
 Alpha  occ. eigenvalues --   -0.63879  -0.62109  -0.62014  -0.60726  -0.60108
 Alpha  occ. eigenvalues --   -0.59629  -0.59480  -0.59452  -0.59075  -0.58948
 Alpha  occ. eigenvalues --   -0.58776  -0.58335  -0.57902  -0.57622  -0.57395
 Alpha  occ. eigenvalues --   -0.56392  -0.55881  -0.55870  -0.55749  -0.55471
 Alpha  occ. eigenvalues --   -0.55130  -0.55070  -0.54757  -0.54414  -0.54224
 Alpha  occ. eigenvalues --   -0.53616  -0.53584  -0.53398  -0.53301  -0.53179
 Alpha  occ. eigenvalues --   -0.52891  -0.52820  -0.52801  -0.52532  -0.52277
 Alpha  occ. eigenvalues --   -0.52080  -0.51870  -0.51726  -0.51705  -0.51669
 Alpha  occ. eigenvalues --   -0.51358  -0.51270  -0.51216  -0.50755  -0.50398
 Alpha  occ. eigenvalues --   -0.50317  -0.49991  -0.49812  -0.49644  -0.49601
 Alpha  occ. eigenvalues --   -0.49373  -0.49290  -0.49233  -0.49101  -0.49006
 Alpha  occ. eigenvalues --   -0.48836  -0.48628  -0.48551  -0.48490  -0.48149
 Alpha  occ. eigenvalues --   -0.47843  -0.47609  -0.47381  -0.47119  -0.47115
 Alpha  occ. eigenvalues --   -0.46986  -0.46775  -0.46716  -0.46586  -0.46381
 Alpha  occ. eigenvalues --   -0.46301  -0.46196  -0.46016  -0.45870  -0.45723
 Alpha  occ. eigenvalues --   -0.45292  -0.45216  -0.44971  -0.44919  -0.44717
 Alpha  occ. eigenvalues --   -0.44568  -0.44462  -0.44433  -0.44375  -0.44202
 Alpha  occ. eigenvalues --   -0.44036  -0.43668  -0.43577  -0.43411  -0.43383
 Alpha  occ. eigenvalues --   -0.43215  -0.43160  -0.43049  -0.43020  -0.42953
 Alpha  occ. eigenvalues --   -0.42786  -0.42603  -0.42546  -0.42345  -0.42072
 Alpha  occ. eigenvalues --   -0.41864  -0.41651  -0.41562  -0.41512  -0.41322
 Alpha  occ. eigenvalues --   -0.41227  -0.41155  -0.41049  -0.40658  -0.40419
 Alpha  occ. eigenvalues --   -0.40253  -0.39956  -0.39201  -0.38910  -0.38465
 Alpha  occ. eigenvalues --   -0.38450  -0.38008  -0.37943  -0.37739  -0.37721
 Alpha  occ. eigenvalues --   -0.37316  -0.36956  -0.36431  -0.36368  -0.36298
 Alpha  occ. eigenvalues --   -0.36289  -0.35830  -0.34345  -0.34332  -0.34070
 Alpha  occ. eigenvalues --   -0.33694  -0.33014  -0.32602  -0.31561  -0.31440
 Alpha  occ. eigenvalues --   -0.31369  -0.31258  -0.30662  -0.30260  -0.29968
 Alpha  occ. eigenvalues --   -0.29866  -0.29646  -0.29427  -0.24295  -0.23787
 Alpha  occ. eigenvalues --   -0.21561  -0.20920
 Alpha virt. eigenvalues --   -0.09149  -0.08653  -0.02499  -0.01448   0.00201
 Alpha virt. eigenvalues --    0.00264   0.01840   0.02363   0.02526   0.02685
 Alpha virt. eigenvalues --    0.04109   0.05009   0.05156   0.05222   0.05478

 Mulliken charges:
               1
     1  Mg   0.819570
     2  C   -0.001615
     3  C   -0.062408
     4  C   -0.049454
     5  C   -0.063048
     6  N   -0.299522
     7  C   -0.121782
     8  C    0.023389
     9  C   -0.072137
    10  C    0.088151
    11  C    0.047576
    12  C    0.044024
    13  C   -0.030770
    14  H    0.030286
    15  N   -0.363590
    16  C    0.139354
    17  C   -0.154985
    18  C   -0.043600
    19  C    0.067662
    20  C    0.127887
    21  C    0.011799
    22  O   -0.199355
    23  C    0.049174
    24  N   -0.300414
    25  C    0.068920
    26  C   -0.058274
    27  C   -0.010015
    28  C    0.028442
    29  C    0.054664
    30  C    0.057285
    31  C   -0.011232
    32  N   -0.319257
    33  C    0.103440
    34  C   -0.191864
    35  C    0.027775
    36  C    0.105673
    37  C    0.107768
    38  C    0.039867
    39  O   -0.159245
    40  C    0.037420
    41  C    0.197729
    42  O   -0.232032
    43  O   -0.337857
    44  C    0.191718
    45  H   -0.027673
    46  H   -0.005043
    47  H   -0.030844
    48  H    0.010654
    49  H    0.014878
    50  H    0.011750
    51  H    0.006956
    52  H    0.029399
    53  H   -0.005475
    54  H    0.003376
    55  H    0.027400
    56  H    0.033849
    57  H    0.020966
    58  H    0.019216
    59  H    0.028874
    60  H    0.047476
    61  H    0.037035
    62  H    0.017600
    63  H    0.015751
    64  H    0.017490
    65  H    0.007109
    66  H    0.020776
    67  H    0.033849
    68  H    0.010952
    69  H    0.016093
    70  H    0.002397
    71  H    0.006543
    72  H    0.025370
    73  H   -0.003271
    74  H    0.037522
    75  H    0.027429
    76  H    0.052250
    77  H    0.027324
    78  H    0.040721
    79  H    0.034179
    80  Mg   0.815995
    81  C    0.061278
    82  C   -0.041718
    83  C   -0.115246
    84  C   -0.090501
    85  N   -0.274162
    86  C   -0.072827
    87  C    0.029123
    88  C   -0.105824
    89  C    0.020208
    90  C    0.061863
    91  C    0.063527
    92  C   -0.082863
    93  H    0.023113
    94  N   -0.454275
    95  C    0.183550
    96  C   -0.155245
    97  C   -0.020271
    98  C    0.249176
    99  C    0.147984
   100  C   -0.059492
   101  O   -0.208420
   102  C    0.069716
   103  N   -0.300514
   104  C    0.044342
   105  C   -0.028472
   106  C   -0.022849
   107  C    0.032449
   108  C    0.076719
   109  C    0.046882
   110  C    0.037682
   111  N   -0.321514
   112  C    0.100623
   113  C   -0.177562
   114  C    0.038599
   115  C    0.077972
   116  C    0.134575
   117  C    0.030859
   118  O   -0.149580
   119  C   -0.065442
   120  C    0.186057
   121  O   -0.240212
   122  O   -0.329511
   123  C    0.188510
   124  H   -0.024494
   125  H   -0.026486
   126  H   -0.025963
   127  H    0.025444
   128  H    0.016575
   129  H    0.017482
   130  H    0.029684
   131  H    0.010091
   132  H    0.027905
   133  H    0.028697
   134  H    0.041937
   135  H    0.032863
   136  H   -0.022405
   137  H    0.032741
   138  H    0.041379
   139  H    0.021172
   140  H    0.040037
   141  H    0.031046
   142  H    0.007535
   143  H    0.000998
   144  H    0.012645
   145  H    0.023841
   146  H    0.005906
   147  H    0.014810
   148  H   -0.004840
   149  H    0.004449
   150  H    0.009398
   151  H    0.010853
   152  H    0.014673
   153  H    0.043143
   154  H    0.027812
   155  H    0.023791
   156  H    0.040286
   157  H    0.029988
   158  H    0.032705
 Sum of Mulliken charges =  -0.00000

 Dipole moment (field-independent basis, Debye):
    X=             -1.6483    Y=             -2.4842    Z=              4.8508  Tot=              5.6937
 Quadrupole moment (field-independent basis, Debye-Ang):
   XX=           -414.9816   YY=           -484.5807   ZZ=           -501.0101
   XY=             32.1274   XZ=             17.3239   YZ=             -3.4828

 Normal termination of Gaussian 16 at Wed Sep 15 21:32:14 2021.
