 Gaussian 16, Revision A.03,
 Gaussian 16:  ES64L-G16RevA.03 25-Dec-2016

 -----------------------------------
 #p cam-b3lyp/Def2SVP td=(nstates=5)
 -----------------------------------

 --------------------------------
 TDDFT excited states in gaussian
 --------------------------------
 Symbolic Z-matrix:
 Charge =  0 Multiplicity = 1

                         Standard orientation:
 ---------------------------------------------------------------------
 Center     Atomic      Atomic             Coordinates (Angstroms)
 Number     Number       Type             X           Y           Z
 ---------------------------------------------------------------------
      1         12           0      -28.217167   -0.069680   -0.483049
      2          6           0      -24.773128    0.232460    0.225252
      3          6           0      -28.054117   -3.428936    0.442422
      4          6           0      -31.612223   -0.028825   -0.189263
      5          6           0      -28.238368    3.490612   -0.875136
      6          7           0      -26.610493   -1.397789    0.199037
      7          6           0      -25.324988   -1.061580    0.437280
      8          6           0      -24.538312   -2.258172    1.064569
      9          6           0      -25.542057   -3.458388    0.741017
     10          6           0      -26.878014   -2.727360    0.389009
     11          6           0      -25.254976   -4.441635   -0.416360
     12          6           0      -24.328813   -1.980667    2.601232
     13          6           0      -22.968759   -2.487047    3.156667
     14          1           0      -23.022400   -3.153742    4.591342
     15          7           0      -29.698140   -1.608215   -0.135760
     16          6           0      -29.378277   -2.904052    0.171650
     17          6           0      -30.599106   -3.610294    0.266521
     18          6           0      -31.679539   -2.684343    0.164497
     19          6           0      -31.038916   -1.356433   -0.118685
     20          6           0      -30.723856   -5.091664    0.533785
     21          6           0      -33.118740   -2.954572    0.443630
     22          8           0      -33.503043   -4.033952    0.864339
     23          6           0      -34.177056   -1.986224    0.320766
     24          7           0      -29.700569    1.580730   -0.423860
     25          6           0      -31.065290    1.258324   -0.458783
     26          6           0      -31.887064    2.477663   -0.738416
     27          6           0      -30.837324    3.638938   -0.897864
     28          6           0      -29.519654    2.902639   -0.728050
     29          6           0      -32.746526    2.225476   -1.983804
     30          6           0      -31.156763    4.907575   -0.020619
     31          6           0      -31.304294    6.211770   -0.744016
     32          7           0      -26.798682    1.596251   -0.397314
     33          6           0      -26.977881    2.936975   -0.634563
     34          6           0      -25.673429    3.634167   -0.667157
     35          6           0      -24.815481    2.577234   -0.262589
     36          6           0      -25.519370    1.389025   -0.204136
     37          6           0      -25.369804    5.111828   -0.858753
     38          6           0      -23.469155    2.312503    0.170419
     39          8           0      -22.512828    3.089448    0.317566
     40          6           0      -23.334073    0.823406    0.487450
     41          6           0      -22.249192    0.205592   -0.297691
     42          8           0      -21.327865   -0.327825    0.205506
     43          8           0      -22.511737    0.137298   -1.635372
     44          6           0      -21.518444   -0.717745   -2.320777
     45          1           0      -28.025951   -4.501004    0.650394
     46          1           0      -32.700457   -0.107027   -0.175064
     47          1           0      -28.053093    4.565964   -0.928793
     48          1           0      -23.581361   -2.340393    0.548924
     49          1           0      -25.933679   -3.984624    1.611386
     50          1           0      -24.632693   -3.964302   -1.174197
     51          1           0      -26.123935   -4.882133   -0.905312
     52          1           0      -24.662709   -5.244245    0.021822
     53          1           0      -25.156082   -2.386511    3.184178
     54          1           0      -24.378542   -0.895418    2.690425
     55          1           0      -22.356963   -1.585055    3.179565
     56          1           0      -22.609735   -3.132029    2.354364
     57          1           0      -31.658046   -5.561601    0.226029
     58          1           0      -30.601032   -5.163591    1.614115
     59          1           0      -29.870718   -5.711045    0.256905
     60          1           0      -34.199807   -1.677457   -0.725124
     61          1           0      -34.029571   -1.151568    1.006714
     62          1           0      -35.117625   -2.468517    0.587056
     63          1           0      -32.459848    2.764441    0.143176
     64          1           0      -30.606569    3.976190   -1.908605
     65          1           0      -32.801696    1.173127   -2.263459
     66          1           0      -32.348966    2.738756   -2.859355
     67          1           0      -33.795001    2.396833   -1.741822
     68          1           0      -30.334617    4.957389    0.693320
     69          1           0      -32.127781    4.871499    0.471918
     70          1           0      -30.608790    6.913000   -0.283660
     71          1           0      -32.300014    6.636763   -0.616081
     72          1           0      -31.212807    6.115906   -1.825975
     73          1           0      -25.481322    5.687243    0.060472
     74          1           0      -25.934326    5.564991   -1.674622
     75          1           0      -24.296860    5.076251   -1.047094
     76          1           0      -22.982526    0.697677    1.510707
     77          1           0      -21.774808   -0.737396   -3.380339
     78          1           0      -21.523335   -1.724643   -1.903594
     79          1           0      -20.509536   -0.307095   -2.340282
     80         12           0       27.666213    0.736639   -0.361846
     81          6           0       27.213592   -2.808521   -0.043750
     82          6           0       25.040433    1.004917    2.045058
     83          6           0       28.513530    3.914970    0.323082
     84          6           0       30.576684    0.141063   -2.056177
     85          7           0       26.358139   -0.744963    0.843257
     86          6           0       26.332955   -2.107991    0.788472
     87          6           0       25.246267   -2.711239    1.745412
     88          6           0       24.351825   -1.415040    2.046465
     89          6           0       25.344706   -0.319107    1.693307
     90          6           0       23.106932   -1.294552    1.197710
     91          6           0       25.832476   -3.479509    2.918335
     92          6           0       25.182482   -4.840306    3.279943
     93          1           0       24.152622   -4.961312    4.497566
     94          7           0       26.813708    2.343645    0.956000
     95          6           0       25.674735    2.231141    1.780398
     96          6           0       25.396950    3.541985    2.380087
     97          6           0       26.407084    4.424807    1.828716
     98          6           0       27.330049    3.590749    1.089388
     99          6           0       24.340902    3.868645    3.367749
    100          6           0       26.442786    5.921315    2.012189
    101          8           0       25.487234    6.455990    2.528206
    102          6           0       27.589255    6.807395    1.582626
    103          7           0       29.334978    1.752958   -0.714853
    104          6           0       29.361727    3.121769   -0.463004
    105          6           0       30.696939    3.656256   -0.986289
    106          6           0       31.230284    2.505399   -1.915811
    107          6           0       30.290137    1.399076   -1.574276
    108          6           0       30.723487    5.091533   -1.628994
    109          6           0       32.740638    2.127577   -1.824452
    110          6           0       33.545698    2.149111   -3.082778
    111          7           0       28.656082   -0.918876   -1.054719
    112          6           0       29.811380   -1.022555   -1.809659
    113          6           0       29.988780   -2.400092   -2.308235
    114          6           0       28.990518   -3.130200   -1.553543
    115          6           0       28.258582   -2.182337   -0.831823
    116          6           0       30.999493   -2.964168   -3.271784
    117          6           0       28.439989   -4.500240   -1.334641
    118          8           0       28.820476   -5.565322   -1.729716
    119          6           0       27.363321   -4.315627   -0.270178
    120          6           0       26.089701   -4.902793   -0.801079
    121          8           0       25.561230   -4.382562   -1.760096
    122          8           0       25.542739   -5.990149   -0.055740
    123          6           0       24.175818   -6.448055   -0.449613
    124          1           0       24.207751    1.133511    2.739952
    125          1           0       28.916920    4.923888    0.424340
    126          1           0       31.404283    0.023325   -2.758372
    127          1           0       24.548188   -3.354759    1.210767
    128          1           0       24.142102   -1.314570    3.111304
    129          1           0       23.391256   -0.887308    0.227719
    130          1           0       22.403079   -0.671810    1.749700
    131          1           0       22.558568   -2.200134    0.936171
    132          1           0       25.692796   -2.843578    3.791966
    133          1           0       26.914407   -3.508165    2.789360
    134          1           0       26.045162   -5.475664    3.481884
    135          1           0       24.647401   -5.298395    2.448021
    136          1           0       23.517531    4.299849    2.799145
    137          1           0       24.687537    4.682511    4.004665
    138          1           0       23.947900    3.095946    4.029584
    139          1           0       27.512342    7.850681    1.888166
    140          1           0       27.584794    6.778312    0.492953
    141          1           0       28.609611    6.519704    1.833296
    142          1           0       31.250178    3.797775   -0.057397
    143          1           0       30.928838    2.731239   -2.938228
    144          1           0       29.722627    5.391931   -1.940223
    145          1           0       31.443112    5.129997   -2.446570
    146          1           0       31.106471    5.816889   -0.911495
    147          1           0       32.826548    1.135071   -1.382248
    148          1           0       33.182079    2.766052   -1.059335
    149          1           0       33.752528    1.124313   -3.390466
    150          1           0       34.501252    2.639062   -2.896278
    151          1           0       33.110161    2.640682   -3.952432
    152          1           0       30.646836   -3.899476   -3.705964
    153          1           0       31.918131   -3.110120   -2.702848
    154          1           0       31.234877   -2.186689   -3.998800
    155          1           0       27.745071   -4.744897    0.656280
    156          1           0       24.252327   -7.076649   -1.336973
    157          1           0       23.548928   -5.602672   -0.732434
    158          1           0       23.692774   -6.976060    0.372342
 ---------------------------------------------------------------------

 SCF Done:  E(RCAM-B3LYP) =  -4069.78479689     A.U. after   18 cycles

 Excitation energies and oscillator strengths:

 Excited State   1:      Singlet-A      1.6714 eV  741.79 nm  f=0.3954  <S**2>=0.000
     310 -> 316        0.16926
     312 -> 314        0.68838
     310 <- 316        0.10655
 This state for optimization and/or second-order correction.
 Total Energy, E(TD-HF/TD-DFT) =  -4069.72337336
 Copying the excited state density for this state as the 1-particle RhoCI density.

 Excited State   2:      Singlet-A      1.6804 eV  737.80 nm  f=0.4119  <S**2>=0.000
     309 -> 315       -0.17280
     311 -> 313        0.68672
     309 <- 315       -0.10652

 Excited State   3:      Singlet-A      2.2017 eV  563.13 nm  f=0.1137  <S**2>=0.000
     309 -> 313        0.64204
     311 -> 315        0.28115

 Excited State   4:      Singlet-A      2.2361 eV  554.47 nm  f=0.1279  <S**2>=0.000
     310 -> 314        0.64116
     312 -> 316       -0.28143

 Excited State   5:      Singlet-A      3.0202 eV  410.51 nm  f=0.0000  <S**2>=0.000
     312 -> 313        0.70710

 The electronic state is 1-A.
 Alpha  occ. eigenvalues --  -46.90854 -46.89316 -19.25248 -19.25130 -19.20719
 Alpha  occ. eigenvalues --  -19.19935 -19.19717 -19.18861 -19.17974 -19.17338
 Alpha  occ. eigenvalues --  -14.42992 -14.42750 -14.42720 -14.41706 -14.39924
 Alpha  occ. eigenvalues --  -14.39328 -14.39318 -14.39148 -10.40210 -10.38748
 Alpha  occ. eigenvalues --  -10.35398 -10.34790 -10.34503 -10.33522 -10.32261
 Alpha  occ. eigenvalues --  -10.32257 -10.32002 -10.31877 -10.31840 -10.31377
 Alpha  occ. eigenvalues --  -10.31286 -10.31081 -10.31006 -10.30686 -10.30505
 Alpha  occ. eigenvalues --  -10.30272 -10.30224 -10.30201 -10.29876 -10.29480
 Alpha  occ. eigenvalues --  -10.29325 -10.29213 -10.29101 -10.29094 -10.29051
 Alpha  occ. eigenvalues --  -10.28926 -10.28825 -10.28790 -10.28654 -10.28629
 Alpha  occ. eigenvalues --  -10.28547 -10.28523 -10.28478 -10.28441 -10.28187
 Alpha  occ. eigenvalues --  -10.28167 -10.28051 -10.27981 -10.27782 -10.27766
 Alpha  occ. eigenvalues --  -10.27593 -10.27558 -10.27497 -10.27212 -10.27057
 Alpha  occ. eigenvalues --  -10.27002 -10.26985 -10.26907 -10.26827 -10.26678
 Alpha  occ. eigenvalues --  -10.26560 -10.26534 -10.26516 -10.26514 -10.26484
 Alpha  occ. eigenvalues --  -10.26409 -10.26304 -10.26037 -10.25883 -10.25766
 Alpha  occ. eigenvalues --  -10.25727 -10.25523 -10.25467 -10.25361 -10.25307
 Alpha  occ. eigenvalues --  -10.25277  -3.19002  -3.17885  -1.93915  -1.93437
 Alpha  occ. eigenvalues --   -1.93297  -1.92733  -1.92346  -1.92192  -1.17991
 Alpha  occ. eigenvalues --   -1.15358  -1.11717  -1.10205  -1.09570  -1.09059
 Alpha  occ. eigenvalues --   -1.08973  -1.07858  -1.05132  -1.04586  -1.03768
 Alpha  occ. eigenvalues --   -1.03569  -1.03453  -1.02767  -1.02554  -1.01503
 Alpha  occ. eigenvalues --   -0.92746  -0.92647  -0.89441  -0.89400  -0.89038
 Alpha  occ. eigenvalues --   -0.88877  -0.88449  -0.88254  -0.88080  -0.87606
 Alpha  occ. eigenvalues --   -0.87033  -0.86221  -0.85842  -0.85641  -0.84900
 Alpha  occ. eigenvalues --   -0.84673  -0.84484  -0.83953  -0.82731  -0.82533
 Alpha  occ. eigenvalues --   -0.82486  -0.81835  -0.80946  -0.80571  -0.80547
 Alpha  occ. eigenvalues --   -0.80196  -0.78677  -0.78157  -0.77632  -0.77480
 Alpha  occ. eigenvalues --   -0.76887  -0.76790  -0.76516  -0.76340  -0.75451
 Alpha  occ. eigenvalues --   -0.75216  -0.73164  -0.72638  -0.72538  -0.71772
 Alpha  occ. eigenvalues --   -0.69544  -0.69392  -0.69284  -0.68927  -0.67978
 Alpha  occ. eigenvalues --   -0.67913  -0.66918  -0.66704  -0.66370  -0.65937
 Alpha  occ. eigenvalues --   -0.65732  -0.65087  -0.65015  -0.64669  -0.64533
 Alpha  occ. eigenvalues --   -0.64310  -0.63327  -0.62315  -0.60099  -0.60042
 Alpha  occ. eigenvalues --   -0.59788  -0.59547  -0.59184  -0.59059  -0.59012
 Alpha  occ. eigenvalues --   -0.58908  -0.58329  -0.58320  -0.57640  -0.57098
 Alpha  occ. eigenvalues --   -0.56530  -0.56529  -0.56100  -0.55653  -0.55575
 Alpha  occ. eigenvalues --   -0.55426  -0.55154  -0.54573  -0.54320  -0.53857
 Alpha  occ. eigenvalues --   -0.53525  -0.53402  -0.53356  -0.53215  -0.53073
 Alpha  occ. eigenvalues --   -0.52952  -0.52844  -0.52675  -0.52286  -0.52234
 Alpha  occ. eigenvalues --   -0.51826  -0.51777  -0.51715  -0.51490  -0.51351
 Alpha  occ. eigenvalues --   -0.51305  -0.51093  -0.50917  -0.50909  -0.50428
 Alpha  occ. eigenvalues --   -0.50066  -0.49931  -0.49876  -0.49863  -0.49732
 Alpha  occ. eigenvalues --   -0.49584  -0.49295  -0.49288  -0.49104  -0.49058
 Alpha  occ. eigenvalues --   -0.48698  -0.48639  -0.48587  -0.48418  -0.48223
 Alpha  occ. eigenvalues --   -0.48178  -0.47682  -0.47546  -0.47349  -0.47077
 Alpha  occ. eigenvalues --   -0.46981  -0.46969  -0.46814  -0.46701  -0.46412
 Alpha  occ. eigenvalues --   -0.46375  -0.46374  -0.46350  -0.46174  -0.46047
 Alpha  occ. eigenvalues --   -0.45964  -0.45819  -0.45777  -0.45241  -0.45156
 Alpha  occ. eigenvalues --   -0.45108  -0.44951  -0.44874  -0.44702  -0.44652
 Alpha  occ. eigenvalues --   -0.44370  -0.44033  -0.43766  -0.43613  -0.43607
 Alpha  occ. eigenvalues --   -0.43440  -0.43348  -0.43299  -0.43021  -0.42898
 Alpha  occ. eigenvalues --   -0.42892  -0.42666  -0.42633  -0.42542  -0.42420
 Alpha  occ. eigenvalues --   -0.42315  -0.41911  -0.41801  -0.41543  -0.41297
 Alpha  occ. eigenvalues --   -0.41114  -0.41045  -0.40822  -0.40810  -0.40566
 Alpha  occ. eigenvalues --   -0.40256  -0.40152  -0.39652  -0.39281  -0.39253
 Alpha  occ. eigenvalues --   -0.38694  -0.38460  -0.37918  -0.37692  -0.37656
 Alpha  occ. eigenvalues --   -0.37333  -0.37254  -0.37148  -0.36907  -0.36500
 Alpha  occ. eigenvalues --   -0.36420  -0.35813  -0.35037  -0.34940  -0.34391
 Alpha  occ. eigenvalues --   -0.34152  -0.33510  -0.33176  -0.31595  -0.31511
 Alpha  occ. eigenvalues --   -0.31102  -0.30992  -0.30486  -0.30409  -0.30026
 Alpha  occ. eigenvalues --   -0.29666  -0.29217  -0.28732  -0.24527  -0.24300
 Alpha  occ. eigenvalues --   -0.21592  -0.21118
 Alpha virt. eigenvalues --   -0.09401  -0.08979  -0.02270  -0.01490   0.00268
 Alpha virt. eigenvalues --    0.00476   0.01195   0.01252   0.02411   0.02643
 Alpha virt. eigenvalues --    0.04405   0.04411   0.04672   0.05427   0.05610

 Mulliken charges:
               1
     1  Mg   0.801184
     2  C    0.004430
     3  C   -0.071550
     4  C   -0.019791
     5  C   -0.048255
     6  N   -0.286876
     7  C   -0.055422
     8  C   -0.042464
     9  C   -0.052340
    10  C    0.058053
    11  C    0.080539
    12  C    0.048742
    13  C   -0.050668
    14  H    0.026228
    15  N   -0.365257
    16  C    0.114135
    17  C   -0.149652
    18  C   -0.022444
    19  C    0.090982
    20  C    0.140526
    21  C   -0.050235
    22  O   -0.214560
    23  C    0.079030
    24  N   -0.287404
    25  C    0.025728
    26  C   -0.009785
    27  C   -0.012929
    28  C    0.028466
    29  C    0.074430
    30  C    0.039540
    31  C   -0.004088
    32  N   -0.281372
    33  C    0.026158
    34  C   -0.154998
    35  C    0.014922
    36  C    0.076300
    37  C    0.107435
    38  C    0.020284
    39  O   -0.190059
    40  C    0.052726
    41  C    0.149221
    42  O   -0.180131
    43  O   -0.336490
    44  C    0.181930
    45  H   -0.017979
    46  H   -0.053335
    47  H   -0.027242
    48  H    0.012527
    49  H    0.009875
    50  H    0.010238
    51  H    0.025065
    52  H    0.017215
    53  H    0.017873
    54  H    0.012957
    55  H    0.042893
    56  H    0.031779
    57  H    0.047179
    58  H    0.015832
    59  H   -0.004959
    60  H    0.029975
    61  H    0.043490
    62  H    0.024767
    63  H    0.021290
    64  H    0.015157
    65  H    0.014939
    66  H    0.018911
    67  H    0.014606
    68  H    0.016984
    69  H    0.015945
    70  H    0.020666
    71  H    0.008643
    72  H    0.012712
    73  H    0.041385
    74  H    0.029844
    75  H    0.041881
    76  H    0.031441
    77  H    0.027483
    78  H    0.035963
    79  H    0.039781
    80  Mg   0.850165
    81  C   -0.068685
    82  C   -0.046545
    83  C   -0.070145
    84  C   -0.117763
    85  N   -0.248510
    86  C   -0.056132
    87  C   -0.029259
    88  C   -0.067540
    89  C    0.027850
    90  C    0.088684
    91  C    0.079552
    92  C   -0.054267
    93  H    0.008706
    94  N   -0.346050
    95  C    0.095285
    96  C   -0.125935
    97  C   -0.029141
    98  C    0.139840
    99  C    0.130523
   100  C   -0.009056
   101  O   -0.204436
   102  C    0.048538
   103  N   -0.372417
   104  C    0.069200
   105  C   -0.081045
   106  C    0.022208
   107  C    0.057898
   108  C    0.063548
   109  C    0.049692
   110  C    0.008716
   111  N   -0.354567
   112  C    0.126926
   113  C   -0.181009
   114  C   -0.063992
   115  C    0.147728
   116  C    0.135424
   117  C    0.053067
   118  O   -0.136303
   119  C    0.059774
   120  C    0.212853
   121  O   -0.206827
   122  O   -0.375235
   123  C    0.175405
   124  H   -0.030880
   125  H   -0.056691
   126  H   -0.037333
   127  H    0.003963
   128  H    0.001859
   129  H    0.021990
   130  H    0.020355
   131  H    0.014395
   132  H    0.012529
   133  H    0.016692
   134  H    0.032660
   135  H    0.027190
   136  H    0.030834
   137  H    0.030821
   138  H    0.014457
   139  H    0.024093
   140  H    0.029758
   141  H    0.037071
   142  H    0.024827
   143  H    0.007132
   144  H    0.023792
   145  H    0.015788
   146  H    0.009087
   147  H    0.014433
   148  H   -0.000386
   149  H    0.015706
   150  H    0.013721
   151  H    0.015184
   152  H    0.047881
   153  H    0.030545
   154  H    0.013029
   155  H    0.042054
   156  H    0.044657
   157  H    0.034783
   158  H    0.047277
 Sum of Mulliken charges =  -0.00000

 Dipole moment (field-independent basis, Debye):
    X=             -1.8680    Y=              2.8555    Z=             -3.9729  Tot=              5.2371
 Quadrupole moment (field-independent basis, Debye-Ang):
   XX=           -278.0349   YY=           -534.2134   ZZ=           -512.1486
   XY=            -24.6966   XZ=             64.0829   YZ=            -22.0647

 Normal termination of Gaussian 16 at Wed Sep  1 02:32:48 2021.
