 Gaussian 16, Revision A.03,
 Gaussian 16:  ES64L-G16RevA.03 25-Dec-2016

 -----------------------------------
 #p cam-b3lyp/Def2SVP td=(nstates=5)
 -----------------------------------

 --------------------------------
 TDDFT excited states in gaussian
 --------------------------------
 Symbolic Z-matrix:
 Charge =  0 Multiplicity = 1

                         Standard orientation:
 ---------------------------------------------------------------------
 Center     Atomic      Atomic             Coordinates (Angstroms)
 Number     Number       Type             X           Y           Z
 ---------------------------------------------------------------------
      1         12           0      -23.925504    0.423607    0.206472
      2          6           0      -22.257276   -2.471411   -0.446124
      3          6           0      -20.839799    1.996165    0.392843
      4          6           0      -25.580795    3.332922    0.468182
      5          6           0      -26.969182   -1.115436   -0.661363
      6          7           0      -21.792918   -0.143403   -0.265283
      7          6           0      -21.401759   -1.418009   -0.464652
      8          6           0      -19.946018   -1.531177   -0.735555
      9          6           0      -19.451511   -0.101526   -0.069176
     10          6           0      -20.781293    0.673503    0.042790
     11          6           0      -18.684074   -0.293082    1.272219
     12          6           0      -19.705866   -1.587101   -2.235875
     13          6           0      -20.285914   -0.421836   -3.164011
     14          1           0      -19.462631    0.120645   -4.325612
     15          7           0      -23.313125    2.382856    0.400976
     16          6           0      -21.982031    2.828702    0.600199
     17          6           0      -22.053137    4.204040    0.965628
     18          6           0      -23.369815    4.647375    0.953024
     19          6           0      -24.188253    3.462819    0.643889
     20          6           0      -20.757070    4.927009    1.271103
     21          6           0      -23.867343    6.060996    1.138408
     22          8           0      -22.980128    6.927398    1.339444
     23          6           0      -25.194904    6.520860    0.903585
     24          7           0      -25.966073    1.042570   -0.279546
     25          6           0      -26.401658    2.306893   -0.011108
     26          6           0      -27.910240    2.458185   -0.320932
     27          6           0      -28.329614    0.994464   -0.686490
     28          6           0      -27.000043    0.262786   -0.613766
     29          6           0      -28.702843    3.065736    0.816704
     30          6           0      -29.037873    0.933780   -2.143276
     31          6           0      -30.262245    0.013413   -2.205082
     32          7           0      -24.593213   -1.458973   -0.441267
     33          6           0      -25.832601   -2.002354   -0.556573
     34          6           0      -25.658263   -3.426968   -0.639974
     35          6           0      -24.254924   -3.730588   -0.562844
     36          6           0      -23.661120   -2.482728   -0.469630
     37          6           0      -26.716998   -4.402258   -1.026182
     38          6           0      -23.218660   -4.710138   -0.631276
     39          8           0      -23.411967   -5.928837   -0.724889
     40          6           0      -21.914373   -3.942076   -0.522719
     41          6           0      -21.170568   -4.439733    0.660026
     42          8           0      -20.895235   -5.621164    0.733390
     43          8           0      -20.782969   -3.471689    1.535375
     44          6           0      -20.027573   -3.948223    2.695638
     45          1           0      -19.892307    2.427696    0.721876
     46          1           0      -26.114627    4.229786    0.788762
     47          1           0      -27.887145   -1.698553   -0.763407
     48          1           0      -19.410370   -2.386483   -0.323565
     49          1           0      -18.669972    0.359332   -0.674654
     50          1           0      -17.685939    0.136393    1.194468
     51          1           0      -18.572326   -1.367553    1.419965
     52          1           0      -19.191784    0.109892    2.149505
     53          1           0      -20.024840   -2.573993   -2.571767
     54          1           0      -18.624575   -1.713954   -2.287593
     55          1           0      -20.553771    0.502179   -2.651445
     56          1           0      -21.143751   -0.914829   -3.620439
     57          1           0      -20.375930    5.256450    0.304328
     58          1           0      -20.047036    4.215346    1.690541
     59          1           0      -20.823694    5.773929    1.954689
     60          1           0      -25.211927    7.562420    0.581156
     61          1           0      -25.883425    6.304238    1.721373
     62          1           0      -25.511112    5.996841    0.002653
     63          1           0      -27.915645    3.096671   -1.205029
     64          1           0      -28.937777    0.581061    0.117851
     65          1           0      -28.090802    3.408060    1.650736
     66          1           0      -29.579258    2.564660    1.226820
     67          1           0      -29.007548    4.026669    0.401112
     68          1           0      -28.375094    0.602804   -2.942894
     69          1           0      -29.324830    1.922711   -2.500284
     70          1           0      -31.151477    0.640070   -2.267781
     71          1           0      -30.339760   -0.512991   -1.253534
     72          1           0      -30.237798   -0.671640   -3.052693
     73          1           0      -27.522838   -4.579150   -0.314859
     74          1           0      -26.184454   -5.331031   -1.234272
     75          1           0      -27.245253   -4.097962   -1.929823
     76          1           0      -21.350338   -4.175756   -1.426164
     77          1           0      -19.147918   -4.475476    2.325319
     78          1           0      -20.620841   -4.553878    3.380892
     79          1           0      -19.781773   -3.120083    3.360208
     80         12           0       24.185702    0.341398   -0.136620
     81          6           0       22.504011   -2.262464    1.432547
     82          6           0       22.757411    2.480306    2.134548
     83          6           0       25.636440    2.970653   -1.838758
     84          6           0       25.143989   -1.779157   -2.731907
     85          7           0       22.871605    0.094110    1.634598
     86          6           0       22.394943   -1.046504    2.161878
     87          6           0       21.680680   -0.883824    3.523859
     88          6           0       21.563372    0.697863    3.615352
     89          6           0       22.424374    1.169023    2.347297
     90          6           0       20.046180    1.101635    3.582698
     91          6           0       22.634726   -1.553162    4.641013
     92          6           0       21.983025   -2.629875    5.557841
     93          1           0       20.414779   -2.551419    5.622572
     94          7           0       24.167870    2.436421    0.028327
     95          6           0       23.572060    3.115454    1.111205
     96          6           0       23.984208    4.502377    1.072448
     97          6           0       24.763037    4.678609   -0.078243
     98          6           0       24.965103    3.303035   -0.666916
     99          6           0       23.327969    5.553146    1.979318
    100          6           0       25.357736    5.998277   -0.637443
    101          8           0       26.051033    6.092146   -1.667556
    102          6           0       25.146993    7.289386    0.172036
    103          7           0       25.166543    0.524958   -2.065152
    104          6           0       25.728844    1.768636   -2.485518
    105          6           0       26.275566    1.651242   -3.923618
    106          6           0       26.363366    0.060934   -4.072583
    107          6           0       25.542623   -0.440715   -2.855563
    108          6           0       25.362647    2.405352   -4.876315
    109          6           0       27.863013   -0.449859   -3.982017
    110          6           0       28.867059   -0.108273   -2.828849
    111          7           0       23.849122   -1.573328   -0.636245
    112          6           0       24.279209   -2.328474   -1.731648
    113          6           0       23.804777   -3.666702   -1.589535
    114          6           0       23.153578   -3.708129   -0.369908
    115          6           0       23.103461   -2.389598    0.146141
    116          6           0       23.930181   -4.799069   -2.588226
    117          6           0       22.471651   -4.560840    0.520871
    118          8           0       22.177466   -5.699916    0.343533
    119          6           0       21.921690   -3.620881    1.672161
    120          6           0       20.424159   -3.631767    1.536265
    121          8           0       19.776585   -2.708016    1.089694
    122          8           0       19.992699   -4.827690    1.954153
    123          6           0       18.670249   -5.146817    1.474663
    124          1           0       22.374238    3.158577    2.899466
    125          1           0       25.874789    3.824067   -2.475940
    126          1           0       25.426472   -2.454207   -3.543086
    127          1           0       20.711413   -1.376164    3.600394
    128          1           0       22.031131    1.142025    4.494301
    129          1           0       19.808013    1.954155    2.946184
    130          1           0       19.915093    1.327805    4.640508
    131          1           0       19.484718    0.191270    3.374058
    132          1           0       23.109579   -0.737641    5.186082
    133          1           0       23.455787   -2.027647    4.103030
    134          1           0       22.442170   -2.387915    6.515738
    135          1           0       22.234940   -3.660355    5.309094
    136          1           0       22.913468    6.322166    1.326987
    137          1           0       24.097407    6.045844    2.575239
    138          1           0       22.574215    5.080996    2.608659
    139          1           0       24.100316    7.570311    0.048093
    140          1           0       25.718605    8.056844   -0.349586
    141          1           0       25.604791    7.181976    1.155085
    142          1           0       27.296877    2.027826   -3.859907
    143          1           0       26.037999   -0.235044   -5.069243
    144          1           0       24.848824    3.242905   -4.404236
    145          1           0       24.607633    1.738543   -5.292124
    146          1           0       25.937709    2.864688   -5.680052
    147          1           0       28.348425   -0.213409   -4.928942
    148          1           0       27.736209   -1.526039   -3.864030
    149          1           0       29.377577    0.819993   -3.085743
    150          1           0       29.572313   -0.939892   -2.806490
    151          1           0       28.455941   -0.104004   -1.818855
    152          1           0       24.969803   -5.039359   -2.811551
    153          1           0       23.449718   -4.407005   -3.484400
    154          1           0       23.584482   -5.774502   -2.243128
    155          1           0       22.127062   -3.907184    2.703800
    156          1           0       18.500381   -6.212393    1.322210
    157          1           0       18.209092   -4.594474    0.656035
    158          1           0       17.881471   -4.909172    2.188752
 ---------------------------------------------------------------------

 SCF Done:  E(RCAM-B3LYP) =  -4069.81326021     A.U. after   17 cycles

 Excitation energies and oscillator strengths:

 Excited State   1:      Singlet-A      1.7043 eV  727.49 nm  f=0.3826  <S**2>=0.000
     310 -> 316       -0.17575
     312 -> 314        0.68644
     310 <- 316       -0.10653
 This state for optimization and/or second-order correction.
 Total Energy, E(TD-HF/TD-DFT) =  -4069.75062927
 Copying the excited state density for this state as the 1-particle RhoCI density.

 Excited State   2:      Singlet-A      1.7418 eV  711.82 nm  f=0.3982  <S**2>=0.000
     309 -> 315       -0.17692
     311 -> 313        0.68525
     309 <- 315       -0.10390

 Excited State   3:      Singlet-A      2.2176 eV  559.10 nm  f=0.1310  <S**2>=0.000
     309 -> 313        0.65043
     311 -> 315        0.25332

 Excited State   4:      Singlet-A      2.2267 eV  556.81 nm  f=0.1261  <S**2>=0.000
     310 -> 314        0.64625
     312 -> 316        0.27556

 Excited State   5:      Singlet-A      3.0190 eV  410.68 nm  f=0.0000  <S**2>=0.000
     312 -> 313        0.70711

 The electronic state is 1-A.
 Alpha  occ. eigenvalues --  -46.89119 -46.88068 -19.26404 -19.26143 -19.20056
 Alpha  occ. eigenvalues --  -19.19489 -19.19351 -19.18603 -19.18289 -19.18173
 Alpha  occ. eigenvalues --  -14.42234 -14.42090 -14.42072 -14.41424 -14.39800
 Alpha  occ. eigenvalues --  -14.39545 -14.39049 -14.38616 -10.39478 -10.39315
 Alpha  occ. eigenvalues --  -10.35112 -10.34847 -10.34818 -10.34459 -10.32755
 Alpha  occ. eigenvalues --  -10.31690 -10.31589 -10.31344 -10.31228 -10.31198
 Alpha  occ. eigenvalues --  -10.30656 -10.30530 -10.30398 -10.30338 -10.30222
 Alpha  occ. eigenvalues --  -10.30146 -10.29890 -10.29818 -10.29651 -10.29626
 Alpha  occ. eigenvalues --  -10.29211 -10.29056 -10.28873 -10.28571 -10.28510
 Alpha  occ. eigenvalues --  -10.28468 -10.28389 -10.28385 -10.28353 -10.28289
 Alpha  occ. eigenvalues --  -10.28218 -10.28132 -10.28128 -10.28032 -10.27844
 Alpha  occ. eigenvalues --  -10.27742 -10.27655 -10.27651 -10.27584 -10.27410
 Alpha  occ. eigenvalues --  -10.27371 -10.27303 -10.27240 -10.27186 -10.27056
 Alpha  occ. eigenvalues --  -10.27005 -10.27000 -10.26783 -10.26722 -10.26704
 Alpha  occ. eigenvalues --  -10.26676 -10.26555 -10.26519 -10.26478 -10.26352
 Alpha  occ. eigenvalues --  -10.26243 -10.25806 -10.25778 -10.25627 -10.25598
 Alpha  occ. eigenvalues --  -10.25565 -10.25248 -10.25193 -10.24982 -10.24671
 Alpha  occ. eigenvalues --  -10.24562  -3.17572  -3.16670  -1.92448  -1.92047
 Alpha  occ. eigenvalues --   -1.91854  -1.91571  -1.91104  -1.90992  -1.18149
 Alpha  occ. eigenvalues --   -1.17428  -1.12005  -1.09072  -1.09064  -1.08409
 Alpha  occ. eigenvalues --   -1.08323  -1.08004  -1.04995  -1.04553  -1.04144
 Alpha  occ. eigenvalues --   -1.03308  -1.02742  -1.02699  -1.01526  -1.01152
 Alpha  occ. eigenvalues --   -0.94083  -0.92788  -0.89293  -0.89056  -0.88761
 Alpha  occ. eigenvalues --   -0.88524  -0.88121  -0.87803  -0.87744  -0.87067
 Alpha  occ. eigenvalues --   -0.86488  -0.86337  -0.86006  -0.85857  -0.85111
 Alpha  occ. eigenvalues --   -0.84140  -0.83922  -0.83389  -0.83363  -0.82815
 Alpha  occ. eigenvalues --   -0.82275  -0.81470  -0.81188  -0.80911  -0.80898
 Alpha  occ. eigenvalues --   -0.79926  -0.78637  -0.78004  -0.77704  -0.77099
 Alpha  occ. eigenvalues --   -0.77071  -0.76724  -0.76175  -0.75849  -0.74970
 Alpha  occ. eigenvalues --   -0.74947  -0.72949  -0.72525  -0.72137  -0.71172
 Alpha  occ. eigenvalues --   -0.70161  -0.69134  -0.68880  -0.68856  -0.68635
 Alpha  occ. eigenvalues --   -0.67962  -0.67142  -0.66572  -0.66359  -0.65843
 Alpha  occ. eigenvalues --   -0.65349  -0.65228  -0.64538  -0.64468  -0.64403
 Alpha  occ. eigenvalues --   -0.63928  -0.63838  -0.62375  -0.60254  -0.59988
 Alpha  occ. eigenvalues --   -0.59747  -0.59391  -0.59352  -0.58949  -0.58839
 Alpha  occ. eigenvalues --   -0.58408  -0.58399  -0.58034  -0.57989  -0.57243
 Alpha  occ. eigenvalues --   -0.56855  -0.56599  -0.56254  -0.55817  -0.55671
 Alpha  occ. eigenvalues --   -0.55171  -0.54892  -0.54532  -0.54375  -0.54264
 Alpha  occ. eigenvalues --   -0.53958  -0.53767  -0.53496  -0.53358  -0.53114
 Alpha  occ. eigenvalues --   -0.53086  -0.52578  -0.52497  -0.52198  -0.51982
 Alpha  occ. eigenvalues --   -0.51900  -0.51845  -0.51837  -0.51725  -0.51445
 Alpha  occ. eigenvalues --   -0.51092  -0.50945  -0.50932  -0.50605  -0.50343
 Alpha  occ. eigenvalues --   -0.49894  -0.49802  -0.49612  -0.49499  -0.49482
 Alpha  occ. eigenvalues --   -0.49155  -0.49129  -0.48832  -0.48765  -0.48697
 Alpha  occ. eigenvalues --   -0.48584  -0.48488  -0.48320  -0.48171  -0.47936
 Alpha  occ. eigenvalues --   -0.47727  -0.47640  -0.47468  -0.47121  -0.47108
 Alpha  occ. eigenvalues --   -0.46736  -0.46644  -0.46441  -0.46418  -0.46256
 Alpha  occ. eigenvalues --   -0.46160  -0.46065  -0.45748  -0.45714  -0.45653
 Alpha  occ. eigenvalues --   -0.45564  -0.45245  -0.45172  -0.44924  -0.44871
 Alpha  occ. eigenvalues --   -0.44670  -0.44632  -0.44622  -0.44552  -0.44538
 Alpha  occ. eigenvalues --   -0.44313  -0.43745  -0.43743  -0.43592  -0.43560
 Alpha  occ. eigenvalues --   -0.43400  -0.43042  -0.43002  -0.42824  -0.42642
 Alpha  occ. eigenvalues --   -0.42451  -0.42370  -0.42316  -0.42258  -0.41917
 Alpha  occ. eigenvalues --   -0.41914  -0.41796  -0.41738  -0.41306  -0.41286
 Alpha  occ. eigenvalues --   -0.41163  -0.40971  -0.40795  -0.40665  -0.40493
 Alpha  occ. eigenvalues --   -0.40266  -0.39550  -0.39539  -0.39205  -0.39137
 Alpha  occ. eigenvalues --   -0.38691  -0.37841  -0.37705  -0.37669  -0.37530
 Alpha  occ. eigenvalues --   -0.37449  -0.37082  -0.37051  -0.36900  -0.36453
 Alpha  occ. eigenvalues --   -0.36104  -0.35979  -0.34791  -0.34706  -0.34083
 Alpha  occ. eigenvalues --   -0.34005  -0.33117  -0.32654  -0.31791  -0.31634
 Alpha  occ. eigenvalues --   -0.30949  -0.30890  -0.30454  -0.30433  -0.30257
 Alpha  occ. eigenvalues --   -0.30111  -0.29574  -0.28998  -0.24308  -0.23756
 Alpha  occ. eigenvalues --   -0.21678  -0.20965
 Alpha virt. eigenvalues --   -0.09151  -0.08538  -0.01893  -0.01329   0.00139
 Alpha virt. eigenvalues --    0.00572   0.01332   0.02004   0.02492   0.02572
 Alpha virt. eigenvalues --    0.04543   0.04977   0.05500   0.06075   0.06139

 Mulliken charges:
               1
     1  Mg   0.798068
     2  C    0.011986
     3  C   -0.057738
     4  C   -0.074861
     5  C   -0.069387
     6  N   -0.239851
     7  C   -0.031558
     8  C   -0.030252
     9  C   -0.077619
    10  C    0.066866
    11  C    0.065556
    12  C    0.047158
    13  C   -0.074959
    14  H    0.019485
    15  N   -0.433556
    16  C    0.129028
    17  C   -0.132425
    18  C   -0.006640
    19  C    0.148029
    20  C    0.133180
    21  C   -0.016219
    22  O   -0.242237
    23  C    0.084006
    24  N   -0.253723
    25  C    0.012173
    26  C   -0.005328
    27  C   -0.034243
    28  C    0.078921
    29  C    0.065247
    30  C    0.032745
    31  C   -0.000109
    32  N   -0.354100
    33  C    0.076910
    34  C   -0.160976
    35  C    0.052228
    36  C    0.082312
    37  C    0.092186
    38  C   -0.004211
    39  O   -0.166192
    40  C   -0.005010
    41  C    0.184385
    42  O   -0.197400
    43  O   -0.322804
    44  C    0.181849
    45  H   -0.028838
    46  H   -0.058552
    47  H   -0.033098
    48  H   -0.003180
    49  H    0.010756
    50  H    0.015785
    51  H    0.005771
    52  H    0.017966
    53  H    0.000154
    54  H    0.007559
    55  H    0.057196
    56  H    0.043834
    57  H    0.028988
    58  H    0.009133
    59  H    0.039456
    60  H    0.033973
    61  H    0.054619
    62  H    0.027251
    63  H    0.023324
    64  H    0.016277
    65  H    0.015915
    66  H    0.029071
    67  H    0.005120
    68  H    0.011794
    69  H    0.004205
    70  H    0.012593
    71  H    0.012478
    72  H    0.025010
    73  H    0.015367
    74  H    0.034401
    75  H    0.015789
    76  H    0.059741
    77  H    0.045671
    78  H    0.040604
    79  H    0.032950
    80  Mg   0.826288
    81  C   -0.012275
    82  C   -0.055209
    83  C   -0.055295
    84  C   -0.101727
    85  N   -0.262870
    86  C   -0.021584
    87  C   -0.037411
    88  C   -0.073738
    89  C    0.047860
    90  C    0.074578
    91  C    0.036451
    92  C   -0.072620
    93  H    0.021609
    94  N   -0.381521
    95  C    0.116830
    96  C   -0.159372
    97  C   -0.046565
    98  C    0.112342
    99  C    0.135767
   100  C    0.005261
   101  O   -0.221312
   102  C    0.048250
   103  N   -0.269117
   104  C    0.003974
   105  C   -0.013038
   106  C   -0.018935
   107  C    0.072175
   108  C    0.091478
   109  C   -0.014717
   110  C    0.000580
   111  N   -0.397751
   112  C    0.133571
   113  C   -0.171114
   114  C    0.038088
   115  C    0.108991
   116  C    0.123565
   117  C    0.021066
   118  O   -0.126727
   119  C   -0.025998
   120  C    0.176018
   121  O   -0.208529
   122  O   -0.277525
   123  C    0.182020
   124  H   -0.037524
   125  H    0.007424
   126  H   -0.023658
   127  H    0.021959
   128  H    0.013738
   129  H    0.030037
   130  H    0.010706
   131  H    0.027830
   132  H    0.008554
   133  H    0.018916
   134  H    0.034141
   135  H    0.048654
   136  H    0.023674
   137  H    0.016878
   138  H    0.018125
   139  H    0.040353
   140  H    0.017705
   141  H    0.042656
   142  H    0.008199
   143  H    0.001967
   144  H    0.024898
   145  H    0.013012
   146  H    0.014150
   147  H    0.012839
   148  H   -0.002232
   149  H    0.027129
   150  H    0.014291
   151  H    0.022607
   152  H    0.015017
   153  H    0.034291
   154  H    0.032752
   155  H    0.026016
   156  H    0.038670
   157  H    0.037264
   158  H    0.007152
 Sum of Mulliken charges =  -0.00000

 Dipole moment (field-independent basis, Debye):
    X=             -1.6987    Y=              3.7881    Z=              3.9919  Tot=              5.7594
 Quadrupole moment (field-independent basis, Debye-Ang):
   XX=           -368.8549   YY=           -596.6918   ZZ=           -482.1571
   XY=           -115.6898   XZ=             18.5019   YZ=              4.3030

 Normal termination of Gaussian 16 at Wed Sep 15 18:25:19 2021.
