 Gaussian 16, Revision A.03,
 Gaussian 16:  ES64L-G16RevA.03 25-Dec-2016

 -----------------------------------
 #p cam-b3lyp/Def2SVP td=(nstates=5)
 -----------------------------------

 --------------------------------
 TDDFT excited states in gaussian
 --------------------------------
 Symbolic Z-matrix:
 Charge =  0 Multiplicity = 1

                         Standard orientation:
 ---------------------------------------------------------------------
 Center     Atomic      Atomic             Coordinates (Angstroms)
 Number     Number       Type             X           Y           Z
 ---------------------------------------------------------------------
      1         12           0      -25.824286   -0.412586   -0.486939
      2          6           0      -24.010943    2.508281   -0.249557
      3          6           0      -28.153888    1.026415    1.564713
      4          6           0      -27.463670   -3.364994   -0.476040
      5          6           0      -23.138239   -1.955627   -2.065960
      6          7           0      -25.915147    1.559617    0.636928
      7          6           0      -25.215358    2.608103    0.430841
      8          6           0      -25.701295    3.958012    1.172455
      9          6           0      -26.895016    3.335311    1.998824
     10          6           0      -26.983399    1.833585    1.448120
     11          6           0      -26.657897    3.261895    3.597409
     12          6           0      -26.134482    5.148017    0.210923
     13          6           0      -25.901981    6.616514    0.714983
     14          1           0      -25.530996    6.780719    2.157907
     15          7           0      -27.554941   -1.048835    0.325904
     16          6           0      -28.484448   -0.265449    1.116789
     17          6           0      -29.636734   -1.113795    1.402850
     18          6           0      -29.402079   -2.423478    0.914874
     19          6           0      -28.120625   -2.314814    0.181601
     20          6           0      -30.787680   -0.477667    2.095605
     21          6           0      -30.276624   -3.698450    0.958276
     22          8           0      -29.940264   -4.787952    0.600414
     23          6           0      -31.623818   -3.536853    1.691096
     24          7           0      -25.374209   -2.452917   -1.066484
     25          6           0      -26.164987   -3.474764   -0.972831
     26          6           0      -25.433659   -4.802726   -1.319112
     27          6           0      -24.091981   -4.336704   -1.933563
     28          6           0      -24.180301   -2.809184   -1.706310
     29          6           0      -25.275541   -5.691761   -0.067270
     30          6           0      -23.928309   -4.781611   -3.419308
     31          6           0      -23.680972   -6.285060   -3.623379
     32          7           0      -23.920872    0.129277   -1.070106
     33          6           0      -22.988037   -0.590605   -1.795247
     34          6           0      -21.894647    0.306732   -2.061154
     35          6           0      -22.184471    1.563255   -1.449873
     36          6           0      -23.476914    1.351575   -0.897082
     37          6           0      -20.708166   -0.040359   -2.753427
     38          6           0      -21.795009    2.920622   -1.236100
     39          8           0      -20.699260    3.482117   -1.535493
     40          6           0      -22.936027    3.539225   -0.338747
     41          6           0      -22.324873    3.967918    0.901212
     42          8           0      -22.078849    3.222875    1.849438
     43          8           0      -21.952179    5.277615    0.735934
     44          6           0      -21.084142    5.775026    1.824150
     45          1           0      -28.901434    1.449534    2.238273
     46          1           0      -28.062124   -4.278817   -0.451661
     47          1           0      -22.352524   -2.467565   -2.626271
     48          1           0      -24.869426    4.193957    1.836590
     49          1           0      -27.801684    3.920148    1.845117
     50          1           0      -25.585572    3.334571    3.781109
     51          1           0      -27.035422    2.314161    3.980991
     52          1           0      -27.149685    4.029934    4.195261
     53          1           0      -27.208489    5.003448    0.096890
     54          1           0      -25.871724    5.039823   -0.841948
     55          1           0      -26.751624    7.278349    0.547547
     56          1           0      -25.040079    7.035984    0.195987
     57          1           0      -30.636650   -0.482419    3.175460
     58          1           0      -31.751948   -0.854455    1.754256
     59          1           0      -30.813341    0.561966    1.769965
     60          1           0      -32.380215   -2.981959    1.135191
     61          1           0      -31.310488   -3.025868    2.600930
     62          1           0      -32.093330   -4.459415    2.031170
     63          1           0      -26.084017   -5.234866   -2.079257
     64          1           0      -23.265509   -4.701058   -1.323451
     65          1           0      -25.287202   -5.168972    0.889358
     66          1           0      -24.345480   -6.248565    0.051726
     67          1           0      -26.109616   -6.392300   -0.107049
     68          1           0      -23.057474   -4.280843   -3.840096
     69          1           0      -24.803166   -4.475367   -3.993838
     70          1           0      -23.769264   -6.767467   -2.649927
     71          1           0      -22.621770   -6.441371   -3.828280
     72          1           0      -24.228161   -6.808953   -4.406733
     73          1           0      -21.053971   -0.611929   -3.614807
     74          1           0      -20.005952   -0.679918   -2.218924
     75          1           0      -20.147552    0.872557   -2.957041
     76          1           0      -23.240538    4.418225   -0.907451
     77          1           0      -20.150049    5.218595    1.741997
     78          1           0      -21.584145    5.741916    2.791571
     79          1           0      -20.872317    6.823353    1.613235
     80         12           0       25.037497   -0.794723    0.337429
     81          6           0       25.618683    2.387193   -1.198482
     82          6           0       25.253596    0.706375    3.418648
     83          6           0       24.961761   -3.801620    1.873871
     84          6           0       25.810930   -2.258346   -2.777209
     85          7           0       25.382883    1.301526    0.995624
     86          6           0       25.526522    2.466580    0.225826
     87          6           0       25.593469    3.659468    1.144644
     88          6           0       25.990814    2.997558    2.531030
     89          6           0       25.563764    1.519311    2.293003
     90          6           0       27.541644    3.160020    2.716482
     91          6           0       24.308261    4.560103    1.123783
     92          6           0       24.671500    5.958550    1.082662
     93          1           0       23.470595    6.962352    0.701959
     94          7           0       24.929026   -1.355266    2.394040
     95          6           0       24.995307   -0.591031    3.490784
     96          6           0       24.769866   -1.402765    4.647103
     97          6           0       24.699056   -2.719784    4.244214
     98          6           0       24.812673   -2.697973    2.713020
     99          6           0       24.847752   -0.825532    6.096185
    100          6           0       24.434792   -3.982012    5.090590
    101          8           0       24.444029   -5.059992    4.552228
    102          6           0       24.077750   -3.870768    6.554094
    103          7           0       25.621419   -2.740457   -0.339493
    104          6           0       25.352547   -3.823696    0.489907
    105          6           0       25.395151   -5.103981   -0.279171
    106          6           0       25.647314   -4.614174   -1.787973
    107          6           0       25.633521   -3.109124   -1.659806
    108          6           0       26.383255   -6.081004    0.262445
    109          6           0       24.622709   -5.149963   -2.931717
    110          6           0       25.175501   -5.957883   -4.038527
    111          7           0       25.555525   -0.137858   -1.629702
    112          6           0       25.835640   -0.878158   -2.756079
    113          6           0       26.062160    0.097041   -3.909558
    114          6           0       25.874288    1.385897   -3.371238
    115          6           0       25.619980    1.190279   -1.968517
    116          6           0       26.444172   -0.317713   -5.336996
    117          6           0       26.004385    2.772439   -3.702971
    118          8           0       26.257141    3.324000   -4.797823
    119          6           0       26.014827    3.485660   -2.288939
    120          6           0       25.080473    4.722992   -2.444821
    121          8           0       23.913959    4.698063   -2.011383
    122          8           0       25.766799    5.750519   -3.002415
    123          6           0       24.799865    6.854349   -3.329062
    124          1           0       25.097564    1.195180    4.382968
    125          1           0       24.920469   -4.786244    2.345679
    126          1           0       25.961846   -2.613818   -3.798511
    127          1           0       26.467594    4.227167    0.826508
    128          1           0       25.484678    3.477749    3.367739
    129          1           0       28.128725    2.495498    2.083053
    130          1           0       27.784039    3.025783    3.769820
    131          1           0       27.816832    4.186963    2.475024
    132          1           0       23.847648    4.454167    2.106271
    133          1           0       23.606287    4.253126    0.348115
    134          1           0       25.355215    6.163133    0.258606
    135          1           0       25.076846    6.218900    2.060733
    136          1           0       23.885879   -1.111370    6.521766
    137          1           0       24.928570    0.259788    6.154696
    138          1           0       25.714663   -1.237640    6.612476
    139          1           0       24.009516   -4.859668    7.007576
    140          1           0       23.115781   -3.379861    6.407019
    141          1           0       24.830886   -3.250232    7.039623
    142          1           0       24.376837   -5.477624   -0.170188
    143          1           0       26.640954   -4.965684   -2.064741
    144          1           0       25.771051   -6.871630    0.694431
    145          1           0       26.952376   -5.688921    1.105204
    146          1           0       27.099648   -6.474732   -0.458933
    147          1           0       24.286754   -4.217462   -3.385152
    148          1           0       23.776352   -5.612072   -2.425300
    149          1           0       25.050410   -5.452771   -4.995940
    150          1           0       24.436003   -6.756288   -3.987270
    151          1           0       26.163166   -6.367363   -3.822175
    152          1           0       27.531968   -0.270994   -5.373961
    153          1           0       26.025166    0.347584   -6.091863
    154          1           0       26.037360   -1.308797   -5.538034
    155          1           0       27.059625    3.767323   -2.165260
    156          1           0       24.160952    6.664523   -4.191378
    157          1           0       25.257025    7.831956   -3.478507
    158          1           0       24.202023    6.991755   -2.427835
 ---------------------------------------------------------------------

 SCF Done:  E(RCAM-B3LYP) =  -4069.79366082     A.U. after   18 cycles

 Excitation energies and oscillator strengths:

 Excited State   1:      Singlet-A      1.7187 eV  721.37 nm  f=0.3544  <S**2>=0.000
     309 -> 315       -0.18755
     312 -> 314        0.68234
     309 <- 315       -0.10714
 This state for optimization and/or second-order correction.
 Total Energy, E(TD-HF/TD-DFT) =  -4069.73049873
 Copying the excited state density for this state as the 1-particle RhoCI density.

 Excited State   2:      Singlet-A      1.7724 eV  699.52 nm  f=0.3829  <S**2>=0.000
     310 -> 316        0.19902
     311 -> 313        0.67935
     310 <- 316        0.10974

 Excited State   3:      Singlet-A      2.2144 eV  559.90 nm  f=0.1112  <S**2>=0.000
     310 -> 313        0.64302
     311 -> 316       -0.28130

 Excited State   4:      Singlet-A      2.2689 eV  546.46 nm  f=0.0058  <S**2>=0.000
     309 -> 314        0.54882
     312 -> 315        0.43684

 Excited State   5:      Singlet-A      3.0207 eV  410.44 nm  f=0.0000  <S**2>=0.000
     312 -> 313        0.70710

 The electronic state is 1-A.
 Alpha  occ. eigenvalues --  -46.89404 -46.88381 -19.26130 -19.24780 -19.20148
 Alpha  occ. eigenvalues --  -19.19729 -19.19460 -19.19290 -19.18720 -19.18222
 Alpha  occ. eigenvalues --  -14.42241 -14.42203 -14.41886 -14.41522 -14.39661
 Alpha  occ. eigenvalues --  -14.39338 -14.39125 -14.38927 -10.39691 -10.38537
 Alpha  occ. eigenvalues --  -10.36258 -10.35650 -10.34879 -10.34743 -10.31823
 Alpha  occ. eigenvalues --  -10.31506 -10.31345 -10.31280 -10.31255 -10.31178
 Alpha  occ. eigenvalues --  -10.30901 -10.30666 -10.30653 -10.30459 -10.30453
 Alpha  occ. eigenvalues --  -10.30407 -10.30321 -10.29418 -10.29198 -10.29146
 Alpha  occ. eigenvalues --  -10.28976 -10.28971 -10.28941 -10.28912 -10.28906
 Alpha  occ. eigenvalues --  -10.28741 -10.28634 -10.28589 -10.28171 -10.28126
 Alpha  occ. eigenvalues --  -10.28085 -10.28078 -10.28077 -10.28015 -10.27778
 Alpha  occ. eigenvalues --  -10.27770 -10.27751 -10.27599 -10.27542 -10.27341
 Alpha  occ. eigenvalues --  -10.27324 -10.27160 -10.27121 -10.27087 -10.26988
 Alpha  occ. eigenvalues --  -10.26908 -10.26902 -10.26664 -10.26546 -10.26393
 Alpha  occ. eigenvalues --  -10.26360 -10.26264 -10.26260 -10.26222 -10.26141
 Alpha  occ. eigenvalues --  -10.25924 -10.25851 -10.25652 -10.25379 -10.25334
 Alpha  occ. eigenvalues --  -10.25312 -10.25073 -10.24999 -10.24902 -10.24635
 Alpha  occ. eigenvalues --  -10.24435  -3.17741  -3.16994  -1.92637  -1.92183
 Alpha  occ. eigenvalues --   -1.92042  -1.91887  -1.91455  -1.91297  -1.16015
 Alpha  occ. eigenvalues --   -1.15505  -1.12502  -1.11711  -1.07820  -1.07208
 Alpha  occ. eigenvalues --   -1.07098  -1.06731  -1.05368  -1.04300  -1.04054
 Alpha  occ. eigenvalues --   -1.03441  -1.03004  -1.02673  -1.01406  -1.00856
 Alpha  occ. eigenvalues --   -0.92507  -0.91191  -0.89305  -0.88907  -0.88659
 Alpha  occ. eigenvalues --   -0.88344  -0.88162  -0.87827  -0.87476  -0.87467
 Alpha  occ. eigenvalues --   -0.87220  -0.86945  -0.86839  -0.85442  -0.84381
 Alpha  occ. eigenvalues --   -0.83897  -0.83754  -0.83466  -0.82580  -0.82485
 Alpha  occ. eigenvalues --   -0.82310  -0.81724  -0.81035  -0.80646  -0.80427
 Alpha  occ. eigenvalues --   -0.80263  -0.78532  -0.78186  -0.77512  -0.77374
 Alpha  occ. eigenvalues --   -0.76506  -0.76368  -0.75737  -0.75441  -0.74895
 Alpha  occ. eigenvalues --   -0.74825  -0.72190  -0.72139  -0.71449  -0.71408
 Alpha  occ. eigenvalues --   -0.69398  -0.68775  -0.68769  -0.68167  -0.67836
 Alpha  occ. eigenvalues --   -0.67383  -0.66976  -0.66340  -0.65805  -0.65392
 Alpha  occ. eigenvalues --   -0.65078  -0.64929  -0.64739  -0.64403  -0.64267
 Alpha  occ. eigenvalues --   -0.64065  -0.62007  -0.61536  -0.60007  -0.59890
 Alpha  occ. eigenvalues --   -0.59353  -0.59117  -0.59084  -0.58402  -0.58266
 Alpha  occ. eigenvalues --   -0.58205  -0.57863  -0.57649  -0.57387  -0.57063
 Alpha  occ. eigenvalues --   -0.55976  -0.55951  -0.55703  -0.55524  -0.55143
 Alpha  occ. eigenvalues --   -0.55027  -0.54535  -0.54290  -0.53976  -0.53960
 Alpha  occ. eigenvalues --   -0.53944  -0.53518  -0.53338  -0.53138  -0.52936
 Alpha  occ. eigenvalues --   -0.52935  -0.52712  -0.52710  -0.52559  -0.52422
 Alpha  occ. eigenvalues --   -0.52054  -0.51892  -0.51880  -0.51356  -0.51223
 Alpha  occ. eigenvalues --   -0.51099  -0.50925  -0.50701  -0.50522  -0.50386
 Alpha  occ. eigenvalues --   -0.50369  -0.50184  -0.50093  -0.49482  -0.49417
 Alpha  occ. eigenvalues --   -0.49126  -0.49085  -0.48940  -0.48901  -0.48618
 Alpha  occ. eigenvalues --   -0.48514  -0.48447  -0.48177  -0.48168  -0.47967
 Alpha  occ. eigenvalues --   -0.47819  -0.47813  -0.47771  -0.47400  -0.47020
 Alpha  occ. eigenvalues --   -0.46613  -0.46586  -0.46514  -0.46437  -0.46218
 Alpha  occ. eigenvalues --   -0.46201  -0.46061  -0.46016  -0.45817  -0.45587
 Alpha  occ. eigenvalues --   -0.45353  -0.45104  -0.44841  -0.44603  -0.44510
 Alpha  occ. eigenvalues --   -0.44391  -0.44319  -0.44267  -0.44150  -0.44055
 Alpha  occ. eigenvalues --   -0.43724  -0.43715  -0.43507  -0.43425  -0.43190
 Alpha  occ. eigenvalues --   -0.43125  -0.42995  -0.42906  -0.42809  -0.42759
 Alpha  occ. eigenvalues --   -0.42650  -0.42334  -0.42249  -0.41970  -0.41884
 Alpha  occ. eigenvalues --   -0.41695  -0.41652  -0.41449  -0.41434  -0.41172
 Alpha  occ. eigenvalues --   -0.41097  -0.40750  -0.40638  -0.40193  -0.40188
 Alpha  occ. eigenvalues --   -0.39810  -0.39793  -0.39377  -0.38813  -0.38519
 Alpha  occ. eigenvalues --   -0.38202  -0.37965  -0.37838  -0.37603  -0.37237
 Alpha  occ. eigenvalues --   -0.37053  -0.36924  -0.36866  -0.36542  -0.36305
 Alpha  occ. eigenvalues --   -0.36116  -0.34756  -0.34293  -0.33964  -0.33878
 Alpha  occ. eigenvalues --   -0.33793  -0.33422  -0.33067  -0.31739  -0.31704
 Alpha  occ. eigenvalues --   -0.31371  -0.31182  -0.30599  -0.30368  -0.30130
 Alpha  occ. eigenvalues --   -0.30048  -0.29304  -0.29152  -0.24224  -0.23653
 Alpha  occ. eigenvalues --   -0.21224  -0.20175
 Alpha virt. eigenvalues --   -0.08405  -0.07546  -0.02482  -0.01677  -0.00017
 Alpha virt. eigenvalues --    0.00035   0.01844   0.02108   0.02428   0.02620
 Alpha virt. eigenvalues --    0.04892   0.05482   0.05485   0.05954   0.06043

 Mulliken charges:
               1
     1  Mg   0.834137
     2  C    0.046693
     3  C   -0.061067
     4  C   -0.071289
     5  C   -0.093662
     6  N   -0.207332
     7  C   -0.140059
     8  C    0.027026
     9  C   -0.087877
    10  C    0.045276
    11  C    0.043968
    12  C    0.065413
    13  C   -0.077249
    14  H    0.020422
    15  N   -0.449243
    16  C    0.144349
    17  C   -0.127420
    18  C   -0.063070
    19  C    0.122861
    20  C    0.101061
    21  C    0.037205
    22  O   -0.159079
    23  C    0.015510
    24  N   -0.261519
    25  C    0.011085
    26  C    0.001205
    27  C   -0.019815
    28  C    0.031428
    29  C    0.063927
    30  C    0.026416
    31  C    0.015651
    32  N   -0.333830
    33  C    0.151038
    34  C   -0.160992
    35  C    0.054035
    36  C    0.083190
    37  C    0.103582
    38  C    0.016016
    39  O   -0.220066
    40  C   -0.011497
    41  C    0.205079
    42  O   -0.233927
    43  O   -0.336052
    44  C    0.186339
    45  H   -0.027694
    46  H   -0.015368
    47  H   -0.031259
    48  H    0.025828
    49  H    0.014657
    50  H    0.026784
    51  H    0.017629
    52  H    0.017607
    53  H   -0.007410
    54  H    0.015273
    55  H    0.035045
    56  H    0.042419
    57  H    0.043207
    58  H    0.020466
    59  H    0.020685
    60  H    0.049376
    61  H    0.033200
    62  H    0.022825
    63  H    0.011377
    64  H    0.008391
    65  H    0.021635
    66  H    0.013243
    67  H    0.028441
    68  H    0.004150
    69  H    0.007212
    70  H    0.004340
    71  H    0.003666
    72  H    0.027908
    73  H    0.017367
    74  H    0.026275
    75  H    0.033209
    76  H    0.032846
    77  H    0.049816
    78  H    0.038649
    79  H    0.030331
    80  Mg   0.811248
    81  C    0.053150
    82  C   -0.123001
    83  C   -0.063826
    84  C   -0.065431
    85  N   -0.267899
    86  C   -0.054855
    87  C   -0.044089
    88  C   -0.099852
    89  C    0.112737
    90  C    0.068886
    91  C    0.138607
    92  C   -0.083162
    93  H   -0.006546
    94  N   -0.362791
    95  C    0.148153
    96  C   -0.139274
    97  C   -0.064757
    98  C    0.139361
    99  C    0.103294
   100  C   -0.015276
   101  O   -0.185050
   102  C    0.069080
   103  N   -0.322244
   104  C    0.034094
   105  C   -0.048992
   106  C   -0.011831
   107  C    0.064141
   108  C    0.078939
   109  C    0.007245
   110  C    0.029989
   111  N   -0.332872
   112  C    0.080396
   113  C   -0.182277
   114  C    0.030895
   115  C    0.076658
   116  C    0.117216
   117  C    0.052337
   118  O   -0.200669
   119  C   -0.080742
   120  C    0.223743
   121  O   -0.248567
   122  O   -0.310001
   123  C    0.170749
   124  H   -0.035030
   125  H    0.002001
   126  H   -0.033078
   127  H   -0.004808
   128  H   -0.000966
   129  H    0.028215
   130  H    0.011839
   131  H    0.014437
   132  H   -0.009241
   133  H    0.049597
   134  H    0.031243
   135  H    0.021220
   136  H    0.030230
   137  H    0.013478
   138  H    0.050645
   139  H    0.035170
   140  H    0.045123
   141  H    0.034443
   142  H    0.016514
   143  H    0.007018
   144  H    0.017631
   145  H    0.024249
   146  H    0.016120
   147  H    0.003807
   148  H    0.003990
   149  H    0.022784
   150  H    0.008370
   151  H    0.020779
   152  H    0.040138
   153  H    0.033961
   154  H    0.013518
   155  H    0.060419
   156  H    0.051654
   157  H    0.033600
   158  H    0.044011
 Sum of Mulliken charges =  -0.00000

 Dipole moment (field-independent basis, Debye):
    X=             -4.6675    Y=             -0.7112    Z=              4.9420  Tot=              6.8348
 Quadrupole moment (field-independent basis, Debye-Ang):
   XX=           -276.2917   YY=           -496.6601   ZZ=           -494.9976
   XY=            -63.0862   XZ=             94.3743   YZ=             37.5312

 Normal termination of Gaussian 16 at Thu Sep 16 06:29:26 2021.
