 Gaussian 16, Revision A.03,
 Gaussian 16:  ES64L-G16RevA.03 25-Dec-2016

 ----------------------------------------------------------
 #p cam-b3lyp/Def2SVP td=(nstates=5) density=(transition=1)
 ----------------------------------------------------------

 --------------------------------
 TDDFT excited states in gaussian
 --------------------------------
 Symbolic Z-matrix:
 Charge =  0 Multiplicity = 1

                         Standard orientation:
 ---------------------------------------------------------------------
 Center     Atomic      Atomic             Coordinates (Angstroms)
 Number     Number       Type             X           Y           Z
 ---------------------------------------------------------------------
      1         12           0      -32.012883    0.336260    0.463840
      2          6           0      -30.000973   -2.076352   -1.073840
      3          6           0      -33.149356    1.130681   -2.716619
      4          6           0      -33.556798    2.855125    1.821380
      5          6           0      -30.515519   -0.524455    3.555886
      6          7           0      -31.309693   -0.133970   -1.739627
      7          6           0      -30.620724   -1.234700   -2.057646
      8          6           0      -30.659216   -1.381805   -3.542075
      9          6           0      -31.314666   -0.077781   -4.059255
     10          6           0      -32.008123    0.347713   -2.780241
     11          6           0      -30.444750    1.022020   -4.670523
     12          6           0      -31.459593   -2.648444   -3.982398
     13          6           0      -30.820193   -3.625965   -5.020762
     14          1           0      -29.829569   -3.062211   -6.086711
     15          7           0      -33.336471    1.733826   -0.335336
     16          6           0      -33.793249    1.740238   -1.646623
     17          6           0      -34.785333    2.762561   -1.725395
     18          6           0      -34.847313    3.396847   -0.420257
     19          6           0      -33.915704    2.681912    0.439312
     20          6           0      -35.522389    3.172560   -3.019129
     21          6           0      -35.658703    4.639780    0.045886
     22          8           0      -35.622704    5.094740    1.145035
     23          6           0      -36.595044    5.244535   -0.981695
     24          7           0      -32.017754    1.019402    2.408580
     25          6           0      -32.703080    2.145092    2.709462
     26          6           0      -32.607916    2.560876    4.203330
     27          6           0      -31.841342    1.298048    4.788607
     28          6           0      -31.441321    0.514636    3.543983
     29          6           0      -31.843437    3.999416    4.354351
     30          6           0      -32.644669    0.526580    5.882366
     31          6           0      -33.409611   -0.714438    5.458474
     32          7           0      -30.570014   -1.046089    1.195056
     33          6           0      -30.143705   -1.330592    2.464258
     34          6           0      -29.171308   -2.476683    2.385249
     35          6           0      -29.102949   -2.784950    1.007748
     36          6           0      -29.938689   -1.866678    0.289887
     37          6           0      -28.314682   -3.036372    3.488306
     38          6           0      -28.488001   -3.662518    0.014886
     39          8           0      -27.669979   -4.567284    0.204128
     40          6           0      -29.172984   -3.331308   -1.307670
     41          6           0      -28.063878   -3.120502   -2.298183
     42          8           0      -27.383964   -2.114549   -2.386434
     43          8           0      -27.876335   -4.291965   -2.883444
     44          6           0      -26.621328   -4.518542   -3.582839
     45          1           0      -33.401648    1.480415   -3.719391
     46          1           0      -34.201756    3.576231    2.327212
     47          1           0      -30.065753   -0.798970    4.512667
     48          1           0      -29.638324   -1.492058   -3.906379
     49          1           0      -31.977892   -0.377977   -4.870602
     50          1           0      -29.379261    0.806953   -4.753566
     51          1           0      -30.551871    1.946497   -4.102414
     52          1           0      -30.837907    1.192720   -5.672471
     53          1           0      -32.480471   -2.430863   -4.295656
     54          1           0      -31.540237   -3.143322   -3.014668
     55          1           0      -31.684874   -4.041162   -5.540023
     56          1           0      -30.307341   -4.420077   -4.478711
     57          1           0      -35.457097    4.239528   -3.232467
     58          1           0      -36.600491    3.029650   -2.944208
     59          1           0      -35.207982    2.627771   -3.910310
     60          1           0      -37.252816    4.506256   -1.440835
     61          1           0      -35.989543    5.781526   -1.711946
     62          1           0      -37.160867    6.065524   -0.541369
     63          1           0      -33.586567    2.667480    4.670960
     64          1           0      -30.934197    1.563372    5.331372
     65          1           0      -30.873503    3.744280    4.781452
     66          1           0      -32.285311    4.649053    5.110203
     67          1           0      -31.626115    4.489903    3.404840
     68          1           0      -33.429037    1.227388    6.168601
     69          1           0      -32.044121    0.306595    6.764768
     70          1           0      -33.883617   -0.422612    4.520527
     71          1           0      -34.105694   -0.826448    6.289422
     72          1           0      -32.884567   -1.633470    5.199339
     73          1           0      -28.321229   -2.540279    4.458895
     74          1           0      -27.272775   -3.033603    3.167802
     75          1           0      -28.595548   -4.086836    3.557212
     76          1           0      -29.719376   -4.159467   -1.759442
     77          1           0      -25.826768   -3.774614   -3.534646
     78          1           0      -26.932275   -4.524709   -4.627980
     79          1           0      -26.401980   -5.585727   -3.547388
     80         12           0       31.925491    0.466675   -0.648653
     81          6           0       29.564840   -2.082969   -0.052653
     82          6           0       29.384835    2.715574   -0.340952
     83          6           0       34.288510    2.928911   -0.461600
     84          6           0       34.411190   -2.074343   -0.394594
     85          7           0       29.708742    0.327968   -0.093135
     86          6           0       28.909661   -0.778104   -0.042876
     87          6           0       27.457172   -0.431717    0.327494
     88          6           0       27.481714    1.094299   -0.175692
     89          6           0       28.956968    1.407344   -0.210686
     90          6           0       26.814647    1.360802   -1.551747
     91          6           0       27.129940   -0.521641    1.885766
     92          6           0       25.690376   -0.743398    2.323469
     93          1           0       24.868837    0.353345    3.033928
     94          7           0       31.921229    2.608910   -0.463178
     95          6           0       30.749818    3.308267   -0.493436
     96          6           0       30.985119    4.676850   -0.635311
     97          6           0       32.423818    4.801693   -0.704135
     98          6           0       32.978537    3.431896   -0.512060
     99          6           0       29.904172    5.747400   -0.724113
    100          6           0       33.116137    6.131043   -0.903113
    101          8           0       32.428060    7.177294   -1.024037
    102          6           0       34.667347    6.286627   -1.082736
    103          7           0       33.995906    0.372436   -0.464085
    104          6           0       34.774211    1.561379   -0.442465
    105          6           0       36.222524    1.230184   -0.672679
    106          6           0       36.333457   -0.269289   -0.321205
    107          6           0       34.854666   -0.731831   -0.469804
    108          6           0       36.840582    1.416534   -2.076839
    109          6           0       36.839315   -0.509643    1.197486
    110          6           0       38.334647   -0.490824    1.476540
    111          7           0       31.944411   -1.679200   -0.477109
    112          6           0       33.014563   -2.557729   -0.398484
    113          6           0       32.593956   -3.858372   -0.194064
    114          6           0       31.195863   -3.750104   -0.100124
    115          6           0       30.859069   -2.394880   -0.255729
    116          6           0       33.491691   -5.051791   -0.102883
    117          6           0       30.037571   -4.470565   -0.012252
    118          8           0       29.858381   -5.672261   -0.037027
    119          6           0       28.963128   -3.402137    0.280074
    120          6           0       28.609182   -3.597018    1.724208
    121          8           0       29.394619   -3.536754    2.618373
    122          8           0       27.259625   -3.931557    1.849198
    123          6           0       26.913815   -4.290407    3.180594
    124          1           0       28.585349    3.450580   -0.457244
    125          1           0       35.082497    3.664998   -0.606942
    126          1           0       35.217174   -2.807158   -0.467919
    127          1           0       26.732644   -0.933872   -0.312729
    128          1           0       26.908538    1.665751    0.553857
    129          1           0       25.828182    1.727331   -1.266380
    130          1           0       26.686725    0.447877   -2.133263
    131          1           0       27.337341    2.139633   -2.107248
    132          1           0       27.402063    0.408438    2.384857
    133          1           0       27.804173   -1.272841    2.297692
    134          1           0       25.748470   -1.614230    2.978054
    135          1           0       25.131675   -1.055175    1.441147
    136          1           0       30.050093    6.610051   -1.375086
    137          1           0       29.834130    5.978344    0.338580
    138          1           0       28.997421    5.324032   -1.156210
    139          1           0       34.982040    5.760971   -1.983859
    140          1           0       35.049637    5.860195   -0.155521
    141          1           0       35.054816    7.304988   -1.055656
    142          1           0       36.785250    1.791728    0.072341
    143          1           0       36.998561   -0.805141   -0.998505
    144          1           0       37.128810    0.495044   -2.582383
    145          1           0       37.464164    2.309715   -2.120511
    146          1           0       35.998957    1.745413   -2.686225
    147          1           0       36.415698   -1.497389    1.378046
    148          1           0       36.382418    0.210488    1.876541
    149          1           0       38.537004    0.205643    2.289779
    150          1           0       38.862750   -0.162619    0.580850
    151          1           0       38.688069   -1.465101    1.815142
    152          1           0       33.185404   -5.587052    0.795418
    153          1           0       34.536679   -4.781289    0.053505
    154          1           0       33.389327   -5.725779   -0.953565
    155          1           0       28.101825   -3.609594   -0.353986
    156          1           0       27.006629   -5.369059    3.304087
    157          1           0       25.856664   -4.148479    3.408274
    158          1           0       27.541997   -3.797473    3.920589
 ---------------------------------------------------------------------

 SCF Done:  E(RCAM-B3LYP) =  -4069.78315971     A.U. after   17 cycles

 Excitation energies and oscillator strengths:

 Excited State   1:      Singlet-A      1.7067 eV  726.48 nm  f=0.3991  <S**2>=0.000
     309 -> 315       -0.18535
     311 -> 313        0.68240
     309 <- 315       -0.10819
 This state for optimization and/or second-order correction.
 Total Energy, E(TD-HF/TD-DFT) =  -4069.72044144
 Copying the excited state density for this state as the 1-particle RhoCI density.

 Excited State   2:      Singlet-A      1.7292 eV  716.98 nm  f=0.4007  <S**2>=0.000
     310 -> 316        0.18716
     312 -> 314        0.68374
     310 <- 316        0.10975

 Excited State   3:      Singlet-A      2.1433 eV  578.46 nm  f=0.1303  <S**2>=0.000
     309 -> 313        0.65034
     311 -> 315        0.26013

 Excited State   4:      Singlet-A      2.2139 eV  560.03 nm  f=0.1005  <S**2>=0.000
     310 -> 314        0.64252
     312 -> 316       -0.28227

 Excited State   5:      Singlet-A      2.9749 eV  416.77 nm  f=0.0000  <S**2>=0.000
     312 -> 313        0.70711

 The electronic state is 1-A.
 Alpha  occ. eigenvalues --  -46.90324 -46.88797 -19.26264 -19.25403 -19.20934
 Alpha  occ. eigenvalues --  -19.19649 -19.19419 -19.18628 -19.18106 -19.17896
 Alpha  occ. eigenvalues --  -14.43188 -14.42681 -14.41788 -14.41603 -14.39832
 Alpha  occ. eigenvalues --  -14.39320 -14.39217 -14.38744 -10.39710 -10.39158
 Alpha  occ. eigenvalues --  -10.35470 -10.35036 -10.34501 -10.33367 -10.32413
 Alpha  occ. eigenvalues --  -10.32338 -10.32061 -10.31647 -10.31270 -10.31077
 Alpha  occ. eigenvalues --  -10.30998 -10.30952 -10.30795 -10.30726 -10.30645
 Alpha  occ. eigenvalues --  -10.30239 -10.29958 -10.29743 -10.29566 -10.29488
 Alpha  occ. eigenvalues --  -10.29388 -10.29262 -10.29245 -10.29107 -10.28982
 Alpha  occ. eigenvalues --  -10.28380 -10.28335 -10.28315 -10.28286 -10.28221
 Alpha  occ. eigenvalues --  -10.28212 -10.28073 -10.28063 -10.28057 -10.27969
 Alpha  occ. eigenvalues --  -10.27875 -10.27851 -10.27679 -10.27568 -10.27561
 Alpha  occ. eigenvalues --  -10.27462 -10.27422 -10.27349 -10.27152 -10.27128
 Alpha  occ. eigenvalues --  -10.27017 -10.26699 -10.26694 -10.26610 -10.26600
 Alpha  occ. eigenvalues --  -10.26503 -10.26495 -10.26492 -10.26378 -10.26346
 Alpha  occ. eigenvalues --  -10.26310 -10.26094 -10.25952 -10.25910 -10.25854
 Alpha  occ. eigenvalues --  -10.25800 -10.25671 -10.25392 -10.25214 -10.25081
 Alpha  occ. eigenvalues --  -10.24177  -3.18616  -3.17253  -1.93515  -1.93064
 Alpha  occ. eigenvalues --   -1.92914  -1.92162  -1.91744  -1.91514  -1.18341
 Alpha  occ. eigenvalues --   -1.17651  -1.11371  -1.10058  -1.09618  -1.09519
 Alpha  occ. eigenvalues --   -1.08677  -1.07332  -1.05768  -1.05023  -1.04662
 Alpha  occ. eigenvalues --   -1.03934  -1.03782  -1.02607  -1.01928  -1.01868
 Alpha  occ. eigenvalues --   -0.94354  -0.93359  -0.88979  -0.88736  -0.88726
 Alpha  occ. eigenvalues --   -0.88694  -0.88622  -0.88029  -0.87578  -0.87114
 Alpha  occ. eigenvalues --   -0.87103  -0.86242  -0.85924  -0.85540  -0.84449
 Alpha  occ. eigenvalues --   -0.84399  -0.83735  -0.83650  -0.82929  -0.82624
 Alpha  occ. eigenvalues --   -0.81903  -0.81418  -0.80791  -0.80706  -0.80364
 Alpha  occ. eigenvalues --   -0.80030  -0.78086  -0.77915  -0.77403  -0.77347
 Alpha  occ. eigenvalues --   -0.77013  -0.76964  -0.76315  -0.75982  -0.75707
 Alpha  occ. eigenvalues --   -0.75122  -0.73627  -0.72683  -0.72270  -0.71715
 Alpha  occ. eigenvalues --   -0.69534  -0.69503  -0.68900  -0.68493  -0.68449
 Alpha  occ. eigenvalues --   -0.68049  -0.67180  -0.66326  -0.66107  -0.65381
 Alpha  occ. eigenvalues --   -0.65274  -0.64974  -0.64765  -0.64655  -0.64346
 Alpha  occ. eigenvalues --   -0.64236  -0.62828  -0.62815  -0.60541  -0.60169
 Alpha  occ. eigenvalues --   -0.59858  -0.59663  -0.59628  -0.59211  -0.59202
 Alpha  occ. eigenvalues --   -0.59041  -0.58468  -0.58108  -0.58078  -0.57315
 Alpha  occ. eigenvalues --   -0.56872  -0.56520  -0.56011  -0.55799  -0.55326
 Alpha  occ. eigenvalues --   -0.55098  -0.54966  -0.54798  -0.54682  -0.53862
 Alpha  occ. eigenvalues --   -0.53599  -0.53569  -0.53263  -0.53214  -0.52944
 Alpha  occ. eigenvalues --   -0.52810  -0.52621  -0.52527  -0.52293  -0.52031
 Alpha  occ. eigenvalues --   -0.51846  -0.51705  -0.51458  -0.51349  -0.51243
 Alpha  occ. eigenvalues --   -0.51236  -0.51050  -0.50834  -0.50624  -0.50166
 Alpha  occ. eigenvalues --   -0.50137  -0.49846  -0.49761  -0.49687  -0.49409
 Alpha  occ. eigenvalues --   -0.49367  -0.49205  -0.49013  -0.48850  -0.48830
 Alpha  occ. eigenvalues --   -0.48675  -0.48451  -0.48375  -0.48121  -0.47969
 Alpha  occ. eigenvalues --   -0.47956  -0.47361  -0.47308  -0.47242  -0.47021
 Alpha  occ. eigenvalues --   -0.46901  -0.46615  -0.46414  -0.46411  -0.46362
 Alpha  occ. eigenvalues --   -0.46037  -0.46022  -0.45907  -0.45870  -0.45799
 Alpha  occ. eigenvalues --   -0.45661  -0.45596  -0.45360  -0.45299  -0.45093
 Alpha  occ. eigenvalues --   -0.45009  -0.44828  -0.44732  -0.44609  -0.44457
 Alpha  occ. eigenvalues --   -0.43864  -0.43782  -0.43758  -0.43349  -0.43336
 Alpha  occ. eigenvalues --   -0.43269  -0.43261  -0.43068  -0.42956  -0.42950
 Alpha  occ. eigenvalues --   -0.42718  -0.42603  -0.42514  -0.42199  -0.42170
 Alpha  occ. eigenvalues --   -0.41758  -0.41655  -0.41562  -0.41336  -0.41208
 Alpha  occ. eigenvalues --   -0.41203  -0.41029  -0.41006  -0.40728  -0.40519
 Alpha  occ. eigenvalues --   -0.40320  -0.40282  -0.39623  -0.39411  -0.39297
 Alpha  occ. eigenvalues --   -0.38503  -0.38397  -0.37820  -0.37658  -0.37160
 Alpha  occ. eigenvalues --   -0.37149  -0.37110  -0.36968  -0.36722  -0.36595
 Alpha  occ. eigenvalues --   -0.36398  -0.36220  -0.35512  -0.35066  -0.34402
 Alpha  occ. eigenvalues --   -0.34064  -0.33423  -0.33155  -0.31457  -0.31410
 Alpha  occ. eigenvalues --   -0.30782  -0.30458  -0.30383  -0.30043  -0.29936
 Alpha  occ. eigenvalues --   -0.29925  -0.29529  -0.28954  -0.24333  -0.23793
 Alpha  occ. eigenvalues --   -0.22047  -0.21074
 Alpha virt. eigenvalues --   -0.09602  -0.08487  -0.02491  -0.01520  -0.00089
 Alpha virt. eigenvalues --    0.00193   0.01413   0.02588   0.02818   0.02875
 Alpha virt. eigenvalues --    0.04289   0.05065   0.05143   0.05496   0.05604

 Mulliken charges:
               1
     1  Mg  11.999983
     2  C    5.999935
     3  C    6.000099
     4  C    6.000057
     5  C    5.999879
     6  N    7.000014
     7  C    6.000121
     8  C    5.999976
     9  C    6.000052
    10  C    5.999809
    11  C    6.000009
    12  C    5.999985
    13  C    5.999989
    14  H    1.000033
    15  N    7.000025
    16  C    5.999713
    17  C    5.999908
    18  C    5.999883
    19  C    5.999801
    20  C    6.000056
    21  C    5.999893
    22  O    7.999842
    23  C    6.000056
    24  N    6.999953
    25  C    5.999856
    26  C    6.000043
    27  C    5.999953
    28  C    6.000189
    29  C    6.000045
    30  C    5.999995
    31  C    5.999944
    32  N    7.000007
    33  C    6.000266
    34  C    6.000169
    35  C    6.000018
    36  C    6.000230
    37  C    5.999942
    38  C    6.000145
    39  O    8.000183
    40  C    5.999975
    41  C    6.000034
    42  O    8.000036
    43  O    8.000005
    44  C    5.999966
    45  H    0.999935
    46  H    0.999951
    47  H    1.000040
    48  H    1.000017
    49  H    0.999987
    50  H    0.999919
    51  H    1.000019
    52  H    0.999981
    53  H    1.000085
    54  H    0.999958
    55  H    1.000030
    56  H    0.999983
    57  H    0.999876
    58  H    0.999879
    59  H    0.999880
    60  H    0.999959
    61  H    0.999937
    62  H    0.999892
    63  H    0.999990
    64  H    1.000008
    65  H    0.999921
    66  H    0.999965
    67  H    1.000016
    68  H    1.000061
    69  H    1.000006
    70  H    1.000065
    71  H    1.000035
    72  H    0.999964
    73  H    1.000126
    74  H    1.000124
    75  H    1.000135
    76  H    1.000076
    77  H    1.000022
    78  H    1.000045
    79  H    1.000041
    80  Mg  12.000011
    81  C    6.001224
    82  C    5.967098
    83  C    5.986930
    84  C    6.036058
    85  N    6.987983
    86  C    5.967285
    87  C    6.011850
    88  C    5.987561
    89  C    6.040695
    90  C    5.996446
    91  C    6.001935
    92  C    6.002133
    93  H    0.987866
    94  N    6.989739
    95  C    6.050742
    96  C    6.016701
    97  C    6.014705
    98  C    6.041713
    99  C    5.998383
   100  C    6.009717
   101  O    8.025411
   102  C    5.998871
   103  N    7.015285
   104  C    6.029634
   105  C    5.988356
   106  C    6.007813
   107  C    5.956700
   108  C    6.002951
   109  C    6.001656
   110  C    5.999617
   111  N    7.001882
   112  C    5.955615
   113  C    5.978743
   114  C    5.990475
   115  C    5.977735
   116  C    6.003918
   117  C    5.982690
   118  O    7.964396
   119  C    6.005827
   120  C    5.994986
   121  O    7.996435
   122  O    7.996825
   123  C    6.004121
   124  H    1.003568
   125  H    1.011154
   126  H    0.996340
   127  H    0.998351
   128  H    1.001856
   129  H    1.004098
   130  H    1.012502
   131  H    0.992370
   132  H    0.987099
   133  H    1.006365
   134  H    1.001894
   135  H    0.998391
   136  H    1.015098
   137  H    1.017490
   138  H    1.020711
   139  H    1.009962
   140  H    1.008220
   141  H    1.014352
   142  H    1.001931
   143  H    1.000093
   144  H    1.014265
   145  H    1.001098
   146  H    0.997453
   147  H    1.007589
   148  H    0.989300
   149  H    0.995630
   150  H    0.995626
   151  H    1.002551
   152  H    0.984466
   153  H    0.979209
   154  H    0.981326
   155  H    0.988128
   156  H    0.997006
   157  H    0.992571
   158  H    0.995217
 Sum of Mulliken charges = 624.00000

 Dipole moment (field-independent basis, Debye):
    X=              1.5761    Y=             10.9310    Z=             -1.1713  Tot=             11.1059
 Quadrupole moment (field-independent basis, Debye-Ang):
   XX=             91.9412   YY=             10.9096   ZZ=             -0.3743
   XY=            350.1774   XZ=            -37.2559   YZ=             -4.7588

 Normal termination of Gaussian 16 at Thu Sep 23 14:10:45 2021.
