 Gaussian 16, Revision A.03,
 Gaussian 16:  ES64L-G16RevA.03 25-Dec-2016

 -----------------------------------
 #p cam-b3lyp/Def2SVP td=(nstates=5)
 -----------------------------------

 --------------------------------
 TDDFT excited states in gaussian
 --------------------------------
 Symbolic Z-matrix:
 Charge =  0 Multiplicity = 1

                         Standard orientation:
 ---------------------------------------------------------------------
 Center     Atomic      Atomic             Coordinates (Angstroms)
 Number     Number       Type             X           Y           Z
 ---------------------------------------------------------------------
      1         12           0      -23.812396   -0.839395   -0.021504
      2          6           0      -23.422013    2.432708   -1.193631
      3          6           0      -24.571865    0.564789    3.058994
      4          6           0      -23.758600   -3.858000    1.185311
      5          6           0      -22.783388   -2.000426   -3.205342
      6          7           0      -23.586265    1.297763    0.954343
      7          6           0      -23.580737    2.423351    0.232926
      8          6           0      -23.779830    3.565852    1.171917
      9          6           0      -23.703337    2.942210    2.587116
     10          6           0      -24.000546    1.503150    2.214854
     11          6           0      -22.431526    3.100830    3.422160
     12          6           0      -25.141944    4.290138    0.929189
     13          6           0      -25.159611    5.847484    0.799026
     14          1           0      -24.087318    6.686935    1.561200
     15          7           0      -24.277114   -1.574155    1.872678
     16          6           0      -24.744947   -0.808168    2.932187
     17          6           0      -25.074442   -1.720990    3.978021
     18          6           0      -24.722296   -3.049931    3.509563
     19          6           0      -24.239148   -2.900378    2.144979
     20          6           0      -25.574033   -1.306888    5.379458
     21          6           0      -24.750609   -4.411482    4.261828
     22          8           0      -24.419191   -5.451089    3.786651
     23          6           0      -25.304610   -4.378737    5.672642
     24          7           0      -23.347230   -2.636466   -0.917538
     25          6           0      -23.337878   -3.762406   -0.169505
     26          6           0      -22.951809   -5.042146   -0.961205
     27          6           0      -22.907868   -4.447600   -2.434129
     28          6           0      -23.043449   -2.945163   -2.217009
     29          6           0      -21.549876   -5.668846   -0.396879
     30          6           0      -23.924713   -5.115726   -3.412106
     31          6           0      -25.242340   -4.403987   -3.661575
     32          7           0      -23.241903   -0.017334   -1.899318
     33          6           0      -22.945436   -0.606838   -3.098546
     34          6           0      -22.705948    0.482734   -4.108893
     35          6           0      -22.889741    1.681326   -3.383078
     36          6           0      -23.177813    1.351323   -2.017382
     37          6           0      -22.192454    0.338519   -5.515777
     38          6           0      -22.874269    3.139378   -3.471990
     39          8           0      -22.626716    3.837230   -4.459560
     40          6           0      -23.371475    3.639513   -2.118954
     41          6           0      -22.374271    4.671354   -1.675604
     42          8           0      -21.281343    4.430361   -1.196602
     43          8           0      -22.850632    5.833849   -2.089990
     44          6           0      -21.935203    6.960745   -2.177318
     45          1           0      -24.669609    0.992707    4.058419
     46          1           0      -23.909800   -4.886556    1.518540
     47          1           0      -22.480794   -2.360361   -4.191223
     48          1           0      -22.984668    4.292411    1.007829
     49          1           0      -24.474728    3.439698    3.175105
     50          1           0      -21.634798    3.700920    2.982235
     51          1           0      -22.014111    2.122592    3.662366
     52          1           0      -22.741692    3.574618    4.353252
     53          1           0      -25.923391    3.992848    1.628206
     54          1           0      -25.405853    3.839469   -0.027450
     55          1           0      -26.144649    6.119969    1.180006
     56          1           0      -25.094984    6.107534   -0.257216
     57          1           0      -24.983611   -1.733062    6.190614
     58          1           0      -26.565763   -1.702685    5.598905
     59          1           0      -25.638868   -0.229310    5.535894
     60          1           0      -26.274643   -3.885072    5.734775
     61          1           0      -24.555257   -3.917993    6.316412
     62          1           0      -25.340804   -5.385608    6.088534
     63          1           0      -23.706370   -5.824827   -0.884730
     64          1           0      -21.961955   -4.635299   -2.941985
     65          1           0      -20.824364   -5.452567   -1.181186
     66          1           0      -21.548625   -6.758059   -0.349902
     67          1           0      -21.170098   -5.175267    0.498401
     68          1           0      -24.219089   -6.028536   -2.894016
     69          1           0      -23.469592   -5.393694   -4.362517
     70          1           0      -25.555654   -4.077020   -2.669348
     71          1           0      -25.844998   -5.214538   -4.070678
     72          1           0      -25.280308   -3.488508   -4.251404
     73          1           0      -21.884201   -0.648123   -5.861771
     74          1           0      -21.318625    0.977422   -5.644340
     75          1           0      -22.967779    0.775281   -6.144440
     76          1           0      -24.291829    4.222585   -2.157203
     77          1           0      -20.870262    6.814842   -1.999300
     78          1           0      -22.268393    7.598500   -1.357989
     79          1           0      -22.292917    7.627370   -2.962114
     80         12           0       24.055431   -0.626283    0.013815
     81          6           0       22.007893    2.064299    1.127560
     82          6           0       26.513724    1.662004   -0.723156
     83          6           0       25.785496   -3.239234   -1.034156
     84          6           0       21.237008   -2.830824    0.354135
     85          7           0       24.233555    1.691452    0.119778
     86          6           0       23.278738    2.496842    0.713059
     87          6           0       23.878839    3.944520    0.726318
     88          6           0       25.357910    3.827992    0.073816
     89          6           0       25.362044    2.321364   -0.204296
     90          6           0       25.645378    4.752377   -1.127582
     91          6           0       23.808201    4.741683    2.093918
     92          6           0       23.070589    6.048228    2.047892
     93          1           0       22.952959    6.897708    0.810011
     94          7           0       26.029358   -0.788657   -0.685994
     95          6           0       26.850608    0.268767   -0.920936
     96          6           0       28.137172   -0.295250   -1.239043
     97          6           0       27.932874   -1.678248   -1.434492
     98          6           0       26.514796   -2.007470   -1.076711
     99          6           0       29.345635    0.627244   -1.471603
    100          6           0       28.896763   -2.659606   -2.029497
    101          8           0       28.564127   -3.845297   -2.265591
    102          6           0       30.259440   -2.206178   -2.402265
    103          7           0       23.493383   -2.746628   -0.341707
    104          6           0       24.403712   -3.588262   -0.688964
    105          6           0       23.973812   -5.149597   -0.756690
    106          6           0       22.507488   -4.989772   -0.327152
    107          6           0       22.382464   -3.504447   -0.091439
    108          6           0       24.193162   -5.693739   -2.215777
    109          6           0       22.039700   -5.819619    0.919767
    110          6           0       22.558855   -5.348422    2.298962
    111          7           0       22.075226   -0.413429    0.476934
    112          6           0       21.070984   -1.407923    0.540937
    113          6           0       19.849362   -0.779248    1.061640
    114          6           0       20.175946    0.575228    1.311838
    115          6           0       21.562564    0.743045    0.978906
    116          6           0       18.495880   -1.507690    1.316715
    117          6           0       19.637889    1.736579    1.789638
    118          8           0       18.516544    2.029112    2.151850
    119          6           0       20.785465    2.784609    1.770113
    120          6           0       20.332844    3.944675    1.037647
    121          8           0       20.434254    4.090743   -0.185690
    122          8           0       19.560050    4.758644    1.874362
    123          6           0       18.884678    5.882396    1.179279
    124          1           0       27.257149    2.285743   -1.224641
    125          1           0       26.314011   -4.054047   -1.533527
    126          1           0       20.351266   -3.457006    0.479496
    127          1           0       23.120238    4.427841    0.112025
    128          1           0       26.092124    4.147271    0.812135
    129          1           0       26.529092    5.363750   -0.940466
    130          1           0       24.834790    5.405864   -1.449630
    131          1           0       25.841305    4.059837   -1.946183
    132          1           0       24.814163    4.916996    2.475744
    133          1           0       23.244091    4.099098    2.769955
    134          1           0       23.680312    6.762347    2.602542
    135          1           0       22.080959    5.886193    2.473601
    136          1           0       29.181406    1.628037   -1.071516
    137          1           0       29.555642    0.694417   -2.538298
    138          1           0       30.163880    0.138174   -0.944008
    139          1           0       30.717613   -1.807307   -1.497214
    140          1           0       30.223597   -1.391613   -3.126677
    141          1           0       30.818230   -3.014426   -2.872339
    142          1           0       24.528494   -5.745890   -0.031796
    143          1           0       21.858228   -5.130894   -1.191542
    144          1           0       24.065604   -4.858027   -2.903773
    145          1           0       23.404880   -6.416483   -2.429317
    146          1           0       25.146407   -6.169874   -2.446830
    147          1           0       22.187161   -6.882638    0.731755
    148          1           0       20.951066   -5.782079    0.944012
    149          1           0       23.548936   -4.894348    2.322111
    150          1           0       22.467872   -6.181753    2.996575
    151          1           0       21.822574   -4.620957    2.640350
    152          1           0       18.084781   -1.313859    2.307489
    153          1           0       18.546942   -2.583095    1.150200
    154          1           0       17.710781   -0.999761    0.756035
    155          1           0       20.890856    3.009894    2.830849
    156          1           0       18.095545    5.510247    0.526421
    157          1           0       19.534584    6.466867    0.529047
    158          1           0       18.617295    6.602994    1.952352
 ---------------------------------------------------------------------

 SCF Done:  E(RCAM-B3LYP) =  -4069.80702131     A.U. after   19 cycles

 Excitation energies and oscillator strengths:

 Excited State   1:      Singlet-A      1.7293 eV  716.97 nm  f=0.3979  <S**2>=0.000
     310 -> 316       -0.18718
     312 -> 314        0.68375
     310 <- 316       -0.10975
 This state for optimization and/or second-order correction.
 Total Energy, E(TD-HF/TD-DFT) =  -4069.74347176
 Copying the excited state density for this state as the 1-particle RhoCI density.

 Excited State   2:      Singlet-A      1.7536 eV  707.04 nm  f=0.3737  <S**2>=0.000
     309 -> 315        0.18838
     311 -> 313        0.68194
     309 <- 315        0.10758

 Excited State   3:      Singlet-A      2.2093 eV  561.19 nm  f=0.1054  <S**2>=0.000
     309 -> 313        0.64200
     311 -> 315       -0.28086

 Excited State   4:      Singlet-A      2.2139 eV  560.03 nm  f=0.1035  <S**2>=0.000
     310 -> 314        0.64242
     312 -> 316        0.28228

 Excited State   5:      Singlet-A      3.2158 eV  385.54 nm  f=0.0000  <S**2>=0.000
     312 -> 313        0.70710

 The electronic state is 1-A.
 Alpha  occ. eigenvalues --  -46.89799 -46.88774 -19.26240 -19.24250 -19.19625
 Alpha  occ. eigenvalues --  -19.19396 -19.19275 -19.18755 -19.18607 -19.17507
 Alpha  occ. eigenvalues --  -14.42657 -14.41865 -14.41765 -14.41580 -14.39747
 Alpha  occ. eigenvalues --  -14.39659 -14.39297 -14.38721 -10.39134 -10.38593
 Alpha  occ. eigenvalues --  -10.35447 -10.35050 -10.34479 -10.33282 -10.32036
 Alpha  occ. eigenvalues --  -10.31885 -10.31700 -10.31399 -10.31247 -10.31083
 Alpha  occ. eigenvalues --  -10.31054 -10.30880 -10.30772 -10.30770 -10.30623
 Alpha  occ. eigenvalues --  -10.30183 -10.29836 -10.29720 -10.29543 -10.29466
 Alpha  occ. eigenvalues --  -10.29365 -10.29342 -10.29240 -10.28959 -10.28807
 Alpha  occ. eigenvalues --  -10.28758 -10.28360 -10.28358 -10.28263 -10.28189
 Alpha  occ. eigenvalues --  -10.28086 -10.28040 -10.28034 -10.27970 -10.27964
 Alpha  occ. eigenvalues --  -10.27963 -10.27933 -10.27672 -10.27545 -10.27388
 Alpha  occ. eigenvalues --  -10.27318 -10.27209 -10.27130 -10.27117 -10.27104
 Alpha  occ. eigenvalues --  -10.27008 -10.26994 -10.26677 -10.26671 -10.26587
 Alpha  occ. eigenvalues --  -10.26582 -10.26471 -10.26339 -10.26325 -10.26311
 Alpha  occ. eigenvalues --  -10.26288 -10.25986 -10.25954 -10.25928 -10.25887
 Alpha  occ. eigenvalues --  -10.25853 -10.25777 -10.25367 -10.25193 -10.25060
 Alpha  occ. eigenvalues --  -10.23879  -3.18135  -3.17231  -1.93050  -1.92626
 Alpha  occ. eigenvalues --   -1.92392  -1.92139  -1.91721  -1.91491  -1.18316
 Alpha  occ. eigenvalues --   -1.14336  -1.11349  -1.09594  -1.09229  -1.08652
 Alpha  occ. eigenvalues --   -1.08447  -1.06293  -1.06092  -1.05000  -1.03759
 Alpha  occ. eigenvalues --   -1.03681  -1.03014  -1.02584  -1.01845  -1.01684
 Alpha  occ. eigenvalues --   -0.93336  -0.92263  -0.89730  -0.88703  -0.88599
 Alpha  occ. eigenvalues --   -0.88266  -0.88006  -0.87809  -0.87235  -0.87081
 Alpha  occ. eigenvalues --   -0.86773  -0.86219  -0.85517  -0.85459  -0.84425
 Alpha  occ. eigenvalues --   -0.84304  -0.83711  -0.83354  -0.82602  -0.82520
 Alpha  occ. eigenvalues --   -0.82206  -0.81395  -0.80769  -0.80656  -0.80029
 Alpha  occ. eigenvalues --   -0.80008  -0.78304  -0.77892  -0.77560  -0.77324
 Alpha  occ. eigenvalues --   -0.76990  -0.76425  -0.76292  -0.75711  -0.75099
 Alpha  occ. eigenvalues --   -0.74960  -0.72660  -0.72505  -0.71692  -0.71540
 Alpha  occ. eigenvalues --   -0.70447  -0.69512  -0.69019  -0.68877  -0.68026
 Alpha  occ. eigenvalues --   -0.67821  -0.66896  -0.66084  -0.65297  -0.65250
 Alpha  occ. eigenvalues --   -0.64951  -0.64887  -0.64632  -0.64625  -0.64322
 Alpha  occ. eigenvalues --   -0.64217  -0.62791  -0.61398  -0.60209  -0.59835
 Alpha  occ. eigenvalues --   -0.59640  -0.59484  -0.59189  -0.58587  -0.58445
 Alpha  occ. eigenvalues --   -0.58112  -0.58084  -0.57921  -0.57506  -0.57292
 Alpha  occ. eigenvalues --   -0.56849  -0.56262  -0.56003  -0.55988  -0.55251
 Alpha  occ. eigenvalues --   -0.54943  -0.54931  -0.54776  -0.54659  -0.53576
 Alpha  occ. eigenvalues --   -0.53576  -0.53240  -0.53222  -0.52997  -0.52921
 Alpha  occ. eigenvalues --   -0.52820  -0.52607  -0.52504  -0.52009  -0.52004
 Alpha  occ. eigenvalues --   -0.51683  -0.51533  -0.51325  -0.51270  -0.51220
 Alpha  occ. eigenvalues --   -0.51026  -0.50788  -0.50436  -0.50114  -0.49831
 Alpha  occ. eigenvalues --   -0.49664  -0.49491  -0.49386  -0.49229  -0.49195
 Alpha  occ. eigenvalues --   -0.49182  -0.48936  -0.48843  -0.48828  -0.48652
 Alpha  occ. eigenvalues --   -0.48553  -0.48352  -0.48098  -0.47961  -0.47947
 Alpha  occ. eigenvalues --   -0.47909  -0.47488  -0.47295  -0.47285  -0.46878
 Alpha  occ. eigenvalues --   -0.46717  -0.46592  -0.46495  -0.46389  -0.46143
 Alpha  occ. eigenvalues --   -0.45999  -0.45884  -0.45848  -0.45801  -0.45638
 Alpha  occ. eigenvalues --   -0.45573  -0.45467  -0.45337  -0.44986  -0.44910
 Alpha  occ. eigenvalues --   -0.44806  -0.44577  -0.44434  -0.44203  -0.43761
 Alpha  occ. eigenvalues --   -0.43735  -0.43727  -0.43425  -0.43313  -0.43239
 Alpha  occ. eigenvalues --   -0.43183  -0.43045  -0.42927  -0.42704  -0.42695
 Alpha  occ. eigenvalues --   -0.42457  -0.42345  -0.42147  -0.41845  -0.41804
 Alpha  occ. eigenvalues --   -0.41736  -0.41632  -0.41561  -0.41355  -0.41237
 Alpha  occ. eigenvalues --   -0.41185  -0.41123  -0.40984  -0.40706  -0.40570
 Alpha  occ. eigenvalues --   -0.40259  -0.40099  -0.39758  -0.39600  -0.39274
 Alpha  occ. eigenvalues --   -0.39098  -0.38375  -0.37137  -0.37087  -0.36922
 Alpha  occ. eigenvalues --   -0.36698  -0.36610  -0.36374  -0.36345  -0.36197
 Alpha  occ. eigenvalues --   -0.36078  -0.35475  -0.34378  -0.34041  -0.33916
 Alpha  occ. eigenvalues --   -0.33652  -0.33132  -0.33027  -0.31387  -0.31296
 Alpha  occ. eigenvalues --   -0.31188  -0.30759  -0.30361  -0.30309  -0.29943
 Alpha  occ. eigenvalues --   -0.29902  -0.29538  -0.28931  -0.23771  -0.23770
 Alpha  occ. eigenvalues --   -0.21225  -0.21051
 Alpha virt. eigenvalues --   -0.08522  -0.08464  -0.01765  -0.01497   0.00161
 Alpha virt. eigenvalues --    0.00216   0.02343   0.02603   0.02841   0.02897
 Alpha virt. eigenvalues --    0.05029   0.05088   0.05558   0.05627   0.05919

 Mulliken charges:
               1
     1  Mg   0.807212
     2  C    0.010134
     3  C   -0.042618
     4  C   -0.040215
     5  C   -0.078397
     6  N   -0.217003
     7  C   -0.014049
     8  C   -0.051649
     9  C   -0.035707
    10  C   -0.041059
    11  C    0.091908
    12  C    0.029478
    13  C   -0.055147
    14  H    0.020750
    15  N   -0.403179
    16  C    0.176102
    17  C   -0.142584
    18  C   -0.065082
    19  C    0.100913
    20  C    0.112271
    21  C    0.006135
    22  O   -0.163606
    23  C    0.038895
    24  N   -0.314210
    25  C    0.051142
    26  C   -0.056839
    27  C   -0.004293
    28  C    0.059377
    29  C    0.060120
    30  C    0.013069
    31  C    0.020703
    32  N   -0.344776
    33  C    0.108657
    34  C   -0.166508
    35  C    0.012395
    36  C    0.108736
    37  C    0.113980
    38  C    0.067814
    39  O   -0.178332
    40  C   -0.028060
    41  C    0.157589
    42  O   -0.218685
    43  O   -0.295421
    44  C    0.187431
    45  H   -0.031087
    46  H   -0.001841
    47  H   -0.034051
    48  H    0.016176
    49  H   -0.005351
    50  H    0.024680
    51  H    0.019643
    52  H    0.007998
    53  H    0.014557
    54  H    0.002799
    55  H    0.029664
    56  H    0.038920
    57  H    0.016326
    58  H    0.018547
    59  H    0.011108
    60  H    0.037270
    61  H    0.030759
    62  H    0.013017
    63  H    0.024794
    64  H    0.004433
    65  H   -0.001459
    66  H    0.023647
    67  H    0.037614
    68  H   -0.001801
    69  H    0.004085
    70  H    0.009617
    71  H    0.020941
    72  H    0.019955
    73  H    0.016248
    74  H    0.039052
    75  H    0.036311
    76  H    0.044852
    77  H    0.067447
    78  H    0.009508
    79  H    0.038224
    80  Mg   0.811778
    81  C    0.029170
    82  C   -0.077368
    83  C   -0.042137
    84  C   -0.081027
    85  N   -0.244476
    86  C   -0.056741
    87  C   -0.021346
    88  C   -0.055006
    89  C    0.051342
    90  C    0.065154
    91  C    0.043255
    92  C   -0.087151
    93  H    0.017165
    94  N   -0.401996
    95  C    0.117233
    96  C   -0.164258
    97  C   -0.023754
    98  C    0.133583
    99  C    0.120919
   100  C   -0.011730
   101  O   -0.231002
   102  C    0.068122
   103  N   -0.203161
   104  C   -0.004721
   105  C   -0.058824
   106  C    0.082971
   107  C   -0.064797
   108  C    0.045402
   109  C    0.013621
   110  C    0.021063
   111  N   -0.385617
   112  C    0.134165
   113  C   -0.166518
   114  C    0.054417
   115  C    0.106901
   116  C    0.127407
   117  C   -0.040179
   118  O   -0.163467
   119  C    0.002742
   120  C    0.206307
   121  O   -0.235942
   122  O   -0.349702
   123  C    0.191041
   124  H   -0.014109
   125  H    0.003602
   126  H   -0.032089
   127  H    0.035340
   128  H    0.018421
   129  H    0.012694
   130  H    0.029373
   131  H    0.013546
   132  H    0.007430
   133  H    0.012004
   134  H    0.024941
   135  H    0.041458
   136  H    0.024798
   137  H    0.041274
   138  H    0.023648
   139  H    0.030371
   140  H    0.029321
   141  H    0.031561
   142  H    0.025040
   143  H    0.007631
   144  H    0.023944
   145  H    0.014069
   146  H    0.042013
   147  H    0.005568
   148  H    0.000364
   149  H    0.029202
   150  H    0.017369
   151  H    0.017713
   152  H    0.021156
   153  H    0.010619
   154  H    0.028644
   155  H    0.044043
   156  H    0.045814
   157  H    0.025255
   158  H    0.035132
 Sum of Mulliken charges =  -0.00000

 Dipole moment (field-independent basis, Debye):
    X=              2.3194    Y=              0.9873    Z=              1.4823  Tot=              2.9243
 Quadrupole moment (field-independent basis, Debye-Ang):
   XX=           -208.0088   YY=           -479.9770   ZZ=           -506.7837
   XY=            -16.6313   XZ=             -7.1329   YZ=             23.2835

 Normal termination of Gaussian 16 at Thu Sep 16 14:05:39 2021.
