 Gaussian 16, Revision A.03,
 Gaussian 16:  ES64L-G16RevA.03 25-Dec-2016

 ----------------------------------------------------------
 #p cam-b3lyp/Def2SVP td=(nstates=5) density=(transition=1)
 ----------------------------------------------------------

 --------------------------------
 TDDFT excited states in gaussian
 --------------------------------
 Symbolic Z-matrix:
 Charge =  0 Multiplicity = 1

                         Standard orientation:
 ---------------------------------------------------------------------
 Center     Atomic      Atomic             Coordinates (Angstroms)
 Number     Number       Type             X           Y           Z
 ---------------------------------------------------------------------
      1         12           0       24.660622   -0.804145    0.233761
      2          6           0       24.638034    2.420079   -1.059977
      3          6           0       24.469680    0.670377    3.367289
      4          6           0       25.194160   -3.897054    1.543529
      5          6           0       25.022260   -2.054446   -2.969653
      6          7           0       24.620667    1.311579    1.053108
      7          6           0       24.581312    2.497347    0.335459
      8          6           0       24.600346    3.791343    1.240491
      9          6           0       24.874098    3.130718    2.647016
     10          6           0       24.684851    1.596072    2.357371
     11          6           0       26.206038    3.340889    3.373150
     12          6           0       23.285131    4.579422    1.099880
     13          6           0       23.339969    5.875062    0.334069
     14          1           0       22.458125    7.024943    0.852422
     15          7           0       24.624487   -1.584201    2.154395
     16          6           0       24.454961   -0.800808    3.253137
     17          6           0       24.516651   -1.721518    4.405040
     18          6           0       24.820616   -3.009757    3.937884
     19          6           0       24.883304   -2.910453    2.531453
     20          6           0       24.164911   -1.263158    5.762085
     21          6           0       25.078291   -4.278359    4.696958
     22          8           0       25.233922   -5.401649    4.142333
     23          6           0       25.207664   -4.344734    6.118690
     24          7           0       24.962971   -2.668732   -0.570450
     25          6           0       25.129561   -3.805073    0.159976
     26          6           0       25.352587   -5.011550   -0.664236
     27          6           0       25.240587   -4.453403   -2.128392
     28          6           0       25.132046   -2.997280   -1.871993
     29          6           0       26.599097   -5.931963   -0.510660
     30          6           0       24.089028   -5.116831   -3.034047
     31          6           0       22.606563   -4.639550   -3.008758
     32          7           0       24.846118   -0.051634   -1.647623
     33          6           0       24.947751   -0.672804   -2.859050
     34          6           0       24.805873    0.258544   -3.891364
     35          6           0       24.770421    1.522082   -3.184970
     36          6           0       24.769632    1.261984   -1.829043
     37          6           0       24.705058   -0.008510   -5.392014
     38          6           0       24.580072    2.925423   -3.414955
     39          8           0       24.354853    3.606232   -4.394812
     40          6           0       24.723690    3.592813   -2.002302
     41          6           0       26.014042    4.304540   -1.912315
     42          8           0       26.982260    3.998812   -1.182015
     43          8           0       26.124564    5.369957   -2.735561
     44          6           0       27.280369    6.316896   -2.575185
     45          1           0       24.474216    1.142248    4.351412
     46          1           0       25.406831   -4.906769    1.901407
     47          1           0       24.959366   -2.380599   -4.010385
     48          1           0       25.528195    4.354099    1.132789
     49          1           0       24.057781    3.464833    3.287327
     50          1           0       26.778281    2.412954    3.384914
     51          1           0       25.957125    3.475212    4.424782
     52          1           0       26.827423    4.151703    2.991371
     53          1           0       23.008316    4.848923    2.119790
     54          1           0       22.520240    3.898184    0.727112
     55          1           0       23.030490    5.661378   -0.689335
     56          1           0       24.333011    6.307527    0.211028
     57          1           0       23.291124   -1.853003    6.035975
     58          1           0       23.944662   -0.209124    5.936076
     59          1           0       24.973275   -1.509515    6.450482
     60          1           0       25.845364   -3.502658    6.386379
     61          1           0       25.473515   -5.351931    6.436987
     62          1           0       24.269814   -4.087190    6.610903
     63          1           0       24.462685   -5.575287   -0.385805
     64          1           0       26.192529   -4.592214   -2.639521
     65          1           0       26.332666   -6.925009   -0.148649
     66          1           0       27.297493   -5.530031    0.224148
     67          1           0       27.188000   -6.019769   -1.423596
     68          1           0       24.072798   -6.141042   -2.660842
     69          1           0       24.560243   -5.070335   -4.015944
     70          1           0       22.420889   -3.719991   -2.454349
     71          1           0       21.861844   -5.401365   -2.776509
     72          1           0       22.384347   -4.454978   -4.058964
     73          1           0       25.473123    0.524746   -5.953185
     74          1           0       23.752585    0.397173   -5.732679
     75          1           0       24.685767   -1.064022   -5.664623
     76          1           0       23.996987    4.403900   -1.952930
     77          1           0       26.865953    7.128387   -3.173549
     78          1           0       28.234824    5.949137   -2.950407
     79          1           0       27.402658    6.572161   -1.522120
     80         12           0      -25.443660   -0.386556   -0.447619
     81          6           0      -23.274331    2.342719   -0.188373
     82          6           0      -27.475179    1.148199    1.881371
     83          6           0      -27.210597   -3.289475   -0.128147
     84          6           0      -23.002302   -2.060481   -2.245041
     85          7           0      -25.378231    1.536150    0.594374
     86          6           0      -24.528959    2.548578    0.377484
     87          6           0      -24.965088    3.892147    0.979980
     88          6           0      -26.233581    3.461977    1.812017
     89          6           0      -26.477676    1.920500    1.343624
     90          6           0      -26.149685    3.594485    3.347952
     91          6           0      -25.231360    4.994395   -0.045435
     92          6           0      -25.032807    6.412357    0.520283
     93          1           0      -24.632288    6.584459    1.992310
     94          7           0      -27.166144   -0.974503    0.613266
     95          6           0      -27.917574   -0.161776    1.493151
     96          6           0      -29.058836   -0.925973    1.955264
     97          6           0      -28.965265   -2.266524    1.424712
     98          6           0      -27.778058   -2.222979    0.572487
     99          6           0      -30.144314   -0.280352    2.771832
    100          6           0      -29.973584   -3.496661    1.536094
    101          8           0      -29.844372   -4.528481    0.923114
    102          6           0      -31.136908   -3.325481    2.488685
    103          7           0      -25.105863   -2.389510   -1.006485
    104          6           0      -25.985610   -3.413063   -0.807802
    105          6           0      -25.497479   -4.755558   -1.466687
    106          6           0      -24.220133   -4.295267   -2.167179
    107          6           0      -24.106819   -2.834164   -1.774813
    108          6           0      -25.359224   -6.087514   -0.624672
    109          6           0      -24.321169   -4.485915   -3.698765
    110          6           0      -25.049851   -3.413113   -4.538124
    111          7           0      -23.558412    0.033415   -1.258357
    112          6           0      -22.675897   -0.738836   -1.968262
    113          6           0      -21.500421   -0.006316   -2.301429
    114          6           0      -21.676580    1.268363   -1.596897
    115          6           0      -22.875580    1.204868   -1.000869
    116          6           0      -20.326109   -0.360731   -3.101570
    117          6           0      -21.035729    2.516212   -1.205535
    118          8           0      -19.965173    3.009544   -1.576137
    119          6           0      -22.023893    3.288611   -0.282747
    120          6           0      -21.425323    3.583769    1.015028
    121          8           0      -21.289182    2.794425    1.943814
    122          8           0      -20.828456    4.818476    0.964401
    123          6           0      -19.813558    5.182263    1.972230
    124          1           0      -28.041511    1.697043    2.636955
    125          1           0      -27.860543   -4.165252   -0.182728
    126          1           0      -22.272809   -2.550949   -2.892852
    127          1           0      -24.263381    4.238174    1.738571
    128          1           0      -27.157292    3.920368    1.460646
    129          1           0      -27.047418    4.181710    3.540379
    130          1           0      -25.254177    4.142947    3.639136
    131          1           0      -26.143492    2.610390    3.816745
    132          1           0      -26.227722    4.918255   -0.479148
    133          1           0      -24.554282    4.889463   -0.893594
    134          1           0      -26.016131    6.841724    0.327291
    135          1           0      -24.369149    7.010889   -0.105388
    136          1           0      -29.755300    0.699830    3.047776
    137          1           0      -30.346772   -0.899279    3.646186
    138          1           0      -31.085209   -0.180381    2.228622
    139          1           0      -30.921022   -3.398427    3.555095
    140          1           0      -31.910237   -4.035903    2.196533
    141          1           0      -31.478957   -2.320499    2.241719
    142          1           0      -26.311510   -4.943093   -2.166520
    143          1           0      -23.411272   -4.896866   -1.754115
    144          1           0      -24.415396   -6.614780   -0.758429
    145          1           0      -26.125546   -6.782537   -0.966410
    146          1           0      -25.568885   -5.842143    0.416876
    147          1           0      -24.794303   -5.457605   -3.835146
    148          1           0      -23.287476   -4.584607   -4.031487
    149          1           0      -25.630836   -3.984144   -5.261886
    150          1           0      -24.372865   -2.777137   -5.108034
    151          1           0      -25.644339   -2.711928   -3.953503
    152          1           0      -20.069227    0.505383   -3.710454
    153          1           0      -20.440373   -1.232211   -3.746289
    154          1           0      -19.450418   -0.444944   -2.457752
    155          1           0      -22.262906    4.188236   -0.849691
    156          1           0      -19.683278    4.404144    2.725137
    157          1           0      -20.164112    6.078082    2.485384
    158          1           0      -18.937161    5.317209    1.339318
 ---------------------------------------------------------------------

 SCF Done:  E(RCAM-B3LYP) =  -4069.82933771     A.U. after   17 cycles

 Excitation energies and oscillator strengths:

 Excited State   1:      Singlet-A      1.7035 eV  727.83 nm  f=0.3819  <S**2>=0.000
     309 -> 316       -0.17723
     312 -> 314        0.68472
     309 <- 316       -0.10753
 This state for optimization and/or second-order correction.
 Total Energy, E(TD-HF/TD-DFT) =  -4069.76673627
 Copying the excited state density for this state as the 1-particle RhoCI density.

 Excited State   2:      Singlet-A      1.7177 eV  721.80 nm  f=0.4160  <S**2>=0.000
     310 -> 315       -0.18151
     311 -> 313        0.68394
     310 <- 315       -0.10676

 Excited State   3:      Singlet-A      2.1355 eV  580.60 nm  f=0.1570  <S**2>=0.000
     310 -> 313        0.65932
     311 -> 315        0.23565

 Excited State   4:      Singlet-A      2.2075 eV  561.65 nm  f=0.1419  <S**2>=0.000
     309 -> 314        0.65096
     312 -> 316        0.26117

 Excited State   5:      Singlet-A      3.1275 eV  396.43 nm  f=0.0000  <S**2>=0.000
     312 -> 313        0.70710

 The electronic state is 1-A.
 Alpha  occ. eigenvalues --  -46.88241 -46.87513 -19.24049 -19.23874 -19.19942
 Alpha  occ. eigenvalues --  -19.18985 -19.18704 -19.18245 -19.18208 -19.17936
 Alpha  occ. eigenvalues --  -14.42278 -14.41986 -14.41890 -14.41844 -14.39516
 Alpha  occ. eigenvalues --  -14.39428 -14.38343 -14.38162 -10.38682 -10.38524
 Alpha  occ. eigenvalues --  -10.36185 -10.35083 -10.34502 -10.34163 -10.32000
 Alpha  occ. eigenvalues --  -10.31168 -10.30942 -10.30883 -10.30877 -10.30788
 Alpha  occ. eigenvalues --  -10.30708 -10.30670 -10.30577 -10.30451 -10.30316
 Alpha  occ. eigenvalues --  -10.30107 -10.30008 -10.29869 -10.28888 -10.28872
 Alpha  occ. eigenvalues --  -10.28851 -10.28574 -10.28540 -10.28349 -10.28276
 Alpha  occ. eigenvalues --  -10.28270 -10.28152 -10.28132 -10.28109 -10.27822
 Alpha  occ. eigenvalues --  -10.27774 -10.27715 -10.27660 -10.27647 -10.27573
 Alpha  occ. eigenvalues --  -10.27568 -10.27420 -10.27361 -10.27240 -10.27236
 Alpha  occ. eigenvalues --  -10.27127 -10.27123 -10.27076 -10.27000 -10.26946
 Alpha  occ. eigenvalues --  -10.26911 -10.26889 -10.26865 -10.26732 -10.26680
 Alpha  occ. eigenvalues --  -10.26590 -10.26344 -10.26320 -10.26299 -10.25984
 Alpha  occ. eigenvalues --  -10.25981 -10.25916 -10.25898 -10.25873 -10.25847
 Alpha  occ. eigenvalues --  -10.25796 -10.25702 -10.25651 -10.25469 -10.24756
 Alpha  occ. eigenvalues --  -10.24594  -3.16767  -3.16229  -1.91667  -1.91219
 Alpha  occ. eigenvalues --   -1.91139  -1.91073  -1.90688  -1.90533  -1.15119
 Alpha  occ. eigenvalues --   -1.15089  -1.11580  -1.09510  -1.08865  -1.07934
 Alpha  occ. eigenvalues --   -1.06644  -1.05115  -1.04823  -1.04448  -1.04069
 Alpha  occ. eigenvalues --   -1.03327  -1.03222  -1.02446  -1.02211  -1.01019
 Alpha  occ. eigenvalues --   -0.93065  -0.92073  -0.89180  -0.89019  -0.88807
 Alpha  occ. eigenvalues --   -0.88431  -0.88281  -0.88138  -0.87559  -0.87094
 Alpha  occ. eigenvalues --   -0.86991  -0.86457  -0.86086  -0.86081  -0.84362
 Alpha  occ. eigenvalues --   -0.84200  -0.83629  -0.83437  -0.82790  -0.82445
 Alpha  occ. eigenvalues --   -0.82338  -0.81964  -0.80999  -0.80970  -0.80528
 Alpha  occ. eigenvalues --   -0.80170  -0.78538  -0.78126  -0.77492  -0.77139
 Alpha  occ. eigenvalues --   -0.76851  -0.76838  -0.76193  -0.75901  -0.75278
 Alpha  occ. eigenvalues --   -0.75012  -0.73095  -0.72431  -0.71317  -0.71092
 Alpha  occ. eigenvalues --   -0.70087  -0.69818  -0.68757  -0.68447  -0.67984
 Alpha  occ. eigenvalues --   -0.67686  -0.67083  -0.66077  -0.65182  -0.65070
 Alpha  occ. eigenvalues --   -0.64765  -0.64701  -0.64593  -0.64442  -0.64348
 Alpha  occ. eigenvalues --   -0.63726  -0.61474  -0.61400  -0.59943  -0.59771
 Alpha  occ. eigenvalues --   -0.59627  -0.59131  -0.59091  -0.59082  -0.58576
 Alpha  occ. eigenvalues --   -0.58316  -0.57778  -0.57667  -0.57410  -0.57287
 Alpha  occ. eigenvalues --   -0.56151  -0.55855  -0.55619  -0.55436  -0.55171
 Alpha  occ. eigenvalues --   -0.54878  -0.54661  -0.54425  -0.53811  -0.53706
 Alpha  occ. eigenvalues --   -0.53348  -0.53230  -0.52893  -0.52867  -0.52679
 Alpha  occ. eigenvalues --   -0.52510  -0.52421  -0.52326  -0.52134  -0.52057
 Alpha  occ. eigenvalues --   -0.51976  -0.51867  -0.51611  -0.51053  -0.50821
 Alpha  occ. eigenvalues --   -0.50802  -0.50637  -0.50334  -0.50223  -0.50147
 Alpha  occ. eigenvalues --   -0.49745  -0.49669  -0.49620  -0.49582  -0.49409
 Alpha  occ. eigenvalues --   -0.49366  -0.49059  -0.49001  -0.48923  -0.48787
 Alpha  occ. eigenvalues --   -0.48542  -0.48460  -0.48230  -0.48169  -0.48128
 Alpha  occ. eigenvalues --   -0.47911  -0.47748  -0.47623  -0.47210  -0.47112
 Alpha  occ. eigenvalues --   -0.46746  -0.46736  -0.46478  -0.46256  -0.46232
 Alpha  occ. eigenvalues --   -0.46124  -0.45973  -0.45825  -0.45688  -0.45646
 Alpha  occ. eigenvalues --   -0.45384  -0.45247  -0.45246  -0.45154  -0.45028
 Alpha  occ. eigenvalues --   -0.44785  -0.44641  -0.44267  -0.44232  -0.43965
 Alpha  occ. eigenvalues --   -0.43963  -0.43800  -0.43775  -0.43641  -0.43405
 Alpha  occ. eigenvalues --   -0.43398  -0.43186  -0.43056  -0.42875  -0.42788
 Alpha  occ. eigenvalues --   -0.42742  -0.42673  -0.42436  -0.42362  -0.41927
 Alpha  occ. eigenvalues --   -0.41583  -0.41498  -0.41464  -0.41107  -0.41097
 Alpha  occ. eigenvalues --   -0.40885  -0.40775  -0.40613  -0.40315  -0.40229
 Alpha  occ. eigenvalues --   -0.39962  -0.39914  -0.39686  -0.38907  -0.38514
 Alpha  occ. eigenvalues --   -0.38390  -0.38186  -0.37840  -0.37800  -0.37687
 Alpha  occ. eigenvalues --   -0.36894  -0.36627  -0.36486  -0.36371  -0.36120
 Alpha  occ. eigenvalues --   -0.35672  -0.35586  -0.34318  -0.34289  -0.33800
 Alpha  occ. eigenvalues --   -0.33273  -0.33171  -0.32864  -0.31602  -0.30976
 Alpha  occ. eigenvalues --   -0.30882  -0.30815  -0.30596  -0.30015  -0.29877
 Alpha  occ. eigenvalues --   -0.29603  -0.29301  -0.28653  -0.23623  -0.23512
 Alpha  occ. eigenvalues --   -0.21316  -0.21092
 Alpha virt. eigenvalues --   -0.08911  -0.08671  -0.01310  -0.01290   0.00604
 Alpha virt. eigenvalues --    0.00704   0.02380   0.02493   0.02611   0.03586
 Alpha virt. eigenvalues --    0.05064   0.05143   0.05333   0.05660   0.05791

 Mulliken charges:
               1
     1  Mg  12.000081
     2  C    5.977479
     3  C    6.020431
     4  C    6.024891
     5  C    5.997378
     6  N    6.995170
     7  C    6.029358
     8  C    5.987459
     9  C    6.006161
    10  C    5.971938
    11  C    6.002259
    12  C    5.995262
    13  C    5.998233
    14  H    1.007101
    15  N    7.008967
    16  C    5.951965
    17  C    5.969809
    18  C    5.993749
    19  C    5.958665
    20  C    6.008159
    21  C    5.987577
    22  O    7.974238
    23  C    6.004967
    24  N    7.009531
    25  C    5.956863
    26  C    6.016831
    27  C    5.985384
    28  C    6.034692
    29  C    5.998795
    30  C    5.995486
    31  C    5.998247
    32  N    6.993474
    33  C    6.031628
    34  C    6.029006
    35  C    6.006188
    36  C    6.032141
    37  C    5.996211
    38  C    6.013275
    39  O    8.029694
    40  C    6.005258
    41  C    6.000736
    42  O    8.009932
    43  O    7.998259
    44  C    5.997575
    45  H    0.989879
    46  H    0.992014
    47  H    1.013430
    48  H    1.004709
    49  H    0.998906
    50  H    1.004122
    51  H    1.000836
    52  H    0.986970
    53  H    1.009972
    54  H    1.000451
    55  H    0.994417
    56  H    0.999774
    57  H    0.977267
    58  H    0.977494
    59  H    0.976193
    60  H    0.996564
    61  H    0.985407
    62  H    0.993090
    63  H    0.999861
    64  H    1.000636
    65  H    0.999803
    66  H    1.002818
    67  H    0.988720
    68  H    1.013266
    69  H    0.998467
    70  H    0.999015
    71  H    1.009206
    72  H    0.998225
    73  H    1.019848
    74  H    1.019051
    75  H    1.018180
    76  H    1.008632
    77  H    1.003066
    78  H    1.002864
    79  H    1.006345
    80  Mg  11.999967
    81  C    6.000275
    82  C    5.999736
    83  C    5.999700
    84  C    6.000078
    85  N    7.000064
    86  C    5.999609
    87  C    6.000149
    88  C    5.999974
    89  C    6.000329
    90  C    5.999965
    91  C    6.000032
    92  C    6.000018
    93  H    0.999972
    94  N    6.999977
    95  C    6.000475
    96  C    6.000205
    97  C    6.000233
    98  C    6.000388
    99  C    5.999891
   100  C    6.000181
   101  O    8.000290
   102  C    5.999932
   103  N    6.999922
   104  C    6.000442
   105  C    5.999876
   106  C    6.000120
   107  C    5.999671
   108  C    6.000015
   109  C    6.000061
   110  C    6.000092
   111  N    6.999953
   112  C    5.999706
   113  C    5.999609
   114  C    5.999976
   115  C    5.999715
   116  C    6.000124
   117  C    5.999808
   118  O    7.999695
   119  C    5.999987
   120  C    5.999939
   121  O    7.999950
   122  O    7.999983
   123  C    6.000020
   124  H    1.000142
   125  H    1.000087
   126  H    0.999852
   127  H    0.999988
   128  H    0.999983
   129  H    1.000018
   130  H    1.000150
   131  H    0.999983
   132  H    0.999897
   133  H    1.000068
   134  H    0.999940
   135  H    1.000002
   136  H    1.000220
   137  H    1.000248
   138  H    1.000249
   139  H    1.000135
   140  H    1.000172
   141  H    1.000019
   142  H    0.999981
   143  H    0.999967
   144  H    1.000126
   145  H    1.000001
   146  H    0.999976
   147  H    0.999864
   148  H    1.000023
   149  H    0.999890
   150  H    1.000038
   151  H    0.999918
   152  H    0.999716
   153  H    0.999737
   154  H    0.999707
   155  H    0.999899
   156  H    0.999993
   157  H    0.999932
   158  H    0.999978
 Sum of Mulliken charges = 624.00000

 Dipole moment (field-independent basis, Debye):
    X=             -0.0650    Y=              3.9997    Z=            -10.1113  Tot=             10.8738
 Quadrupole moment (field-independent basis, Debye-Ang):
   XX=              8.2512   YY=             -2.3569   ZZ=             -7.4175
   XY=            101.6771   XZ=           -252.7040   YZ=              9.9509

 Normal termination of Gaussian 16 at Wed Sep 22 00:13:26 2021.
