 Gaussian 16, Revision A.03,
 Gaussian 16:  ES64L-G16RevA.03 25-Dec-2016

 ---------------------------------------------------
 #p cam-b3lyp/Def2SVP td=(nstates=5) density=(CIS=1)
 ---------------------------------------------------

 --------------------------------
 TDDFT excited states in gaussian
 --------------------------------
 Symbolic Z-matrix:
 Charge =  0 Multiplicity = 1

                         Standard orientation:
 ---------------------------------------------------------------------
 Center     Atomic      Atomic             Coordinates (Angstroms)
 Number     Number       Type             X           Y           Z
 ---------------------------------------------------------------------
      1         12           0       -0.798222    0.035863   -0.679268
      2          6           0        2.737155   -0.145256   -0.420888
      3          6           0       -0.841340   -3.446337   -0.480393
      4          6           0       -3.939835    0.317126    0.262700
      5          6           0       -0.391861    3.671631   -0.537753
      6          7           0        0.828091   -1.615308   -0.216069
      7          6           0        2.155486   -1.438026   -0.429861
      8          6           0        2.832796   -2.792708   -0.534499
      9          6           0        1.752138   -3.703791   -1.117017
     10          6           0        0.477871   -2.909363   -0.526992
     11          6           0        1.629771   -3.811876   -2.638098
     12          6           0        3.436491   -3.198049    0.880453
     13          6           0        4.807438   -3.740110    0.772732
     14          1           0        5.161726   -4.962603    1.641617
     15          7           0       -2.254890   -1.378033   -0.112342
     16          6           0       -2.087938   -2.783638   -0.178616
     17          6           0       -3.360349   -3.360929    0.174761
     18          6           0       -4.333644   -2.336654    0.317548
     19          6           0       -3.556247   -1.053060    0.187520
     20          6           0       -3.524342   -4.873469    0.285499
     21          6           0       -5.755329   -2.525260    0.673632
     22          8           0       -6.171840   -3.662409    0.856769
     23          6           0       -6.767335   -1.458485    0.935133
     24          7           0       -1.979382    1.845072   -0.100053
     25          6           0       -3.298704    1.604744    0.035585
     26          6           0       -4.088486    2.924713    0.096980
     27          6           0       -2.977319    4.044628   -0.316873
     28          6           0       -1.701099    3.165518   -0.371199
     29          6           0       -5.448281    2.923056   -0.736402
     30          6           0       -2.880114    5.279079    0.633269
     31          6           0       -1.746802    5.279227    1.715146
     32          7           0        0.745178    1.448101   -0.526472
     33          6           0        0.741227    2.871934   -0.549832
     34          6           0        2.179913    3.358037   -0.716148
     35          6           0        2.923763    2.193296   -0.614677
     36          6           0        2.012419    1.081129   -0.521542
     37          6           0        2.793017    4.761489   -0.885419
     38          6           0        4.250735    1.665744   -0.652506
     39          8           0        5.328258    2.229195   -0.851404
     40          6           0        4.110684    0.211360   -0.376110
     41          6           0        4.669637    0.075729    1.058731
     42          8           0        4.096281    0.352316    2.110270
     43          8           0        6.017777   -0.363534    0.943650
     44          6           0        6.792302   -0.449830    2.114549
     45          1           0       -0.923397   -4.534765   -0.516562
     46          1           0       -5.022131    0.299183    0.405311
     47          1           0       -0.172699    4.734960   -0.648995
     48          1           0        3.632243   -2.819164   -1.274810
     49          1           0        1.711548   -4.757562   -0.843696
     50          1           0        2.523461   -3.495114   -3.174987
     51          1           0        0.680892   -3.410206   -2.994456
     52          1           0        1.575506   -4.891020   -2.786264
     53          1           0        2.817029   -3.986177    1.308633
     54          1           0        3.338114   -2.428540    1.646215
     55          1           0        5.407114   -2.867044    1.027610
     56          1           0        4.980864   -4.024465   -0.265026
     57          1           0       -4.060824   -5.305371   -0.559113
     58          1           0       -3.981790   -5.104757    1.246338
     59          1           0       -2.548596   -5.359363    0.297213
     60          1           0       -6.973859   -0.948364   -0.006052
     61          1           0       -6.494588   -0.717526    1.687590
     62          1           0       -7.754648   -1.879548    1.120995
     63          1           0       -4.286458    3.038417    1.162591
     64          1           0       -3.158041    4.345233   -1.348347
     65          1           0       -5.825418    1.909213   -0.869825
     66          1           0       -5.497002    3.479364   -1.673235
     67          1           0       -6.081506    3.589370   -0.148521
     68          1           0       -3.820213    5.484721    1.144511
     69          1           0       -2.659835    6.085211   -0.066118
     70          1           0       -2.308199    5.847824    2.456887
     71          1           0       -0.817792    5.801867    1.486308
     72          1           0       -1.600268    4.248060    2.037238
     73          1           0        3.366399    4.828670   -1.809325
     74          1           0        3.534954    4.670261   -0.092702
     75          1           0        2.012743    5.489254   -0.663707
     76          1           0        4.748217   -0.350956   -1.058446
     77          1           0        7.819714   -0.780367    1.957011
     78          1           0        6.307941   -1.171241    2.771413
     79          1           0        6.787787    0.559217    2.527718
 ---------------------------------------------------------------------

 SCF Done:  E(RCAM-B3LYP) =  -2034.85770770     A.U. after   19 cycles

 Excitation energies and oscillator strengths:

 Excited State   1:      Singlet-A      1.6842 eV  736.14 nm  f=0.0000  <S**2>=0.000
     155 ->158         0.19738
     156 ->157         0.68018
     155 <-158         0.11216
 This state for optimization and/or second-order correction.
 Total Energy, E(TD-HF/TD-DFT) =  -2034.79581298
 Copying the excited state density for this state as the 1-particle RhoCI density.

 Excited State   2:      Singlet-A      2.1915 eV  565.74 nm  f=0.0000  <S**2>=0.000
     155 ->157         0.61449
     156 ->158        -0.33946

 Excited State   3:      Singlet-A      3.2506 eV  381.42 nm  f=0.0000  <S**2>=0.000
     156 ->158        -0.19777
     156 ->159         0.60472
     156 ->160         0.27341

 Excited State   4:      Singlet-A      3.3555 eV  369.49 nm  f=0.0000  <S**2>=0.000
     154 ->157         0.36308
     155 ->157         0.24408
     156 ->158         0.47576
     156 ->159         0.21590

 Excited State   5:      Singlet-A      3.4218 eV  362.33 nm  f=0.0000  <S**2>=0.000
     150 ->157        -0.20059
     150 ->160         0.15330
     152 ->157        -0.26375
     154 ->157         0.46600
     155 ->157        -0.14690
     156 ->158        -0.23492

 The electronic state is 1-A.
 Alpha  occ. eigenvalues --  -46.91316 -19.24726 -19.21418 -19.18928 -19.17588
 Alpha  occ. eigenvalues --  -14.42422 -14.41958 -14.40258 -14.39776 -10.40608
 Alpha  occ. eigenvalues --  -10.34577 -10.34141 -10.31845 -10.31443 -10.31418
 Alpha  occ. eigenvalues --  -10.31322 -10.31069 -10.30989 -10.30846 -10.30096
 Alpha  occ. eigenvalues --  -10.29482 -10.29407 -10.28795 -10.28535 -10.28428
 Alpha  occ. eigenvalues --  -10.28389 -10.28217 -10.28161 -10.27923 -10.27679
 Alpha  occ. eigenvalues --  -10.27622 -10.27571 -10.27370 -10.27178 -10.27121
 Alpha  occ. eigenvalues --  -10.27109 -10.26795 -10.26377 -10.26250 -10.25784
 Alpha  occ. eigenvalues --  -10.25682 -10.25287 -10.24992  -3.19516  -1.94357
 Alpha  occ. eigenvalues --   -1.94023  -1.93771  -1.15836  -1.09616  -1.09372
 Alpha  occ. eigenvalues --   -1.08667  -1.04216  -1.03464  -1.02852  -1.01290
 Alpha  occ. eigenvalues --   -0.94394  -0.89186  -0.88736  -0.87815  -0.87281
 Alpha  occ. eigenvalues --   -0.86863  -0.85587  -0.84793  -0.83676  -0.82717
 Alpha  occ. eigenvalues --   -0.81656  -0.80871  -0.80287  -0.78051  -0.77285
 Alpha  occ. eigenvalues --   -0.76892  -0.76017  -0.75220  -0.72761  -0.71854
 Alpha  occ. eigenvalues --   -0.69931  -0.68728  -0.67332  -0.66882  -0.65357
 Alpha  occ. eigenvalues --   -0.64983  -0.64726  -0.64558  -0.62227  -0.59945
 Alpha  occ. eigenvalues --   -0.59782  -0.59285  -0.58914  -0.58274  -0.57049
 Alpha  occ. eigenvalues --   -0.56214  -0.55973  -0.55653  -0.54962  -0.54572
 Alpha  occ. eigenvalues --   -0.53691  -0.53405  -0.53047  -0.52654  -0.52193
 Alpha  occ. eigenvalues --   -0.51975  -0.51682  -0.51404  -0.51318  -0.50566
 Alpha  occ. eigenvalues --   -0.50196  -0.49980  -0.49416  -0.49241  -0.48962
 Alpha  occ. eigenvalues --   -0.48490  -0.48277  -0.47771  -0.47482  -0.47180
 Alpha  occ. eigenvalues --   -0.46862  -0.46106  -0.45958  -0.45914  -0.45881
 Alpha  occ. eigenvalues --   -0.45448  -0.45314  -0.45158  -0.44582  -0.44461
 Alpha  occ. eigenvalues --   -0.44150  -0.43805  -0.43488  -0.43319  -0.43015
 Alpha  occ. eigenvalues --   -0.42344  -0.42053  -0.41613  -0.41311  -0.41024
 Alpha  occ. eigenvalues --   -0.40989  -0.40439  -0.40097  -0.39184  -0.38572
 Alpha  occ. eigenvalues --   -0.38280  -0.37937  -0.37649  -0.36529  -0.36338
 Alpha  occ. eigenvalues --   -0.35784  -0.35229  -0.34230  -0.33359  -0.31477
 Alpha  occ. eigenvalues --   -0.30822  -0.30580  -0.30228  -0.29491  -0.24062
 Alpha  occ. eigenvalues --   -0.21050
 Alpha virt. eigenvalues --   -0.08544  -0.02628  -0.00618   0.00120   0.02157
 Alpha virt. eigenvalues --    0.04693   0.05153   0.05882   0.06880   0.07985
 Alpha virt. eigenvalues --    0.08673   0.08820   0.09342   0.09615   0.10274

 Mulliken charges:
               1
     1  Mg   0.799529
     2  C   -0.018925
     3  C   -0.090909
     4  C   -0.073026
     5  C   -0.086994
     6  N   -0.291156
     7  C   -0.021113
     8  C   -0.007872
     9  C   -0.084665
    10  C    0.079063
    11  C    0.087769
    12  C    0.076362
    13  C   -0.063347
    14  H    0.018755
    15  N   -0.417543
    16  C    0.154823
    17  C   -0.164092
    18  C    0.012437
    19  C    0.127543
    20  C    0.142132
    21  C   -0.061274
    22  O   -0.224763
    23  C    0.079025
    24  N   -0.313782
    25  C    0.105187
    26  C   -0.044960
    27  C    0.026885
    28  C    0.050361
    29  C    0.053603
    30  C    0.004406
    31  C    0.007182
    32  N   -0.337278
    33  C    0.130355
    34  C   -0.229204
    35  C    0.013410
    36  C    0.155832
    37  C    0.134769
    38  C   -0.007977
    39  O   -0.194427
    40  C    0.017333
    41  C    0.214506
    42  O   -0.204285
    43  O   -0.345961
    44  C    0.186837
    45  H   -0.020427
    46  H   -0.066966
    47  H   -0.026438
    48  H   -0.008925
    49  H    0.003264
    50  H    0.019874
    51  H    0.025911
    52  H    0.005850
    53  H    0.007340
    54  H    0.032146
    55  H    0.024955
    56  H    0.024386
    57  H    0.034335
    58  H    0.037549
    59  H   -0.012363
    60  H    0.019005
    61  H    0.050217
    62  H    0.019620
    63  H    0.027893
    64  H    0.014165
    65  H    0.032079
    66  H    0.012324
    67  H    0.010245
    68  H    0.016255
    69  H    0.005481
    70  H    0.011997
    71  H    0.025419
    72  H    0.040482
    73  H    0.048935
    74  H    0.045159
    75  H    0.016988
    76  H    0.030259
    77  H    0.038703
    78  H    0.024796
    79  H    0.034936
 Sum of Mulliken charges =  -0.00000

 Dipole moment (field-independent basis, Debye):
    X=             -2.0792    Y=              2.4192    Z=             -3.2309  Tot=              4.5403
 Quadrupole moment (field-independent basis, Debye-Ang):
   XX=           -277.7766   YY=           -242.7307   ZZ=           -257.1142
   XY=            -48.1043   XZ=              9.6543   YZ=              6.9006

 Normal termination of Gaussian 16 at Fri Oct  8 18:50:51 2021.
