 Gaussian 16, Revision A.03,
 Gaussian 16:  ES64L-G16RevA.03 25-Dec-2016

 ----------------------------------------------------------
 #p cam-b3lyp/Def2SVP td=(nstates=5) density=(transition=1)
 ----------------------------------------------------------

 --------------------------------
 TDDFT excited states in gaussian
 --------------------------------
 Symbolic Z-matrix:
 Charge =  0 Multiplicity = 1

                         Standard orientation:
 ---------------------------------------------------------------------
 Center     Atomic      Atomic             Coordinates (Angstroms)
 Number     Number       Type             X           Y           Z
 ---------------------------------------------------------------------
      1         12           0       28.675790    0.424389    0.538263
      2          6           0       28.650528   -2.191448   -1.749556
      3          6           0       28.716122    2.629254   -2.008590
      4          6           0       29.482507    2.882739    2.716532
      5          6           0       29.466296   -1.912261    3.081669
      6          7           0       28.592649    0.150922   -1.570698
      7          6           0       28.428647   -0.967183   -2.359031
      8          6           0       28.378886   -0.571716   -3.860571
      9          6           0       28.958509    0.875659   -3.812433
     10          6           0       28.640355    1.297984   -2.385630
     11          6           0       30.500561    0.975178   -4.085875
     12          6           0       26.955697   -0.854869   -4.375308
     13          6           0       26.906557   -1.479526   -5.717598
     14          1           0       25.654827   -2.164673   -6.033608
     15          7           0       28.817674    2.474772    0.377014
     16          6           0       28.739053    3.193212   -0.772835
     17          6           0       28.554946    4.581197   -0.430670
     18          6           0       28.781169    4.656132    0.991069
     19          6           0       29.129113    3.295604    1.411274
     20          6           0       28.327898    5.654892   -1.433688
     21          6           0       28.858199    5.881237    1.959424
     22          8           0       29.055326    5.764921    3.170662
     23          6           0       28.550100    7.272857    1.481891
     24          7           0       29.711762    0.431006    2.523252
     25          6           0       29.789668    1.643711    3.260996
     26          6           0       30.162316    1.445074    4.692946
     27          6           0       29.919628   -0.096859    4.779457
     28          6           0       29.608485   -0.564135    3.360029
     29          6           0       31.614028    1.911956    5.050434
     30          6           0       28.740509   -0.491221    5.742110
     31          6           0       27.397800    0.242819    5.495749
     32          7           0       28.895641   -1.633360    0.707438
     33          6           0       29.167196   -2.450806    1.815478
     34          6           0       29.168655   -3.784210    1.341920
     35          6           0       28.943593   -3.711614   -0.027135
     36          6           0       28.800239   -2.402466   -0.349789
     37          6           0       29.327435   -5.006138    2.189467
     38          6           0       28.887867   -4.481238   -1.180249
     39          8           0       29.015010   -5.711696   -1.316827
     40          6           0       28.675697   -3.571769   -2.427915
     41          6           0       27.323388   -4.079123   -3.019032
     42          8           0       26.206123   -3.936374   -2.491173
     43          8           0       27.593817   -4.716018   -4.225355
     44          6           0       26.500961   -5.511785   -4.869541
     45          1           0       28.822283    3.234518   -2.911359
     46          1           0       29.635961    3.530485    3.582995
     47          1           0       29.495753   -2.684553    3.853204
     48          1           0       28.995952   -1.248608   -4.450499
     49          1           0       28.382973    1.512314   -4.483739
     50          1           0       31.001503    0.045950   -4.358839
     51          1           0       31.032575    1.254448   -3.177338
     52          1           0       30.662348    1.646710   -4.928817
     53          1           0       26.495937    0.123026   -4.511281
     54          1           0       26.448023   -1.461350   -3.624787
     55          1           0       27.681536   -2.246173   -5.711939
     56          1           0       27.191375   -0.731436   -6.457162
     57          1           0       27.977056    5.247395   -2.381630
     58          1           0       29.202364    6.306454   -1.437072
     59          1           0       27.503616    6.286198   -1.101674
     60          1           0       29.086940    7.920581    2.175343
     61          1           0       27.485899    7.489426    1.577832
     62          1           0       28.929498    7.454330    0.475814
     63          1           0       29.488035    1.934255    5.397299
     64          1           0       30.838486   -0.576060    5.118879
     65          1           0       32.205593    1.956966    4.135637
     66          1           0       32.174249    1.285477    5.744716
     67          1           0       31.699215    2.898158    5.507685
     68          1           0       29.128434   -0.362082    6.752669
     69          1           0       28.659800   -1.569953    5.608648
     70          1           0       26.580893   -0.441733    5.266505
     71          1           0       27.569065    0.937408    4.672894
     72          1           0       27.072062    0.823797    6.358051
     73          1           0       30.173107   -5.549106    1.767515
     74          1           0       28.388067   -5.557869    2.153986
     75          1           0       29.598797   -4.823389    3.229284
     76          1           0       29.473058   -3.782138   -3.140203
     77          1           0       26.231952   -6.288062   -4.153570
     78          1           0       26.721136   -6.000060   -5.818812
     79          1           0       25.777793   -4.699809   -4.946354
     80         12           0      -29.375804   -0.593588   -0.449425
     81          6           0      -26.904114    1.729000   -1.532697
     82          6           0      -26.949200   -2.990374   -0.133581
     83          6           0      -31.547953   -2.457509    1.564185
     84          6           0      -31.675007    2.055388   -0.237150
     85          7           0      -27.049368   -0.453163   -0.590335
     86          6           0      -26.327695    0.465375   -1.253074
     87          6           0      -25.020955   -0.156604   -1.710387
     88          6           0      -24.985311   -1.677550   -1.202069
     89          6           0      -26.525057   -1.731135   -0.727855
     90          6           0      -24.670305   -2.596610   -2.403683
     91          6           0      -23.832926    0.644316   -1.202251
     92          6           0      -23.946106    1.233117    0.224036
     93          1           0      -23.092868    0.556421    1.331442
     94          7           0      -29.301608   -2.543216    0.523865
     95          6           0      -28.166824   -3.324779    0.513175
     96          6           0      -28.552072   -4.575147    1.088621
     97          6           0      -29.860540   -4.461834    1.695833
     98          6           0      -30.344817   -3.131822    1.247143
     99          6           0      -27.587457   -5.726403    1.255466
    100          6           0      -30.520731   -5.417715    2.690736
    101          8           0      -29.917684   -6.397050    3.085384
    102          6           0      -31.838032   -5.222282    3.217908
    103          7           0      -31.286181   -0.227457    0.615172
    104          6           0      -31.993629   -1.175700    1.211456
    105          6           0      -33.318697   -0.680085    1.767407
    106          6           0      -33.158156    0.875861    1.486570
    107          6           0      -32.028270    0.928786    0.522594
    108          6           0      -34.605217   -1.324285    1.053168
    109          6           0      -32.953325    1.673134    2.856099
    110          6           0      -34.017061    2.605625    3.362500
    111          7           0      -29.417287    1.336576   -1.008138
    112          6           0      -30.473031    2.270344   -0.976922
    113          6           0      -30.076410    3.526107   -1.640841
    114          6           0      -28.718901    3.302411   -1.869937
    115          6           0      -28.286168    2.022761   -1.374934
    116          6           0      -30.958499    4.743140   -2.086613
    117          6           0      -27.526398    3.958588   -2.415598
    118          8           0      -27.333845    5.064285   -2.947822
    119          6           0      -26.314824    2.983946   -2.244225
    120          6           0      -25.466165    3.797745   -1.329381
    121          8           0      -25.801111    4.203050   -0.245899
    122          8           0      -24.327353    4.124102   -1.933794
    123          6           0      -23.273638    4.875948   -1.166759
    124          1           0      -26.268768   -3.825558   -0.311447
    125          1           0      -32.346435   -2.947352    2.125032
    126          1           0      -32.417631    2.827812   -0.024109
    127          1           0      -25.151468   -0.021852   -2.784148
    128          1           0      -24.279719   -1.829317   -0.384808
    129          1           0      -23.751044   -3.138907   -2.183289
    130          1           0      -24.491355   -2.070325   -3.341642
    131          1           0      -25.497127   -3.304123   -2.460012
    132          1           0      -23.643909    1.481154   -1.874673
    133          1           0      -22.941210    0.018425   -1.156964
    134          1           0      -24.907324    1.152192    0.731402
    135          1           0      -23.659230    2.278293    0.107668
    136          1           0      -26.582284   -5.464846    0.923853
    137          1           0      -28.023574   -6.594881    0.760668
    138          1           0      -27.609064   -6.015365    2.305661
    139          1           0      -31.968132   -4.332887    3.834848
    140          1           0      -32.107124   -6.076644    3.838707
    141          1           0      -32.442192   -5.116374    2.316217
    142          1           0      -33.406025   -0.765749    2.850225
    143          1           0      -34.168968    1.135828    1.171770
    144          1           0      -34.281906   -2.070043    0.326346
    145          1           0      -35.102812   -0.523346    0.506032
    146          1           0      -35.363055   -1.741838    1.717857
    147          1           0      -32.126968    2.380074    2.781232
    148          1           0      -32.742304    0.990044    3.677731
    149          1           0      -33.806439    3.658723    3.175993
    150          1           0      -33.950517    2.388858    4.429163
    151          1           0      -35.039441    2.298731    3.141301
    152          1           0      -31.199459    5.320019   -1.194143
    153          1           0      -31.821669    4.335682   -2.613191
    154          1           0      -30.351419    5.393771   -2.715823
    155          1           0      -25.925617    2.811605   -3.248350
    156          1           0      -23.433242    5.954407   -1.175177
    157          1           0      -22.279515    4.685304   -1.573123
    158          1           0      -23.326121    4.469913   -0.156586
 ---------------------------------------------------------------------

 SCF Done:  E(RCAM-B3LYP) =  -4069.77569790     A.U. after   19 cycles

 Excitation energies and oscillator strengths:

 Excited State   1:      Singlet-A      1.6607 eV  746.56 nm  f=0.3732  <S**2>=0.000
     310 -> 316       -0.16223
     312 -> 313        0.68892
     310 <- 316       -0.10409
 This state for optimization and/or second-order correction.
 Total Energy, E(TD-HF/TD-DFT) =  -4069.71466699
 Copying the excited state density for this state as the 1-particle RhoCI density.

 Excited State   2:      Singlet-A      1.6890 eV  734.07 nm  f=0.3573  <S**2>=0.000
     309 -> 315       -0.20076
     311 -> 314        0.68047
     309 <- 315       -0.11491

 Excited State   3:      Singlet-A      2.1999 eV  563.59 nm  f=0.0721  <S**2>=0.000
     309 -> 314        0.61855
     311 -> 315        0.32994

 Excited State   4:      Singlet-A      2.2190 eV  558.74 nm  f=0.1282  <S**2>=0.000
     310 -> 313        0.64341
     312 -> 316        0.27225

 Excited State   5:      Singlet-A      3.1912 eV  388.52 nm  f=0.0000  <S**2>=0.000
     311 -> 313        0.70711

 The electronic state is 1-A.
 Alpha  occ. eigenvalues --  -46.90224 -46.88325 -19.25090 -19.24747 -19.20014
 Alpha  occ. eigenvalues --  -19.18869 -19.18866 -19.18740 -19.18080 -19.17658
 Alpha  occ. eigenvalues --  -14.42443 -14.41986 -14.41946 -14.41486 -14.40151
 Alpha  occ. eigenvalues --  -14.39551 -14.39351 -14.38509 -10.40033 -10.38740
 Alpha  occ. eigenvalues --  -10.35289 -10.34981 -10.34333 -10.33640 -10.32472
 Alpha  occ. eigenvalues --  -10.32019 -10.31980 -10.31402 -10.30991 -10.30960
 Alpha  occ. eigenvalues --  -10.30940 -10.30749 -10.30716 -10.30560 -10.30326
 Alpha  occ. eigenvalues --  -10.30244 -10.30229 -10.29966 -10.29861 -10.29313
 Alpha  occ. eigenvalues --  -10.29209 -10.28867 -10.28831 -10.28740 -10.28414
 Alpha  occ. eigenvalues --  -10.28396 -10.28329 -10.28311 -10.28250 -10.28219
 Alpha  occ. eigenvalues --  -10.28165 -10.28110 -10.28075 -10.27913 -10.27886
 Alpha  occ. eigenvalues --  -10.27862 -10.27681 -10.27676 -10.27557 -10.27459
 Alpha  occ. eigenvalues --  -10.27451 -10.27177 -10.27025 -10.27018 -10.27017
 Alpha  occ. eigenvalues --  -10.27001 -10.26922 -10.26808 -10.26735 -10.26605
 Alpha  occ. eigenvalues --  -10.26533 -10.26425 -10.26405 -10.26380 -10.26203
 Alpha  occ. eigenvalues --  -10.25949 -10.25943 -10.25835 -10.25798 -10.25752
 Alpha  occ. eigenvalues --  -10.25743 -10.25647 -10.25573 -10.25529 -10.25060
 Alpha  occ. eigenvalues --  -10.23787  -3.18530  -3.16921  -1.93394  -1.93018
 Alpha  occ. eigenvalues --   -1.92807  -1.91802  -1.91380  -1.91223  -1.17076
 Alpha  occ. eigenvalues --   -1.14420  -1.10225  -1.09479  -1.08830  -1.07950
 Alpha  occ. eigenvalues --   -1.07716  -1.06652  -1.04814  -1.04612  -1.03906
 Alpha  occ. eigenvalues --   -1.03689  -1.03522  -1.02409  -1.02231  -1.01613
 Alpha  occ. eigenvalues --   -0.92537  -0.91957  -0.89097  -0.89056  -0.88962
 Alpha  occ. eigenvalues --   -0.88830  -0.88591  -0.88264  -0.87802  -0.87133
 Alpha  occ. eigenvalues --   -0.87099  -0.86540  -0.86131  -0.85368  -0.84698
 Alpha  occ. eigenvalues --   -0.84604  -0.84055  -0.83511  -0.82864  -0.82630
 Alpha  occ. eigenvalues --   -0.82171  -0.81629  -0.81106  -0.80993  -0.80396
 Alpha  occ. eigenvalues --   -0.80265  -0.78212  -0.77912  -0.77359  -0.77077
 Alpha  occ. eigenvalues --   -0.76939  -0.76399  -0.76311  -0.76038  -0.75474
 Alpha  occ. eigenvalues --   -0.74976  -0.73254  -0.72867  -0.72053  -0.71733
 Alpha  occ. eigenvalues --   -0.69796  -0.68911  -0.68771  -0.68537  -0.68131
 Alpha  occ. eigenvalues --   -0.67540  -0.66692  -0.66537  -0.65593  -0.65342
 Alpha  occ. eigenvalues --   -0.65205  -0.64766  -0.64665  -0.64458  -0.64071
 Alpha  occ. eigenvalues --   -0.64041  -0.62430  -0.61568  -0.60295  -0.59891
 Alpha  occ. eigenvalues --   -0.59788  -0.59283  -0.59144  -0.58989  -0.58703
 Alpha  occ. eigenvalues --   -0.58440  -0.57813  -0.57570  -0.57273  -0.57004
 Alpha  occ. eigenvalues --   -0.56328  -0.55986  -0.55851  -0.55622  -0.55333
 Alpha  occ. eigenvalues --   -0.55083  -0.55046  -0.54918  -0.54768  -0.54520
 Alpha  occ. eigenvalues --   -0.53874  -0.53552  -0.53542  -0.53067  -0.53051
 Alpha  occ. eigenvalues --   -0.52937  -0.52813  -0.52626  -0.52502  -0.52469
 Alpha  occ. eigenvalues --   -0.52030  -0.51938  -0.51761  -0.51675  -0.51537
 Alpha  occ. eigenvalues --   -0.51463  -0.50682  -0.50496  -0.50352  -0.50168
 Alpha  occ. eigenvalues --   -0.49813  -0.49699  -0.49637  -0.49493  -0.49392
 Alpha  occ. eigenvalues --   -0.49224  -0.49200  -0.48958  -0.48918  -0.48765
 Alpha  occ. eigenvalues --   -0.48523  -0.48517  -0.48268  -0.48089  -0.47980
 Alpha  occ. eigenvalues --   -0.47806  -0.47689  -0.47368  -0.47311  -0.47036
 Alpha  occ. eigenvalues --   -0.46960  -0.46910  -0.46617  -0.46605  -0.46301
 Alpha  occ. eigenvalues --   -0.46299  -0.45994  -0.45812  -0.45705  -0.45608
 Alpha  occ. eigenvalues --   -0.45473  -0.45316  -0.45189  -0.45106  -0.44902
 Alpha  occ. eigenvalues --   -0.44612  -0.44492  -0.44363  -0.44185  -0.43956
 Alpha  occ. eigenvalues --   -0.43756  -0.43684  -0.43582  -0.43469  -0.43447
 Alpha  occ. eigenvalues --   -0.43221  -0.43194  -0.43060  -0.42896  -0.42699
 Alpha  occ. eigenvalues --   -0.42396  -0.42370  -0.42004  -0.41967  -0.41747
 Alpha  occ. eigenvalues --   -0.41593  -0.41501  -0.41413  -0.41294  -0.41070
 Alpha  occ. eigenvalues --   -0.40867  -0.40849  -0.40652  -0.40300  -0.40127
 Alpha  occ. eigenvalues --   -0.40031  -0.39959  -0.39810  -0.39165  -0.38650
 Alpha  occ. eigenvalues --   -0.38208  -0.38038  -0.37998  -0.37427  -0.37370
 Alpha  occ. eigenvalues --   -0.37119  -0.36835  -0.36755  -0.36602  -0.36390
 Alpha  occ. eigenvalues --   -0.36080  -0.35718  -0.34259  -0.34189  -0.34112
 Alpha  occ. eigenvalues --   -0.34094  -0.33356  -0.33231  -0.31389  -0.31320
 Alpha  occ. eigenvalues --   -0.30829  -0.30752  -0.30684  -0.30282  -0.30060
 Alpha  occ. eigenvalues --   -0.29726  -0.29405  -0.28930  -0.24290  -0.24245
 Alpha  occ. eigenvalues --   -0.21325  -0.21196
 Alpha virt. eigenvalues --   -0.09008  -0.08775  -0.02563  -0.01517   0.00258
 Alpha virt. eigenvalues --    0.00528   0.01025   0.02190   0.02420   0.02421
 Alpha virt. eigenvalues --    0.04778   0.04956   0.05067   0.05180   0.06329

 Mulliken charges:
               1
     1  Mg  11.997495
     2  C    6.031945
     3  C    5.989977
     4  C    5.961693
     5  C    5.988601
     6  N    7.022513
     7  C    5.963208
     8  C    6.002586
     9  C    5.993243
    10  C    6.024626
    11  C    5.995877
    12  C    6.007091
    13  C    5.999640
    14  H    1.001059
    15  N    6.989187
    16  C    6.042893
    17  C    6.020199
    18  C    6.013608
    19  C    6.045645
    20  C    5.994561
    21  C    6.012901
    22  O    8.029695
    23  C    5.994148
    24  N    6.981960
    25  C    6.046909
    26  C    5.982958
    27  C    6.007527
    28  C    5.982214
    29  C    6.000066
    30  C    6.008675
    31  C    6.006774
    32  N    7.004884
    33  C    5.965049
    34  C    5.968798
    35  C    5.998464
    36  C    5.966600
    37  C    6.005161
    38  C    5.986614
    39  O    7.968695
    40  C    5.994603
    41  C    5.997239
    42  O    7.996738
    43  O    7.998423
    44  C    6.000913
    45  H    1.015083
    46  H    1.003769
    47  H    0.982139
    48  H    1.001072
    49  H    1.001620
    50  H    1.017379
    51  H    0.999443
    52  H    1.003624
    53  H    0.986489
    54  H    1.006092
    55  H    1.003852
    56  H    0.993855
    57  H    1.016740
    58  H    1.021016
    59  H    1.019932
    60  H    1.014211
    61  H    1.011350
    62  H    1.003895
    63  H    1.001782
    64  H    0.996853
    65  H    0.999810
    66  H    1.010776
    67  H    0.996818
    68  H    0.989304
    69  H    1.007144
    70  H    1.003154
    71  H    0.984744
    72  H    0.992628
    73  H    0.980053
    74  H    0.978679
    75  H    0.981375
    76  H    0.991794
    77  H    1.001117
    78  H    0.995333
    79  H    0.995424
    80  Mg  12.000033
    81  C    6.000064
    82  C    5.999870
    83  C    5.999934
    84  C    6.000073
    85  N    7.000020
    86  C    5.999842
    87  C    6.000010
    88  C    5.999920
    89  C    6.000230
    90  C    5.999984
    91  C    6.000013
    92  C    6.000053
    93  H    0.999921
    94  N    6.999955
    95  C    6.000266
    96  C    6.000121
    97  C    6.000069
    98  C    6.000245
    99  C    5.999939
   100  C    6.000086
   101  O    8.000128
   102  C    5.999969
   103  N    7.000045
   104  C    6.000110
   105  C    5.999930
   106  C    6.000082
   107  C    5.999820
   108  C    5.999980
   109  C    6.000025
   110  C    6.000008
   111  N    7.000011
   112  C    5.999747
   113  C    5.999812
   114  C    6.000018
   115  C    5.999790
   116  C    5.999996
   117  C    5.999858
   118  O    7.999785
   119  C    6.000010
   120  C    5.999959
   121  O    7.999980
   122  O    7.999991
   123  C    6.000020
   124  H    1.000045
   125  H    1.000066
   126  H    0.999940
   127  H    1.000034
   128  H    1.000054
   129  H    1.000047
   130  H    1.000067
   131  H    0.999984
   132  H    1.000021
   133  H    0.999951
   134  H    1.000003
   135  H    1.000006
   136  H    1.000140
   137  H    1.000148
   138  H    1.000125
   139  H    1.000068
   140  H    1.000096
   141  H    1.000043
   142  H    1.000017
   143  H    0.999964
   144  H    0.999981
   145  H    1.000072
   146  H    1.000016
   147  H    1.000012
   148  H    0.999917
   149  H    1.000004
   150  H    0.999967
   151  H    0.999970
   152  H    0.999878
   153  H    0.999901
   154  H    0.999914
   155  H    0.999931
   156  H    0.999965
   157  H    0.999951
   158  H    0.999976
 Sum of Mulliken charges = 624.00000

 Dipole moment (field-independent basis, Debye):
    X=             -0.1325    Y=             10.7638    Z=             -1.6237  Tot=             10.8864
 Quadrupole moment (field-independent basis, Debye-Ang):
   XX=             -7.6465   YY=              9.3863   ZZ=             -3.2294
   XY=            314.5480   XZ=            -49.4591   YZ=              4.8150

 Normal termination of Gaussian 16 at Wed Sep 22 09:30:55 2021.
