 Gaussian 16, Revision A.03,
 Gaussian 16:  ES64L-G16RevA.03 25-Dec-2016

 ----------------------------------------------------------
 #p cam-b3lyp/Def2SVP td=(nstates=5) density=(transition=1)
 ----------------------------------------------------------

 --------------------------------
 TDDFT excited states in gaussian
 --------------------------------
 Symbolic Z-matrix:
 Charge =  0 Multiplicity = 1

                         Standard orientation:
 ---------------------------------------------------------------------
 Center     Atomic      Atomic             Coordinates (Angstroms)
 Number     Number       Type             X           Y           Z
 ---------------------------------------------------------------------
      1         12           0      -32.147146    0.104111    0.376606
      2          6           0      -29.774584   -1.927517   -1.054216
      3          6           0      -32.764917    1.474273   -2.848396
      4          6           0      -34.107133    2.524244    1.692311
      5          6           0      -31.325759   -0.952795    3.452141
      6          7           0      -31.345429   -0.199828   -1.716482
      7          6           0      -30.356190   -1.097180   -2.017357
      8          6           0      -30.107772   -1.156558   -3.526232
      9          6           0      -30.959672    0.103435   -4.017197
     10          6           0      -31.740243    0.494294   -2.796500
     11          6           0      -30.099219    1.251496   -4.661616
     12          6           0      -30.592056   -2.519514   -4.202691
     13          6           0      -29.768585   -3.254978   -5.232438
     14          1           0      -29.172178   -2.475311   -6.350016
     15          7           0      -33.345024    1.765867   -0.447793
     16          6           0      -33.595643    2.027369   -1.749523
     17          6           0      -34.615082    3.011535   -1.896525
     18          6           0      -35.059051    3.322323   -0.572536
     19          6           0      -34.098536    2.566280    0.285454
     20          6           0      -34.947268    3.498743   -3.269951
     21          6           0      -36.079556    4.356875   -0.129588
     22          8           0      -36.176366    4.730448    1.043506
     23          6           0      -37.016762    4.989761   -1.143161
     24          7           0      -32.546247    0.822506    2.341450
     25          6           0      -33.495705    1.754223    2.619752
     26          6           0      -33.760410    1.823141    4.122819
     27          6           0      -32.977643    0.563205    4.655374
     28          6           0      -32.239289    0.101922    3.414322
     29          6           0      -33.508843    3.132001    4.928297
     30          6           0      -33.835783   -0.557106    5.378499
     31          6           0      -34.381021   -1.731529    4.593775
     32          7           0      -30.780029   -1.083778    1.099418
     33          6           0      -30.600441   -1.577772    2.366539
     34          6           0      -29.529108   -2.500690    2.464996
     35          6           0      -29.195759   -2.715150    1.131297
     36          6           0      -29.998093   -1.849975    0.343692
     37          6           0      -28.898396   -3.245930    3.634081
     38          6           0      -28.358033   -3.403192    0.249850
     39          8           0      -27.465880   -4.187163    0.516688
     40          6           0      -28.652226   -2.924277   -1.280779
     41          6           0      -27.422106   -2.351920   -1.813753
     42          8           0      -26.859571   -1.316835   -1.404928
     43          8           0      -26.869714   -3.090973   -2.812009
     44          6           0      -25.487644   -2.812512   -3.218329
     45          1           0      -32.927603    1.754150   -3.890948
     46          1           0      -34.934943    3.091424    2.122519
     47          1           0      -31.293873   -1.567910    4.353033
     48          1           0      -29.031611   -1.113358   -3.698691
     49          1           0      -31.643348   -0.168175   -4.821684
     50          1           0      -30.452874    1.395702   -5.681938
     51          1           0      -29.067859    0.918637   -4.543708
     52          1           0      -30.249116    2.243025   -4.233335
     53          1           0      -31.529498   -2.203599   -4.660741
     54          1           0      -30.976309   -3.211609   -3.454132
     55          1           0      -30.320083   -4.119532   -5.601823
     56          1           0      -28.884868   -3.603007   -4.698848
     57          1           0      -36.036066    3.510015   -3.304052
     58          1           0      -34.624106    2.780822   -4.024187
     59          1           0      -34.552636    4.477755   -3.543933
     60          1           0      -37.430367    4.285597   -1.865696
     61          1           0      -36.566159    5.900672   -1.539620
     62          1           0      -37.870477    5.313499   -0.547023
     63          1           0      -34.845782    1.739778    4.182642
     64          1           0      -32.307616    0.800951    5.480741
     65          1           0      -32.643792    3.013377    5.580608
     66          1           0      -34.395561    3.284764    5.543289
     67          1           0      -33.370893    3.914091    4.182509
     68          1           0      -34.682961   -0.047354    5.835330
     69          1           0      -33.250529   -1.008416    6.180003
     70          1           0      -35.452984   -1.858948    4.746470
     71          1           0      -33.891194   -2.677855    4.827030
     72          1           0      -34.177115   -1.486343    3.551450
     73          1           0      -29.440118   -2.998255    4.547736
     74          1           0      -27.846859   -2.967901    3.709626
     75          1           0      -28.966923   -4.315654    3.438365
     76          1           0      -28.830559   -3.891711   -1.751110
     77          1           0      -24.986746   -3.654614   -3.696090
     78          1           0      -24.857058   -2.353801   -2.457312
     79          1           0      -25.579117   -2.131092   -4.064284
     80         12           0       32.037772    0.503010   -0.407012
     81          6           0       29.464644   -1.788536   -0.167721
     82          6           0       29.696754    3.014015   -0.152422
     83          6           0       34.605768    2.754854   -0.041228
     84          6           0       34.325845   -2.065556   -0.542577
     85          7           0       29.881342    0.602120    0.012050
     86          6           0       29.039286   -0.492292   -0.004912
     87          6           0       27.576687   -0.087299    0.158171
     88          6           0       27.648327    1.447813   -0.183039
     89          6           0       29.142406    1.706792   -0.055576
     90          6           0       26.978078    1.927338   -1.549440
     91          6           0       26.906980   -0.437759    1.525143
     92          6           0       25.522082   -1.044231    1.442591
     93          1           0       24.449294   -0.095577    1.954437
     94          7           0       32.097868    2.560701   -0.123630
     95          6           0       31.057722    3.400586   -0.074866
     96          6           0       31.510646    4.777850    0.015821
     97          6           0       32.893995    4.826345    0.060038
     98          6           0       33.281656    3.351142    0.017213
     99          6           0       30.497206    6.012035    0.149218
    100          6           0       33.795201    6.107047    0.071100
    101          8           0       33.237282    7.239279    0.129291
    102          6           0       35.273716    6.025824    0.066854
    103          7           0       34.240742    0.355964   -0.055026
    104          6           0       35.049787    1.388640   -0.113363
    105          6           0       36.489947    0.993726   -0.365192
    106          6           0       36.515366   -0.570149   -0.450207
    107          6           0       34.932112   -0.822710   -0.426027
    108          6           0       37.349941    1.790856   -1.397276
    109          6           0       37.251483   -1.409388    0.634078
    110          6           0       37.536311   -2.829474    0.190662
    111          7           0       31.929202   -1.559838   -0.352320
    112          6           0       32.962229   -2.513368   -0.504949
    113          6           0       32.353814   -3.813713   -0.578369
    114          6           0       30.956330   -3.603848   -0.485023
    115          6           0       30.802606   -2.231350   -0.310109
    116          6           0       33.043068   -5.116743   -0.955026
    117          6           0       29.753258   -4.275407   -0.512183
    118          8           0       29.414709   -5.427497   -0.523971
    119          6           0       28.681269   -3.120486   -0.151926
    120          6           0       28.376541   -3.352158    1.327269
    121          8           0       29.069091   -2.991725    2.259493
    122          8           0       27.186331   -4.059313    1.382925
    123          6           0       26.759988   -4.485944    2.711781
    124          1           0       29.002990    3.847981   -0.276210
    125          1           0       35.371884    3.525317    0.065022
    126          1           0       34.917512   -2.965929   -0.720586
    127          1           0       27.017182   -0.557227   -0.650151
    128          1           0       27.265395    1.977133    0.690236
    129          1           0       27.522802    2.850603   -1.746515
    130          1           0       25.947717    2.268917   -1.447468
    131          1           0       27.018726    1.232485   -2.388153
    132          1           0       26.864119    0.526142    2.032658
    133          1           0       27.517465   -0.973604    2.251679
    134          1           0       25.537033   -1.964134    2.027548
    135          1           0       25.236837   -1.296637    0.421113
    136          1           0       29.441316    5.743055    0.200450
    137          1           0       30.627069    6.705022   -0.682721
    138          1           0       30.596107    6.546276    1.093139
    139          1           0       35.606673    5.505079   -0.830402
    140          1           0       35.658784    5.658301    1.018129
    141          1           0       35.589587    7.042803   -0.162359
    142          1           0       37.158302    1.083081    0.491454
    143          1           0       36.709234   -0.930107   -1.460902
    144          1           0       36.782280    2.694785   -1.622393
    145          1           0       37.654336    1.204066   -2.264714
    146          1           0       38.301516    2.149534   -1.004636
    147          1           0       36.638382   -1.341911    1.532673
    148          1           0       38.152272   -0.834831    0.849623
    149          1           0       38.458249   -3.145869    0.679181
    150          1           0       37.677928   -2.964137   -0.882332
    151          1           0       36.772678   -3.489061    0.602945
    152          1           0       32.355494   -5.940620   -1.146471
    153          1           0       33.739835   -5.363201   -0.154903
    154          1           0       33.646952   -4.998911   -1.854842
    155          1           0       27.839645   -3.128851   -0.845215
    156          1           0       27.471911   -5.211354    3.105887
    157          1           0       25.743263   -4.877302    2.705272
    158          1           0       26.802346   -3.638220    3.395064
 ---------------------------------------------------------------------

 SCF Done:  E(RCAM-B3LYP) =  -4069.83267935     A.U. after   18 cycles

 Excitation energies and oscillator strengths:

 Excited State   1:      Singlet-A      1.7199 eV  720.87 nm  f=0.4163  <S**2>=0.000
     310 -> 316       -0.17812
     312 -> 313        0.68656
     310 <- 316       -0.10694
 This state for optimization and/or second-order correction.
 Total Energy, E(TD-HF/TD-DFT) =  -4069.76947287
 Copying the excited state density for this state as the 1-particle RhoCI density.

 Excited State   2:      Singlet-A      1.8652 eV  664.73 nm  f=0.3718  <S**2>=0.000
     309 -> 315        0.14288
     311 -> 314        0.68808

 Excited State   3:      Singlet-A      2.1905 eV  566.01 nm  f=0.1754  <S**2>=0.000
     310 -> 313        0.66248
     312 -> 316        0.23744

 Excited State   4:      Singlet-A      2.2638 eV  547.69 nm  f=0.1277  <S**2>=0.000
     309 -> 314        0.64669
     311 -> 315       -0.24687
     311 -> 317       -0.10356

 Excited State   5:      Singlet-A      3.2247 eV  384.48 nm  f=0.0000  <S**2>=0.000
     311 -> 313        0.70710

 The electronic state is 1-A.
 Alpha  occ. eigenvalues --  -46.89394 -46.89111 -19.25084 -19.24512 -19.20217
 Alpha  occ. eigenvalues --  -19.19867 -19.18878 -19.18603 -19.18538 -19.17712
 Alpha  occ. eigenvalues --  -14.42305 -14.42139 -14.42042 -14.41547 -14.40545
 Alpha  occ. eigenvalues --  -14.39584 -14.39506 -14.38482 -10.39082 -10.38948
 Alpha  occ. eigenvalues --  -10.37023 -10.35367 -10.34531 -10.33393 -10.33069
 Alpha  occ. eigenvalues --  -10.32411 -10.31713 -10.31632 -10.31138 -10.31079
 Alpha  occ. eigenvalues --  -10.31073 -10.30881 -10.30432 -10.30348 -10.30133
 Alpha  occ. eigenvalues --  -10.30078 -10.30056 -10.29887 -10.29796 -10.29788
 Alpha  occ. eigenvalues --  -10.29158 -10.29014 -10.28584 -10.28460 -10.28407
 Alpha  occ. eigenvalues --  -10.28383 -10.28363 -10.28339 -10.28290 -10.28279
 Alpha  occ. eigenvalues --  -10.28057 -10.28052 -10.28011 -10.28006 -10.27979
 Alpha  occ. eigenvalues --  -10.27687 -10.27509 -10.27504 -10.27463 -10.27416
 Alpha  occ. eigenvalues --  -10.27319 -10.27226 -10.27183 -10.27146 -10.26948
 Alpha  occ. eigenvalues --  -10.26931 -10.26917 -10.26913 -10.26871 -10.26851
 Alpha  occ. eigenvalues --  -10.26775 -10.26750 -10.26610 -10.26437 -10.26423
 Alpha  occ. eigenvalues --  -10.26236 -10.26183 -10.26071 -10.25935 -10.25796
 Alpha  occ. eigenvalues --  -10.25716 -10.25288 -10.25211 -10.25044 -10.24626
 Alpha  occ. eigenvalues --  -10.23095  -3.17833  -3.17720  -1.92716  -1.92603
 Alpha  occ. eigenvalues --   -1.92294  -1.92136  -1.92136  -1.92070  -1.15867
 Alpha  occ. eigenvalues --   -1.15455  -1.09896  -1.09794  -1.09463  -1.09138
 Alpha  occ. eigenvalues --   -1.07899  -1.05862  -1.05380  -1.04647  -1.04579
 Alpha  occ. eigenvalues --   -1.04159  -1.03834  -1.03485  -1.03186  -1.02542
 Alpha  occ. eigenvalues --   -0.92620  -0.91555  -0.89175  -0.89027  -0.88489
 Alpha  occ. eigenvalues --   -0.88262  -0.88207  -0.87962  -0.87788  -0.87424
 Alpha  occ. eigenvalues --   -0.87051  -0.86626  -0.86428  -0.85819  -0.84499
 Alpha  occ. eigenvalues --   -0.84291  -0.83772  -0.83628  -0.83200  -0.82689
 Alpha  occ. eigenvalues --   -0.82053  -0.81847  -0.81173  -0.80701  -0.80329
 Alpha  occ. eigenvalues --   -0.80213  -0.78396  -0.77637  -0.77485  -0.77156
 Alpha  occ. eigenvalues --   -0.77106  -0.76734  -0.76258  -0.75500  -0.75324
 Alpha  occ. eigenvalues --   -0.75136  -0.73548  -0.72387  -0.71688  -0.71552
 Alpha  occ. eigenvalues --   -0.69718  -0.69640  -0.69220  -0.69109  -0.68136
 Alpha  occ. eigenvalues --   -0.67899  -0.67349  -0.67136  -0.65641  -0.65607
 Alpha  occ. eigenvalues --   -0.65473  -0.65128  -0.64776  -0.64672  -0.64217
 Alpha  occ. eigenvalues --   -0.64036  -0.62251  -0.61697  -0.60186  -0.59965
 Alpha  occ. eigenvalues --   -0.59841  -0.59467  -0.59075  -0.59021  -0.58456
 Alpha  occ. eigenvalues --   -0.58302  -0.57919  -0.57835  -0.57384  -0.57299
 Alpha  occ. eigenvalues --   -0.56432  -0.56250  -0.55483  -0.55413  -0.55035
 Alpha  occ. eigenvalues --   -0.54988  -0.54885  -0.54178  -0.54082  -0.53919
 Alpha  occ. eigenvalues --   -0.53724  -0.53329  -0.53309  -0.53153  -0.53137
 Alpha  occ. eigenvalues --   -0.52796  -0.52710  -0.52602  -0.52229  -0.52090
 Alpha  occ. eigenvalues --   -0.52004  -0.51583  -0.51443  -0.51023  -0.50796
 Alpha  occ. eigenvalues --   -0.50764  -0.50572  -0.50523  -0.50278  -0.50149
 Alpha  occ. eigenvalues --   -0.50002  -0.49849  -0.49806  -0.49546  -0.49446
 Alpha  occ. eigenvalues --   -0.49238  -0.49099  -0.49022  -0.48804  -0.48768
 Alpha  occ. eigenvalues --   -0.48700  -0.48570  -0.48534  -0.48220  -0.48213
 Alpha  occ. eigenvalues --   -0.47831  -0.47578  -0.47553  -0.47357  -0.47172
 Alpha  occ. eigenvalues --   -0.47151  -0.46862  -0.46541  -0.46528  -0.46182
 Alpha  occ. eigenvalues --   -0.46174  -0.46127  -0.45965  -0.45954  -0.45894
 Alpha  occ. eigenvalues --   -0.45322  -0.45212  -0.45185  -0.45039  -0.44996
 Alpha  occ. eigenvalues --   -0.44874  -0.44659  -0.44493  -0.44272  -0.43949
 Alpha  occ. eigenvalues --   -0.43937  -0.43932  -0.43632  -0.43581  -0.43404
 Alpha  occ. eigenvalues --   -0.43378  -0.43219  -0.43078  -0.42971  -0.42701
 Alpha  occ. eigenvalues --   -0.42548  -0.42469  -0.42235  -0.42171  -0.42032
 Alpha  occ. eigenvalues --   -0.41888  -0.41832  -0.41596  -0.41526  -0.41326
 Alpha  occ. eigenvalues --   -0.41119  -0.40765  -0.40629  -0.40403  -0.40149
 Alpha  occ. eigenvalues --   -0.39996  -0.39857  -0.39842  -0.39530  -0.39264
 Alpha  occ. eigenvalues --   -0.38967  -0.38518  -0.38240  -0.38052  -0.37349
 Alpha  occ. eigenvalues --   -0.37330  -0.36615  -0.36479  -0.36320  -0.36036
 Alpha  occ. eigenvalues --   -0.35678  -0.35328  -0.34561  -0.34413  -0.34281
 Alpha  occ. eigenvalues --   -0.33447  -0.33072  -0.32888  -0.32435  -0.31874
 Alpha  occ. eigenvalues --   -0.31341  -0.31226  -0.30896  -0.30850  -0.30424
 Alpha  occ. eigenvalues --   -0.30100  -0.29653  -0.29094  -0.24060  -0.23841
 Alpha  occ. eigenvalues --   -0.21478  -0.21472
 Alpha virt. eigenvalues --   -0.09091  -0.08443  -0.01784  -0.01198   0.00123
 Alpha virt. eigenvalues --    0.00221   0.01816   0.01839   0.02001   0.02469
 Alpha virt. eigenvalues --    0.04753   0.05182   0.05842   0.06145   0.06393

 Mulliken charges:
               1
     1  Mg  11.997843
     2  C    6.025484
     3  C    5.985698
     4  C    5.968725
     5  C    6.000767
     6  N    7.006110
     7  C    5.968167
     8  C    6.010468
     9  C    5.986035
    10  C    6.034487
    11  C    5.995546
    12  C    6.005183
    13  C    6.000242
    14  H    0.992615
    15  N    6.993255
    16  C    6.045044
    17  C    6.019066
    18  C    6.019994
    19  C    6.040374
    20  C    5.994046
    21  C    6.012223
    22  O    8.031988
    23  C    5.992385
    24  N    6.984496
    25  C    6.042102
    26  C    5.988674
    27  C    6.011088
    28  C    5.977909
    29  C    6.000259
    30  C    6.003082
    31  C    6.005133
    32  N    7.002949
    33  C    5.965344
    34  C    5.970075
    35  C    5.997368
    36  C    5.967918
    37  C    6.002848
    38  C    5.985761
    39  O    7.967900
    40  C    5.990257
    41  C    5.996980
    42  O    7.994358
    43  O    7.997633
    44  C    6.003730
    45  H    1.013188
    46  H    1.001309
    47  H    0.986584
    48  H    1.001912
    49  H    1.002713
    50  H    1.003608
    51  H    1.015294
    52  H    0.997515
    53  H    0.987427
    54  H    1.004788
    55  H    0.998159
    56  H    1.005924
    57  H    1.018120
    58  H    1.017809
    59  H    1.023488
    60  H    1.007201
    61  H    1.010558
    62  H    1.015498
    63  H    0.997214
    64  H    0.996997
    65  H    1.010388
    66  H    1.002492
    67  H    0.994275
    68  H    0.987719
    69  H    1.000965
    70  H    0.989786
    71  H    1.003282
    72  H    0.998904
    73  H    0.981883
    74  H    0.980802
    75  H    0.981751
    76  H    0.993668
    77  H    0.995645
    78  H    0.999020
    79  H    0.992502
    80  Mg  11.999995
    81  C    6.000008
    82  C    6.000055
    83  C    5.999987
    84  C    5.999965
    85  N    6.999999
    86  C    6.000006
    87  C    6.000004
    88  C    6.000003
    89  C    5.999955
    90  C    6.000002
    91  C    5.999998
    92  C    5.999985
    93  H    1.000037
    94  N    7.000001
    95  C    5.999944
    96  C    5.999999
    97  C    5.999957
    98  C    5.999984
    99  C    5.999998
   100  C    6.000001
   101  O    7.999972
   102  C    6.000003
   103  N    7.000012
   104  C    5.999968
   105  C    6.000012
   106  C    5.999995
   107  C    6.000022
   108  C    6.000002
   109  C    5.999994
   110  C    5.999996
   111  N    7.000006
   112  C    6.000059
   113  C    6.000018
   114  C    6.000037
   115  C    6.000011
   116  C    5.999993
   117  C    5.999997
   118  O    8.000049
   119  C    6.000009
   120  C    6.000004
   121  O    8.000000
   122  O    8.000007
   123  C    5.999992
   124  H    1.000003
   125  H    0.999974
   126  H    0.999997
   127  H    1.000009
   128  H    1.000009
   129  H    0.999989
   130  H    1.000013
   131  H    0.999993
   132  H    1.000005
   133  H    0.999999
   134  H    1.000011
   135  H    1.000006
   136  H    0.999998
   137  H    0.999978
   138  H    0.999986
   139  H    0.999991
   140  H    0.999995
   141  H    0.999973
   142  H    0.999983
   143  H    0.999988
   144  H    0.999998
   145  H    0.999983
   146  H    0.999984
   147  H    1.000010
   148  H    0.999993
   149  H    0.999993
   150  H    0.999996
   151  H    1.000007
   152  H    1.000023
   153  H    1.000010
   154  H    1.000003
   155  H    1.000022
   156  H    1.000000
   157  H    1.000034
   158  H    1.000005
 Sum of Mulliken charges = 624.00000

 Dipole moment (field-independent basis, Debye):
    X=             -6.9141    Y=              7.7310    Z=             -4.4793  Tot=             11.2977
 Quadrupole moment (field-independent basis, Debye-Ang):
   XX=            441.2328   YY=              5.3303   ZZ=             -3.6802
   XY=           -251.1846   XZ=            143.8745   YZ=              0.2651

 Normal termination of Gaussian 16 at Thu Sep 23 14:08:38 2021.
