 Gaussian 16, Revision A.03,
 Gaussian 16:  ES64L-G16RevA.03 25-Dec-2016

 -----------------------------------
 #p cam-b3lyp/Def2SVP td=(nstates=5)
 -----------------------------------

 --------------------------------
 TDDFT excited states in gaussian
 --------------------------------
 Symbolic Z-matrix:
 Charge =  0 Multiplicity = 1

                         Standard orientation:
 ---------------------------------------------------------------------
 Center     Atomic      Atomic             Coordinates (Angstroms)
 Number     Number       Type             X           Y           Z
 ---------------------------------------------------------------------
      1         12           0      -17.098400    0.655878    0.099013
      2          6           0      -15.576159   -2.345734   -1.136332
      3          6           0      -14.924512    2.437056   -1.899275
      4          6           0      -18.066506    3.336917    1.695888
      5          6           0      -19.014254   -1.361327    2.165609
      6          7           0      -15.198136    0.088696   -1.186518
      7          6           0      -14.922362   -1.191129   -1.585409
      8          6           0      -13.938404   -1.158524   -2.785477
      9          6           0      -13.670488    0.389269   -3.004265
     10          6           0      -14.629194    1.072197   -1.961933
     11          6           0      -12.187411    0.919607   -2.813422
     12          6           0      -14.456060   -1.835551   -4.082580
     13          6           0      -13.521669   -2.727012   -4.820326
     14          1           0      -11.956849   -2.694817   -4.631932
     15          7           0      -16.567969    2.683657   -0.050173
     16          6           0      -15.754363    3.268248   -1.020377
     17          6           0      -15.678512    4.719663   -0.765937
     18          6           0      -16.699033    4.991678    0.224295
     19          6           0      -17.153614    3.656299    0.676616
     20          6           0      -14.781608    5.693008   -1.469058
     21          6           0      -17.236189    6.328107    0.788443
     22          8           0      -18.313720    6.463236    1.405661
     23          6           0      -16.508389    7.560090    0.427059
     24          7           0      -18.278422    0.903724    1.690642
     25          6           0      -18.467766    2.166602    2.207400
     26          6           0      -19.601922    2.173962    3.269507
     27          6           0      -20.149357    0.684742    3.130115
     28          6           0      -19.097115    0.018387    2.260813
     29          6           0      -19.232905    2.576318    4.755510
     30          6           0      -21.538005    0.511134    2.535672
     31          6           0      -22.606547   -0.060070    3.491190
     32          7           0      -17.428287   -1.418565    0.337156
     33          6           0      -18.220141   -2.083754    1.243042
     34          6           0      -18.020893   -3.533261    1.114580
     35          6           0      -17.035654   -3.651368    0.150356
     36          6           0      -16.703078   -2.351742   -0.292658
     37          6           0      -18.653430   -4.643683    1.886700
     38          6           0      -16.297920   -4.632171   -0.561317
     39          8           0      -16.372756   -5.893529   -0.591310
     40          6           0      -15.352387   -3.870096   -1.389555
     41          6           0      -13.948052   -4.357499   -1.155707
     42          8           0      -13.317652   -4.184448   -0.169156
     43          8           0      -13.486810   -4.956399   -2.253451
     44          6           0      -12.314016   -5.759171   -2.172108
     45          1           0      -14.266684    3.077901   -2.490339
     46          1           0      -18.512315    4.142037    2.285169
     47          1           0      -19.564277   -1.982829    2.874154
     48          1           0      -13.041289   -1.678427   -2.447308
     49          1           0      -13.995241    0.684243   -4.001623
     50          1           0      -11.427611    0.147867   -2.693257
     51          1           0      -12.172377    1.473018   -1.873350
     52          1           0      -11.920145    1.602118   -3.620745
     53          1           0      -14.763781   -1.115968   -4.842168
     54          1           0      -15.318346   -2.478193   -3.907231
     55          1           0      -13.592307   -2.528097   -5.890121
     56          1           0      -13.842555   -3.752046   -4.636825
     57          1           0      -14.198715    6.244822   -0.731925
     58          1           0      -15.437736    6.390012   -1.990393
     59          1           0      -14.229719    5.216710   -2.280063
     60          1           0      -15.506975    7.484771    0.850965
     61          1           0      -17.019946    8.362100    0.958664
     62          1           0      -16.588495    7.787171   -0.635663
     63          1           0      -20.358232    2.855226    2.878360
     64          1           0      -20.162855    0.261717    4.134540
     65          1           0      -18.172579    2.816111    4.826418
     66          1           0      -19.563469    1.843513    5.492597
     67          1           0      -19.827382    3.455253    5.005360
     68          1           0      -21.597803    0.001852    1.573718
     69          1           0      -21.898408    1.510015    2.292074
     70          1           0      -23.266601   -0.829613    3.091397
     71          1           0      -23.340079    0.732033    3.643922
     72          1           0      -22.229036   -0.462771    4.430122
     73          1           0      -19.561746   -4.331373    2.402790
     74          1           0      -18.015080   -4.926904    2.723472
     75          1           0      -18.719232   -5.492755    1.206484
     76          1           0      -15.642616   -4.061260   -2.422335
     77          1           0      -12.610951   -6.679146   -1.666573
     78          1           0      -11.577107   -5.307151   -1.508056
     79          1           0      -11.952962   -6.031269   -3.164282
     80         12           0       16.885557    0.608425   -0.219082
     81          6           0       15.544620   -2.578384    0.391179
     82          6           0       14.195585    1.263481   -2.188165
     83          6           0       18.026121    3.671310   -0.338418
     84          6           0       19.084117   -0.104292    2.542217
     85          7           0       15.151263   -0.558100   -0.854553
     86          6           0       14.787081   -1.819575   -0.476551
     87          6           0       13.335310   -2.053215   -0.920533
     88          6           0       13.220466   -1.117688   -2.118986
     89          6           0       14.189859   -0.023041   -1.633224
     90          6           0       13.702717   -1.766114   -3.437173
     91          6           0       12.318681   -1.688519    0.223730
     92          6           0       11.456900   -2.872435    0.886203
     93          1           0       11.612055   -3.158595    2.389568
     94          7           0       16.178062    2.258758   -1.087784
     95          6           0       15.058359    2.330124   -1.884331
     96          6           0       15.009260    3.634338   -2.467470
     97          6           0       16.172242    4.372691   -2.068607
     98          6           0       16.866672    3.456897   -1.117730
     99          6           0       13.859975    4.107482   -3.422030
    100          6           0       16.551311    5.805386   -2.592325
    101          8           0       15.901928    6.319130   -3.450502
    102          6           0       17.848098    6.356390   -2.218097
    103          7           0       18.139281    1.738881    1.157632
    104          6           0       18.682639    2.842237    0.590751
    105          6           0       20.075773    3.157694    1.109006
    106          6           0       20.241238    2.188752    2.269779
    107          6           0       19.066860    1.187247    1.991811
    108          6           0       21.193348    2.973418    0.016790
    109          6           0       20.225652    2.744242    3.771225
    110          6           0       21.473084    2.807418    4.611163
    111          7           0       17.405390   -1.027163    1.042081
    112          6           0       18.304407   -1.176357    2.105929
    113          6           0       18.198845   -2.484678    2.714840
    114          6           0       17.148515   -3.067368    2.049215
    115          6           0       16.653495   -2.166383    1.049725
    116          6           0       19.007073   -2.970128    3.845336
    117          6           0       16.339784   -4.274244    1.971107
    118          8           0       16.463273   -5.346428    2.576012
    119          6           0       15.357208   -4.053506    0.840341
    120          6           0       15.645290   -5.109116   -0.221611
    121          8           0       16.754139   -5.190736   -0.745037
    122          8           0       14.563255   -5.988247   -0.383706
    123          6           0       14.780351   -7.032837   -1.348599
    124          1           0       13.406653    1.383937   -2.933082
    125          1           0       18.547797    4.576537   -0.652893
    126          1           0       19.828162   -0.350553    3.302887
    127          1           0       13.223408   -3.127354   -1.070301
    128          1           0       12.181838   -0.799457   -2.199778
    129          1           0       12.842695   -1.523456   -4.060360
    130          1           0       13.794778   -2.827301   -3.204156
    131          1           0       14.638249   -1.394754   -3.855642
    132          1           0       11.581973   -1.009338   -0.205132
    133          1           0       12.858913   -1.109415    0.972237
    134          1           0       11.806839   -3.784799    0.402665
    135          1           0       10.387263   -2.823053    0.685913
    136          1           0       13.378483    5.061467   -3.209370
    137          1           0       13.101009    3.325904   -3.374412
    138          1           0       14.177752    4.172212   -4.462823
    139          1           0       18.003475    6.451820   -1.143236
    140          1           0       17.948091    7.339763   -2.677453
    141          1           0       18.644493    5.829675   -2.742068
    142          1           0       20.184948    4.200190    1.409839
    143          1           0       21.153766    1.605291    2.147327
    144          1           0       21.494470    3.908873   -0.454440
    145          1           0       20.897770    2.186768   -0.677396
    146          1           0       22.078507    2.593718    0.529124
    147          1           0       19.417352    2.424036    4.427777
    148          1           0       19.972788    3.768360    3.495447
    149          1           0       21.792486    3.823768    4.839456
    150          1           0       22.294382    2.324690    4.080948
    151          1           0       21.215379    2.258182    5.516426
    152          1           0       19.342508   -2.100117    4.410494
    153          1           0       19.885296   -3.434711    3.396122
    154          1           0       18.468504   -3.714467    4.430067
    155          1           0       14.400682   -4.260223    1.318457
    156          1           0       14.699224   -6.714635   -2.388301
    157          1           0       14.073619   -7.851849   -1.217997
    158          1           0       15.750372   -7.522971   -1.269898
 ---------------------------------------------------------------------

 SCF Done:  E(RCAM-B3LYP) =  -4069.81205758     A.U. after   17 cycles

 Excitation energies and oscillator strengths:

 Excited State   1:      Singlet-A      1.7198 eV  720.93 nm  f=0.2845  <S**2>=0.000
     310 -> 316        0.17192
     311 -> 313        0.66984
     312 -> 314       -0.15198
     310 <- 316        0.10332
 This state for optimization and/or second-order correction.
 Total Energy, E(TD-HF/TD-DFT) =  -4069.74885657
 Copying the excited state density for this state as the 1-particle RhoCI density.

 Excited State   2:      Singlet-A      1.7239 eV  719.20 nm  f=0.4970  <S**2>=0.000
     309 -> 315        0.18696
     311 -> 313        0.15276
     312 -> 314        0.66592
     309 <- 315        0.10838

 Excited State   3:      Singlet-A      2.2103 eV  560.94 nm  f=0.1295  <S**2>=0.000
     310 -> 313        0.65015
     311 -> 316       -0.26633

 Excited State   4:      Singlet-A      2.2830 eV  543.07 nm  f=0.0524  <S**2>=0.000
     309 -> 314        0.60481
     312 -> 315       -0.35602

 Excited State   5:      Singlet-A      3.0062 eV  412.42 nm  f=0.0000  <S**2>=0.000
     312 -> 313        0.70710

 The electronic state is 1-A.
 Alpha  occ. eigenvalues --  -46.88915 -46.88702 -19.26037 -19.25007 -19.20593
 Alpha  occ. eigenvalues --  -19.19659 -19.19109 -19.19030 -19.18774 -19.18551
 Alpha  occ. eigenvalues --  -14.42152 -14.42093 -14.42060 -14.41624 -14.39700
 Alpha  occ. eigenvalues --  -14.39563 -14.39400 -14.39364 -10.40263 -10.39052
 Alpha  occ. eigenvalues --  -10.35072 -10.34963 -10.34713 -10.34579 -10.31705
 Alpha  occ. eigenvalues --  -10.31519 -10.31512 -10.31150 -10.31143 -10.31032
 Alpha  occ. eigenvalues --  -10.30960 -10.30850 -10.30671 -10.30566 -10.30553
 Alpha  occ. eigenvalues --  -10.30162 -10.29808 -10.29703 -10.29554 -10.29553
 Alpha  occ. eigenvalues --  -10.29304 -10.29301 -10.28762 -10.28754 -10.28630
 Alpha  occ. eigenvalues --  -10.28424 -10.28391 -10.28373 -10.28271 -10.28202
 Alpha  occ. eigenvalues --  -10.28177 -10.28103 -10.28092 -10.27903 -10.27891
 Alpha  occ. eigenvalues --  -10.27834 -10.27830 -10.27569 -10.27558 -10.27518
 Alpha  occ. eigenvalues --  -10.27269 -10.27191 -10.27058 -10.27000 -10.26944
 Alpha  occ. eigenvalues --  -10.26914 -10.26890 -10.26880 -10.26867 -10.26773
 Alpha  occ. eigenvalues --  -10.26736 -10.26475 -10.26449 -10.26246 -10.26245
 Alpha  occ. eigenvalues --  -10.26210 -10.26018 -10.25922 -10.25897 -10.25708
 Alpha  occ. eigenvalues --  -10.25583 -10.25527 -10.25452 -10.25196 -10.25187
 Alpha  occ. eigenvalues --  -10.25151  -3.17493  -3.17312  -1.92375  -1.92186
 Alpha  occ. eigenvalues --   -1.91963  -1.91792  -1.91783  -1.91611  -1.18625
 Alpha  occ. eigenvalues --   -1.15978  -1.11927  -1.09715  -1.09118  -1.08311
 Alpha  occ. eigenvalues --   -1.08235  -1.08088  -1.04836  -1.04798  -1.04291
 Alpha  occ. eigenvalues --   -1.03775  -1.02874  -1.02536  -1.02090  -1.01789
 Alpha  occ. eigenvalues --   -0.93577  -0.93061  -0.89167  -0.89133  -0.88987
 Alpha  occ. eigenvalues --   -0.88551  -0.88523  -0.88375  -0.87744  -0.87628
 Alpha  occ. eigenvalues --   -0.87122  -0.86886  -0.86292  -0.85015  -0.84624
 Alpha  occ. eigenvalues --   -0.84560  -0.84252  -0.83532  -0.82629  -0.82602
 Alpha  occ. eigenvalues --   -0.82537  -0.82065  -0.81722  -0.81052  -0.80871
 Alpha  occ. eigenvalues --   -0.80512  -0.78307  -0.78018  -0.77716  -0.77242
 Alpha  occ. eigenvalues --   -0.77164  -0.76415  -0.76364  -0.76328  -0.75206
 Alpha  occ. eigenvalues --   -0.75123  -0.73180  -0.72903  -0.72139  -0.71497
 Alpha  occ. eigenvalues --   -0.69406  -0.69045  -0.68979  -0.68633  -0.68170
 Alpha  occ. eigenvalues --   -0.67499  -0.66792  -0.66257  -0.65926  -0.65886
 Alpha  occ. eigenvalues --   -0.65614  -0.64924  -0.64882  -0.64855  -0.64479
 Alpha  occ. eigenvalues --   -0.64471  -0.63037  -0.62735  -0.60339  -0.60265
 Alpha  occ. eigenvalues --   -0.60064  -0.59868  -0.59341  -0.59144  -0.59134
 Alpha  occ. eigenvalues --   -0.58904  -0.58514  -0.58217  -0.57762  -0.57696
 Alpha  occ. eigenvalues --   -0.56500  -0.56255  -0.56115  -0.56089  -0.55304
 Alpha  occ. eigenvalues --   -0.55184  -0.54989  -0.54920  -0.53965  -0.53759
 Alpha  occ. eigenvalues --   -0.53555  -0.53437  -0.53256  -0.53213  -0.53023
 Alpha  occ. eigenvalues --   -0.53013  -0.52801  -0.52799  -0.52695  -0.52412
 Alpha  occ. eigenvalues --   -0.52205  -0.51761  -0.51658  -0.51586  -0.51492
 Alpha  occ. eigenvalues --   -0.51121  -0.51028  -0.50907  -0.50474  -0.50157
 Alpha  occ. eigenvalues --   -0.50084  -0.50041  -0.49887  -0.49842  -0.49660
 Alpha  occ. eigenvalues --   -0.49313  -0.49260  -0.49097  -0.49095  -0.48760
 Alpha  occ. eigenvalues --   -0.48696  -0.48583  -0.48351  -0.48337  -0.48242
 Alpha  occ. eigenvalues --   -0.48105  -0.47713  -0.47531  -0.47420  -0.47140
 Alpha  occ. eigenvalues --   -0.46916  -0.46783  -0.46607  -0.46361  -0.46307
 Alpha  occ. eigenvalues --   -0.46219  -0.46150  -0.46119  -0.46056  -0.45984
 Alpha  occ. eigenvalues --   -0.45811  -0.45443  -0.45354  -0.45287  -0.44792
 Alpha  occ. eigenvalues --   -0.44546  -0.44455  -0.44454  -0.44321  -0.44169
 Alpha  occ. eigenvalues --   -0.43870  -0.43648  -0.43575  -0.43446  -0.43311
 Alpha  occ. eigenvalues --   -0.43079  -0.43038  -0.42690  -0.42615  -0.42591
 Alpha  occ. eigenvalues --   -0.42420  -0.42158  -0.42150  -0.41983  -0.41865
 Alpha  occ. eigenvalues --   -0.41743  -0.41631  -0.41608  -0.41438  -0.41176
 Alpha  occ. eigenvalues --   -0.41092  -0.40971  -0.40883  -0.40733  -0.40387
 Alpha  occ. eigenvalues --   -0.40273  -0.40088  -0.40048  -0.39688  -0.39130
 Alpha  occ. eigenvalues --   -0.38981  -0.38190  -0.38004  -0.37915  -0.37477
 Alpha  occ. eigenvalues --   -0.37155  -0.36953  -0.36699  -0.36539  -0.36535
 Alpha  occ. eigenvalues --   -0.36272  -0.35854  -0.34859  -0.34725  -0.34685
 Alpha  occ. eigenvalues --   -0.34130  -0.33496  -0.32910  -0.31602  -0.31445
 Alpha  occ. eigenvalues --   -0.31421  -0.31227  -0.30959  -0.30765  -0.30603
 Alpha  occ. eigenvalues --   -0.30161  -0.29667  -0.29486  -0.24407  -0.24119
 Alpha  occ. eigenvalues --   -0.21310  -0.21008
 Alpha virt. eigenvalues --   -0.08941  -0.08333  -0.02241  -0.01477  -0.00194
 Alpha virt. eigenvalues --    0.00485   0.01813   0.01925   0.02357   0.02726
 Alpha virt. eigenvalues --    0.04189   0.05001   0.05265   0.05864   0.06112

 Mulliken charges:
               1
     1  Mg   0.831080
     2  C   -0.003485
     3  C   -0.022632
     4  C   -0.061379
     5  C   -0.094144
     6  N   -0.252759
     7  C   -0.054209
     8  C    0.021057
     9  C   -0.061041
    10  C    0.018217
    11  C    0.057383
    12  C    0.048945
    13  C   -0.081490
    14  H    0.000581
    15  N   -0.364185
    16  C    0.090946
    17  C   -0.170515
    18  C   -0.041451
    19  C    0.129256
    20  C    0.140610
    21  C    0.009630
    22  O   -0.229732
    23  C    0.054890
    24  N   -0.351650
    25  C    0.076912
    26  C   -0.074941
    27  C   -0.035828
    28  C    0.084612
    29  C    0.075263
    30  C    0.058354
    31  C   -0.010538
    32  N   -0.321550
    33  C    0.100457
    34  C   -0.161321
    35  C   -0.007600
    36  C    0.104583
    37  C    0.130294
    38  C    0.044983
    39  O   -0.216250
    40  C    0.039325
    41  C    0.154810
    42  O   -0.173631
    43  O   -0.300083
    44  C    0.179701
    45  H   -0.038465
    46  H   -0.005584
    47  H   -0.029176
    48  H    0.021583
    49  H    0.016303
    50  H    0.019293
    51  H    0.019378
    52  H    0.018310
    53  H    0.008907
    54  H    0.007785
    55  H    0.022199
    56  H    0.037186
    57  H    0.036398
    58  H    0.019937
    59  H    0.011621
    60  H    0.032316
    61  H    0.020484
    62  H    0.045029
    63  H    0.021384
    64  H    0.000795
    65  H    0.029712
    66  H    0.014105
    67  H    0.016460
    68  H    0.016403
    69  H   -0.002377
    70  H    0.007278
    71  H    0.010577
    72  H    0.017267
    73  H    0.008817
    74  H    0.034176
    75  H    0.049475
    76  H    0.040242
    77  H    0.029078
    78  H    0.038739
    79  H    0.042887
    80  Mg   0.819056
    81  C   -0.027526
    82  C   -0.090372
    83  C   -0.046295
    84  C   -0.087349
    85  N   -0.261364
    86  C   -0.073405
    87  C   -0.067306
    88  C   -0.064266
    89  C    0.017954
    90  C    0.108031
    91  C    0.065022
    92  C   -0.081550
    93  H    0.029472
    94  N   -0.432487
    95  C    0.196342
    96  C   -0.155259
    97  C   -0.066225
    98  C    0.129220
    99  C    0.128373
   100  C    0.011614
   101  O   -0.165259
   102  C    0.046967
   103  N   -0.260879
   104  C    0.045608
   105  C   -0.043755
   106  C   -0.029959
   107  C    0.049935
   108  C    0.066781
   109  C    0.022699
   110  C    0.021381
   111  N   -0.342445
   112  C    0.111625
   113  C   -0.193835
   114  C    0.033664
   115  C    0.152514
   116  C    0.142362
   117  C    0.016968
   118  O   -0.185106
   119  C    0.043535
   120  C    0.222870
   121  O   -0.216004
   122  O   -0.330686
   123  C    0.180774
   124  H   -0.024307
   125  H   -0.052569
   126  H   -0.027296
   127  H   -0.005468
   128  H   -0.002434
   129  H    0.020511
   130  H    0.016892
   131  H    0.032964
   132  H    0.008311
   133  H    0.031387
   134  H    0.028588
   135  H    0.035483
   136  H    0.032188
   137  H   -0.009195
   138  H    0.027775
   139  H    0.050355
   140  H    0.014656
   141  H    0.046901
   142  H    0.006560
   143  H    0.001285
   144  H    0.023826
   145  H    0.019664
   146  H    0.008321
   147  H    0.019332
   148  H   -0.007800
   149  H    0.021967
   150  H    0.005693
   151  H    0.020208
   152  H    0.016103
   153  H    0.034095
   154  H    0.041612
   155  H    0.030843
   156  H    0.024022
   157  H    0.031532
   158  H    0.036563
 Sum of Mulliken charges =  -0.00000

 Dipole moment (field-independent basis, Debye):
    X=              1.4003    Y=              3.1678    Z=             -2.8950  Tot=              4.5140
 Quadrupole moment (field-independent basis, Debye-Ang):
   XX=           -421.2042   YY=           -557.0397   ZZ=           -496.8679
   XY=             37.6386   XZ=             23.6874   YZ=             23.3800

 Normal termination of Gaussian 16 at Thu Sep  2 19:12:28 2021.
