 Gaussian 16, Revision A.03,
 Gaussian 16:  ES64L-G16RevA.03 25-Dec-2016

 ---------------------------------------------------
 #p cam-b3lyp/Def2SVP td=(nstates=5) density=(CIS=1)
 ---------------------------------------------------

 --------------------------------
 TDDFT excited states in gaussian
 --------------------------------
 Symbolic Z-matrix:
 Charge =  0 Multiplicity = 1

                         Standard orientation:
 ---------------------------------------------------------------------
 Center     Atomic      Atomic             Coordinates (Angstroms)
 Number     Number       Type             X           Y           Z
 ---------------------------------------------------------------------
      1         12           0       -0.810149    0.229305    0.233322
      2          6           0        2.736179    0.095914    0.374675
      3          6           0       -0.697267   -3.305936    0.196711
      4          6           0       -4.034848    0.196991   -0.261258
      5          6           0       -0.616819    3.693352   -0.010796
      6          7           0        0.867800   -1.451927    0.271994
      7          6           0        2.205400   -1.185983    0.433835
      8          6           0        3.044072   -2.437039    0.633372
      9          6           0        1.905229   -3.527651    0.438830
     10          6           0        0.595789   -2.730948    0.332500
     11          6           0        2.246245   -4.476033   -0.706811
     12          6           0        3.677537   -2.452345    2.041922
     13          6           0        5.122041   -3.059714    2.212311
     14          1           0        5.642791   -4.019395    1.116572
     15          7           0       -2.205483   -1.336481    0.074777
     16          6           0       -1.939095   -2.704125    0.003411
     17          6           0       -3.222129   -3.412225   -0.129758
     18          6           0       -4.221159   -2.385360   -0.164240
     19          6           0       -3.471837   -1.117819   -0.070030
     20          6           0       -3.325258   -4.835557   -0.278006
     21          6           0       -5.733650   -2.535721   -0.292759
     22          8           0       -6.467972   -1.541544   -0.407362
     23          6           0       -6.380630   -3.852023   -0.108145
     24          7           0       -2.129118    1.731442   -0.194738
     25          6           0       -3.437748    1.471310   -0.255663
     26          6           0       -4.255959    2.770509   -0.549761
     27          6           0       -3.188834    3.876627   -0.272848
     28          6           0       -1.906858    3.111515   -0.168698
     29          6           0       -4.933132    2.801875   -1.967122
     30          6           0       -3.595954    4.503881    1.114963
     31          6           0       -2.962330    3.964488    2.443475
     32          7           0        0.689957    1.647058    0.289617
     33          6           0        0.600252    3.044808    0.159415
     34          6           0        1.976140    3.600932    0.164967
     35          6           0        2.800493    2.482048    0.188659
     36          6           0        2.050427    1.330005    0.295402
     37          6           0        2.203530    4.999461   -0.155708
     38          6           0        4.205128    2.105081    0.051026
     39          8           0        5.168828    2.841580   -0.126601
     40          6           0        4.235440    0.507303    0.140524
     41          6           0        4.844402   -0.086976   -1.074270
     42          8           0        4.241432   -0.484302   -2.067085
     43          8           0        6.240723   -0.145004   -0.905144
     44          6           0        7.109969   -0.626513   -1.954850
     45          1           0       -0.773901   -4.371234    0.425870
     46          1           0       -5.115399    0.258827   -0.408889
     47          1           0       -0.689170    4.781991   -0.049535
     48          1           0        3.831604   -2.538612   -0.113787
     49          1           0        1.960065   -4.172860    1.315216
     50          1           0        2.253661   -5.532785   -0.442064
     51          1           0        3.188939   -4.289133   -1.221161
     52          1           0        1.427080   -4.398513   -1.422931
     53          1           0        3.031634   -2.969154    2.751622
     54          1           0        3.652539   -1.388082    2.278620
     55          1           0        5.166285   -3.685340    3.103165
     56          1           0        5.749020   -2.217110    2.503848
     57          1           0       -4.030998   -5.169782    0.482747
     58          1           0       -2.339366   -5.291474   -0.363598
     59          1           0       -3.704749   -4.892780   -1.298696
     60          1           0       -6.218915   -4.537588   -0.940529
     61          1           0       -7.460145   -3.717339   -0.042999
     62          1           0       -5.893972   -4.342240    0.734543
     63          1           0       -5.019947    2.644554    0.217450
     64          1           0       -3.219174    4.667465   -1.022773
     65          1           0       -5.971751    2.479693   -1.891323
     66          1           0       -4.301526    2.208563   -2.627509
     67          1           0       -4.892315    3.841311   -2.292282
     68          1           0       -4.678967    4.623573    1.150495
     69          1           0       -3.087250    5.468260    1.101577
     70          1           0       -3.815341    3.902581    3.118606
     71          1           0       -2.235934    4.651348    2.879749
     72          1           0       -2.520949    2.969566    2.396118
     73          1           0        1.644105    5.242616   -1.058146
     74          1           0        3.266499    5.094765   -0.379636
     75          1           0        2.065595    5.629839    0.722337
     76          1           0        4.884611    0.319261    0.996257
     77          1           0        7.538160    0.170777   -2.561883
     78          1           0        6.677195   -1.486339   -2.466450
     79          1           0        7.876998   -1.128159   -1.364143
 ---------------------------------------------------------------------

 SCF Done:  E(RCAM-B3LYP) =  -2034.90395887     A.U. after   17 cycles

 Excitation energies and oscillator strengths:

 Excited State   1:      Singlet-A      1.7491 eV  708.83 nm  f=0.0000  <S**2>=0.000
     155 ->158         0.18993
     156 ->157         0.68131
     155 <-158         0.10806
 This state for optimization and/or second-order correction.
 Total Energy, E(TD-HF/TD-DFT) =  -2034.83967898
 Copying the excited state density for this state as the 1-particle RhoCI density.

 Excited State   2:      Singlet-A      2.2729 eV  545.50 nm  f=0.0000  <S**2>=0.000
     155 ->157         0.62308
     156 ->158        -0.32199

 Excited State   3:      Singlet-A      3.4760 eV  356.68 nm  f=0.0000  <S**2>=0.000
     153 ->157         0.28314
     155 ->157         0.27952
     156 ->158         0.57847
     155 <-157        -0.10417

 Excited State   4:      Singlet-A      3.5244 eV  351.78 nm  f=0.0000  <S**2>=0.000
     153 ->157        -0.24550
     154 ->157         0.63884
     156 ->158         0.10353

 Excited State   5:      Singlet-A      3.6753 eV  337.35 nm  f=0.0000  <S**2>=0.000
     150 ->157         0.52405
     150 ->159        -0.31956
     150 ->160        -0.28268

 The electronic state is 1-A.
 Alpha  occ. eigenvalues --  -46.88502 -19.23978 -19.19880 -19.19316 -19.18733
 Alpha  occ. eigenvalues --  -14.42121 -14.41281 -14.39681 -14.38914 -10.39479
 Alpha  occ. eigenvalues --  -10.35372 -10.35282 -10.31182 -10.31005 -10.30766
 Alpha  occ. eigenvalues --  -10.30448 -10.30385 -10.30312 -10.30212 -10.29231
 Alpha  occ. eigenvalues --  -10.29184 -10.29025 -10.28868 -10.28232 -10.28037
 Alpha  occ. eigenvalues --  -10.27579 -10.27550 -10.27442 -10.27390 -10.27278
 Alpha  occ. eigenvalues --  -10.27236 -10.27137 -10.27039 -10.26806 -10.26502
 Alpha  occ. eigenvalues --  -10.26427 -10.26366 -10.25748 -10.25335 -10.25307
 Alpha  occ. eigenvalues --  -10.25275 -10.25091 -10.24693  -3.17045  -1.91952
 Alpha  occ. eigenvalues --   -1.91513  -1.91333  -1.14652  -1.09655  -1.09200
 Alpha  occ. eigenvalues --   -1.07243  -1.04755  -1.04037  -1.03089  -1.01370
 Alpha  occ. eigenvalues --   -0.91976  -0.89877  -0.88654  -0.88381  -0.87329
 Alpha  occ. eigenvalues --   -0.86731  -0.86179  -0.84127  -0.83294  -0.82638
 Alpha  occ. eigenvalues --   -0.81988  -0.80826  -0.80434  -0.78940  -0.77099
 Alpha  occ. eigenvalues --   -0.76849  -0.75781  -0.74773  -0.72121  -0.71296
 Alpha  occ. eigenvalues --   -0.69229  -0.68904  -0.67833  -0.66700  -0.64996
 Alpha  occ. eigenvalues --   -0.64673  -0.64453  -0.64178  -0.61527  -0.60322
 Alpha  occ. eigenvalues --   -0.59356  -0.59036  -0.58055  -0.57866  -0.57158
 Alpha  occ. eigenvalues --   -0.56270  -0.55483  -0.55323  -0.54269  -0.53948
 Alpha  occ. eigenvalues --   -0.53843  -0.53315  -0.53144  -0.52759  -0.52318
 Alpha  occ. eigenvalues --   -0.51801  -0.51491  -0.51297  -0.50754  -0.50599
 Alpha  occ. eigenvalues --   -0.49895  -0.49776  -0.49550  -0.49016  -0.48899
 Alpha  occ. eigenvalues --   -0.48516  -0.48377  -0.48071  -0.47585  -0.47353
 Alpha  occ. eigenvalues --   -0.46941  -0.46669  -0.46095  -0.45984  -0.45382
 Alpha  occ. eigenvalues --   -0.45009  -0.44604  -0.44244  -0.44223  -0.44039
 Alpha  occ. eigenvalues --   -0.43921  -0.43654  -0.43410  -0.43306  -0.42947
 Alpha  occ. eigenvalues --   -0.42544  -0.41942  -0.41684  -0.41293  -0.41011
 Alpha  occ. eigenvalues --   -0.40656  -0.40335  -0.39843  -0.39362  -0.38568
 Alpha  occ. eigenvalues --   -0.37739  -0.37414  -0.37102  -0.36626  -0.36112
 Alpha  occ. eigenvalues --   -0.35672  -0.34167  -0.34027  -0.33285  -0.31186
 Alpha  occ. eigenvalues --   -0.30951  -0.30814  -0.30145  -0.29333  -0.23870
 Alpha  occ. eigenvalues --   -0.20773
 Alpha virt. eigenvalues --   -0.08133  -0.01695   0.00247   0.02194   0.03339
 Alpha virt. eigenvalues --    0.04839   0.05098   0.05742   0.06730   0.08307
 Alpha virt. eigenvalues --    0.08745   0.08928   0.09334   0.09518   0.10623

 Mulliken charges:
               1
     1  Mg   0.811535
     2  C   -0.025979
     3  C   -0.163030
     4  C   -0.105129
     5  C   -0.089455
     6  N   -0.265370
     7  C   -0.010110
     8  C   -0.037751
     9  C   -0.029528
    10  C    0.082149
    11  C    0.064714
    12  C    0.038320
    13  C   -0.045033
    14  H    0.027936
    15  N   -0.335659
    16  C    0.152034
    17  C   -0.214002
    18  C   -0.068818
    19  C    0.135912
    20  C    0.140721
    21  C    0.002355
    22  O   -0.229579
    23  C    0.057130
    24  N   -0.379658
    25  C    0.040420
    26  C   -0.058284
    27  C    0.005838
    28  C    0.094382
    29  C    0.093432
    30  C   -0.010074
    31  C    0.015385
    32  N   -0.400849
    33  C    0.196146
    34  C   -0.163428
    35  C    0.023603
    36  C    0.188908
    37  C    0.131093
    38  C    0.029917
    39  O   -0.170341
    40  C   -0.037804
    41  C    0.231783
    42  O   -0.217247
    43  O   -0.361599
    44  C    0.187010
    45  H   -0.015293
    46  H   -0.011163
    47  H   -0.032586
    48  H    0.028294
    49  H    0.004104
    50  H    0.003116
    51  H    0.024026
    52  H    0.005200
    53  H    0.006922
    54  H    0.011388
    55  H    0.020971
    56  H    0.030061
    57  H    0.038500
    58  H    0.014288
    59  H    0.035479
    60  H    0.027873
    61  H    0.036917
    62  H    0.029553
    63  H    0.015555
    64  H    0.010470
    65  H    0.034457
    66  H    0.027731
    67  H    0.007485
    68  H    0.021325
    69  H    0.002745
    70  H    0.010348
    71  H    0.021390
    72  H    0.027665
    73  H    0.037028
    74  H    0.019090
    75  H    0.023176
    76  H    0.045653
    77  H    0.053678
    78  H    0.030207
    79  H    0.022350
 Sum of Mulliken charges =  -0.00000

 Dipole moment (field-independent basis, Debye):
    X=              0.6995    Y=             -0.5123    Z=              2.1594  Tot=              2.3270
 Quadrupole moment (field-independent basis, Debye-Ang):
   XX=           -276.6082   YY=           -223.9746   ZZ=           -256.4037
   XY=            -23.9252   XZ=              0.6236   YZ=             -2.2673

 Normal termination of Gaussian 16 at Fri Oct  8 18:46:24 2021.
