 Gaussian 16, Revision A.03,
 Gaussian 16:  ES64L-G16RevA.03 25-Dec-2016

 -----------------------------------
 #p cam-b3lyp/Def2SVP td=(nstates=5)
 -----------------------------------

 --------------------------------
 TDDFT excited states in gaussian
 --------------------------------
 Symbolic Z-matrix:
 Charge =  0 Multiplicity = 1

                         Standard orientation:
 ---------------------------------------------------------------------
 Center     Atomic      Atomic             Coordinates (Angstroms)
 Number     Number       Type             X           Y           Z
 ---------------------------------------------------------------------
      1         12           0      -20.617417   -0.508955   -0.203471
      2          6           0      -18.413280    2.046850    0.054126
      3          6           0      -23.154816    1.562774    0.951642
      4          6           0      -22.820452   -3.067210   -0.455343
      5          6           0      -18.013920   -2.688166   -0.878667
      6          7           0      -20.717279    1.534506    0.294370
      7          6           0      -19.700648    2.429651    0.375400
      8          6           0      -20.188893    3.835319    0.610166
      9          6           0      -21.648666    3.620282    1.163640
     10          6           0      -21.869195    2.129588    0.745361
     11          6           0      -21.989364    3.952374    2.676386
     12          6           0      -20.236201    4.678907   -0.742563
     13          6           0      -20.144770    6.213105   -0.492138
     14          1           0      -20.627993    6.852078    0.820627
     15          7           0      -22.713362   -0.788724    0.262491
     16          6           0      -23.568207    0.245321    0.726375
     17          6           0      -24.897244   -0.266352    0.875188
     18          6           0      -24.831025   -1.650054    0.480298
     19          6           0      -23.399355   -1.857711    0.059463
     20          6           0      -26.080717    0.547425    1.266199
     21          6           0      -25.937885   -2.697783    0.441479
     22          8           0      -25.780795   -3.928884    0.191492
     23          6           0      -27.367868   -2.281745    0.741916
     24          7           0      -20.447855   -2.582303   -0.537500
     25          6           0      -21.532674   -3.423816   -0.788891
     26          6           0      -21.160411   -4.780972   -1.452831
     27          6           0      -19.553353   -4.552369   -1.604104
     28          6           0      -19.298187   -3.213365   -1.015330
     29          6           0      -21.553632   -5.924705   -0.509064
     30          6           0      -19.032304   -4.727221   -3.000120
     31          6           0      -17.934119   -5.746340   -3.106620
     32          7           0      -18.662107   -0.485944   -0.284832
     33          6           0      -17.678690   -1.416452   -0.596788
     34          6           0      -16.400833   -0.807662   -0.559355
     35          6           0      -16.591440    0.568486   -0.261806
     36          6           0      -17.988947    0.753860   -0.205699
     37          6           0      -15.072588   -1.407847   -0.819088
     38          6           0      -15.924138    1.809938    0.063679
     39          8           0      -14.766610    2.154186    0.201817
     40          6           0      -17.149522    2.831990    0.206411
     41          6           0      -16.957846    3.792940    1.324011
     42          8           0      -16.552270    3.539185    2.429421
     43          8           0      -17.251525    5.059631    0.991664
     44          6           0      -17.082113    6.042474    2.099515
     45          1           0      -23.828559    2.240035    1.480883
     46          1           0      -23.512532   -3.910204   -0.403657
     47          1           0      -17.152302   -3.280555   -1.193300
     48          1           0      -19.663649    4.327315    1.428627
     49          1           0      -22.337134    4.186255    0.536938
     50          1           0      -21.101859    4.409857    3.113741
     51          1           0      -22.315360    3.131609    3.313302
     52          1           0      -22.840647    4.633147    2.658323
     53          1           0      -21.169330    4.372029   -1.215325
     54          1           0      -19.390354    4.358203   -1.350793
     55          1           0      -20.714094    6.615973   -1.329995
     56          1           0      -19.114713    6.493575   -0.710591
     57          1           0      -26.549704    1.118678    0.464999
     58          1           0      -25.730771    1.193111    2.070659
     59          1           0      -26.826842   -0.019919    1.821752
     60          1           0      -27.456191   -2.284890    1.828221
     61          1           0      -27.982861   -3.079968    0.327040
     62          1           0      -27.631165   -1.292350    0.367502
     63          1           0      -21.774430   -4.853349   -2.350598
     64          1           0      -19.041551   -5.298022   -0.994760
     65          1           0      -21.877102   -5.628937    0.489147
     66          1           0      -20.762000   -6.673589   -0.514595
     67          1           0      -22.449458   -6.369812   -0.943015
     68          1           0      -18.579765   -3.822800   -3.406943
     69          1           0      -19.788527   -4.994886   -3.738186
     70          1           0      -18.091924   -6.463267   -3.911851
     71          1           0      -17.837161   -6.323226   -2.187273
     72          1           0      -17.024546   -5.148868   -3.174958
     73          1           0      -14.963445   -2.461043   -0.558605
     74          1           0      -14.448561   -0.972259   -0.038201
     75          1           0      -14.774236   -1.220631   -1.850665
     76          1           0      -16.968643    3.373590   -0.722512
     77          1           0      -16.034443    6.297810    2.264781
     78          1           0      -17.626715    5.744739    2.995698
     79          1           0      -17.564690    6.973713    1.801834
     80         12           0       20.150014   -0.730869    0.388996
     81          6           0       19.992231    2.260865   -1.572132
     82          6           0       21.313909    1.122175    3.035783
     83          6           0       20.772503   -3.539495    2.158726
     84          6           0       19.901598   -2.532488   -2.633224
     85          7           0       20.578191    1.433680    0.668581
     86          6           0       20.385026    2.503704   -0.219287
     87          6           0       20.691909    3.796402    0.492362
     88          6           0       21.573685    3.307643    1.717784
     89          6           0       21.176298    1.804182    1.794785
     90          6           0       23.083325    3.518912    1.340674
     91          6           0       19.426860    4.664839    0.822220
     92          6           0       19.674068    6.055416    0.514858
     93          1           0       18.360032    6.985983    0.469247
     94          7           0       20.778826   -1.050250    2.403497
     95          6           0       21.169996   -0.162536    3.325585
     96          6           0       21.397500   -0.838231    4.565943
     97          6           0       21.269341   -2.194250    4.349930
     98          6           0       20.854603   -2.348636    2.879523
     99          6           0       21.929931   -0.095018    5.832140
    100          6           0       21.380825   -3.354069    5.360769
    101          8           0       21.268148   -4.487008    4.966162
    102          6           0       21.536447   -3.079880    6.838030
    103          7           0       20.579316   -2.731131   -0.243236
    104          6           0       20.670489   -3.715267    0.734909
    105          6           0       20.522310   -5.075332    0.134332
    106          6           0       20.218529   -4.759840   -1.411036
    107          6           0       20.163203   -3.250604   -1.441688
    108          6           0       21.689703   -5.964479    0.400566
    109          6           0       18.898680   -5.443691   -2.070871
    110          6           0       19.087769   -6.364635   -3.210805
    111          7           0       19.930592   -0.297936   -1.692794
    112          6           0       19.853186   -1.158993   -2.764159
    113          6           0       19.618328   -0.320621   -4.019074
    114          6           0       19.551251    1.018454   -3.584779
    115          6           0       19.800188    0.982725   -2.167979
    116          6           0       19.515725   -0.891556   -5.440003
    117          6           0       19.481543    2.359138   -4.081950
    118          8           0       19.315415    2.784121   -5.247539
    119          6           0       19.930988    3.232082   -2.839272
    120          6           0       18.930232    4.425583   -2.790797
    121          8           0       17.983776    4.429914   -1.982435
    122          8           0       19.326478    5.393647   -3.653123
    123          6           0       18.244746    6.434114   -3.739066
    124          1           0       21.467110    1.716905    3.939119
    125          1           0       20.950222   -4.463138    2.714686
    126          1           0       19.716626   -3.001534   -3.601716
    127          1           0       21.372055    4.339130   -0.163714
    128          1           0       21.355350    3.872571    2.623337
    129          1           0       23.457229    2.796064    0.615986
    130          1           0       23.676374    3.512577    2.254210
    131          1           0       23.201024    4.515653    0.914886
    132          1           0       19.334242    4.665509    1.908540
    133          1           0       18.521872    4.256926    0.371368
    134          1           0       20.024321    6.175218   -0.510500
    135          1           0       20.372001    6.435146    1.261452
    136          1           0       21.187817   -0.346951    6.589648
    137          1           0       21.963724    0.991035    5.747164
    138          1           0       22.942697   -0.428344    6.058242
    139          1           0       21.682892   -4.010394    7.386595
    140          1           0       20.555367   -2.627091    6.981103
    141          1           0       22.373003   -2.393406    6.968199
    142          1           0       19.624671   -5.452321    0.624815
    143          1           0       21.077401   -5.122927   -1.974938
    144          1           0       21.306849   -6.710548    1.095764
    145          1           0       22.487902   -5.466678    0.950968
    146          1           0       22.139670   -6.426283   -0.478578
    147          1           0       18.376020   -4.576571   -2.474548
    148          1           0       18.302535   -5.859153   -1.259498
    149          1           0       18.616259   -5.976701   -4.113363
    150          1           0       18.456519   -7.165047   -2.826357
    151          1           0       20.111857   -6.728034   -3.306447
    152          1           0       20.521721   -0.829568   -5.853499
    153          1           0       18.827952   -0.326365   -6.068920
    154          1           0       19.122094   -1.906571   -5.385618
    155          1           0       20.937778    3.545281   -3.112246
    156          1           0       17.362838    6.133610   -4.304547
    157          1           0       18.567352    7.395895   -4.136492
    158          1           0       17.981803    6.664470   -2.706447
 ---------------------------------------------------------------------

 SCF Done:  E(RCAM-B3LYP) =  -4069.78209391     A.U. after   17 cycles

 Excitation energies and oscillator strengths:

 Excited State   1:      Singlet-A      1.6462 eV  753.17 nm  f=0.3921  <S**2>=0.000
     309 -> 316       -0.17001
     311 -> 313        0.68912
     309 <- 316       -0.10749
 This state for optimization and/or second-order correction.
 Total Energy, E(TD-HF/TD-DFT) =  -4069.72159829
 Copying the excited state density for this state as the 1-particle RhoCI density.

 Excited State   2:      Singlet-A      1.7187 eV  721.37 nm  f=0.3547  <S**2>=0.000
     310 -> 315       -0.18754
     312 -> 314        0.68233
     310 <- 315       -0.10714

 Excited State   3:      Singlet-A      2.2270 eV  556.73 nm  f=0.1129  <S**2>=0.000
     309 -> 313        0.63821
     311 -> 316        0.29158

 Excited State   4:      Singlet-A      2.2689 eV  546.46 nm  f=0.0058  <S**2>=0.000
     310 -> 314        0.54883
     312 -> 315        0.43683

 Excited State   5:      Singlet-A      2.8222 eV  439.32 nm  f=0.0000  <S**2>=0.000
     312 -> 313        0.70710

 The electronic state is 1-A.
 Alpha  occ. eigenvalues --  -46.89393 -46.87135 -19.26120 -19.25154 -19.19718
 Alpha  occ. eigenvalues --  -19.19450 -19.19209 -19.18747 -19.18710 -19.18483
 Alpha  occ. eigenvalues --  -14.42840 -14.42231 -14.41876 -14.41672 -14.39512
 Alpha  occ. eigenvalues --  -14.39328 -14.39115 -14.38745 -10.39681 -10.38578
 Alpha  occ. eigenvalues --  -10.35639 -10.35212 -10.35132 -10.34869 -10.32030
 Alpha  occ. eigenvalues --  -10.31496 -10.31341 -10.31335 -10.31270 -10.31168
 Alpha  occ. eigenvalues --  -10.30939 -10.30890 -10.30716 -10.30469 -10.30443
 Alpha  occ. eigenvalues --  -10.30100 -10.29840 -10.29331 -10.29136 -10.28966
 Alpha  occ. eigenvalues --  -10.28934 -10.28931 -10.28841 -10.28731 -10.28731
 Alpha  occ. eigenvalues --  -10.28624 -10.28579 -10.28235 -10.28130 -10.28116
 Alpha  occ. eigenvalues --  -10.28075 -10.28067 -10.28019 -10.28005 -10.27853
 Alpha  occ. eigenvalues --  -10.27844 -10.27783 -10.27768 -10.27639 -10.27521
 Alpha  occ. eigenvalues --  -10.27500 -10.27462 -10.27331 -10.27314 -10.27188
 Alpha  occ. eigenvalues --  -10.26978 -10.26897 -10.26802 -10.26383 -10.26350
 Alpha  occ. eigenvalues --  -10.26254 -10.26214 -10.25985 -10.25915 -10.25841
 Alpha  occ. eigenvalues --  -10.25824 -10.25747 -10.25592 -10.25464 -10.25370
 Alpha  occ. eigenvalues --  -10.25324 -10.25226 -10.25107 -10.25062 -10.24989
 Alpha  occ. eigenvalues --  -10.24892  -3.17730  -3.15994  -1.92627  -1.92173
 Alpha  occ. eigenvalues --   -1.92032  -1.90884  -1.90428  -1.90339  -1.17295
 Alpha  occ. eigenvalues --   -1.16005  -1.11700  -1.10126  -1.07810  -1.07396
 Alpha  occ. eigenvalues --   -1.07243  -1.07088  -1.04512  -1.04044  -1.03557
 Alpha  occ. eigenvalues --   -1.02994  -1.02705  -1.02663  -1.01398  -1.01395
 Alpha  occ. eigenvalues --   -0.93361  -0.91181  -0.89704  -0.88897  -0.88798
 Alpha  occ. eigenvalues --   -0.88649  -0.88575  -0.88152  -0.87668  -0.87465
 Alpha  occ. eigenvalues --   -0.87213  -0.87210  -0.86403  -0.85432  -0.84371
 Alpha  occ. eigenvalues --   -0.84320  -0.83807  -0.83744  -0.82570  -0.82475
 Alpha  occ. eigenvalues --   -0.82468  -0.81649  -0.81046  -0.80636  -0.80496
 Alpha  occ. eigenvalues --   -0.80417  -0.78348  -0.78176  -0.77768  -0.77502
 Alpha  occ. eigenvalues --   -0.77349  -0.76518  -0.76496  -0.75431  -0.75207
 Alpha  occ. eigenvalues --   -0.74885  -0.72874  -0.72129  -0.71838  -0.71398
 Alpha  occ. eigenvalues --   -0.69082  -0.68759  -0.68678  -0.68182  -0.67826
 Alpha  occ. eigenvalues --   -0.67373  -0.66692  -0.66330  -0.65851  -0.65345
 Alpha  occ. eigenvalues --   -0.65068  -0.64919  -0.64766  -0.64393  -0.64256
 Alpha  occ. eigenvalues --   -0.64069  -0.62328  -0.61997  -0.60313  -0.59924
 Alpha  occ. eigenvalues --   -0.59880  -0.59074  -0.58958  -0.58392  -0.58364
 Alpha  occ. eigenvalues --   -0.58195  -0.57990  -0.57701  -0.57377  -0.57053
 Alpha  occ. eigenvalues --   -0.56079  -0.55941  -0.55514  -0.55490  -0.55176
 Alpha  occ. eigenvalues --   -0.55017  -0.54967  -0.54280  -0.53966  -0.53934
 Alpha  occ. eigenvalues --   -0.53934  -0.53508  -0.53335  -0.52990  -0.52926
 Alpha  occ. eigenvalues --   -0.52881  -0.52702  -0.52549  -0.52546  -0.52424
 Alpha  occ. eigenvalues --   -0.52412  -0.52136  -0.51966  -0.51870  -0.51300
 Alpha  occ. eigenvalues --   -0.51213  -0.51142  -0.50512  -0.50376  -0.50304
 Alpha  occ. eigenvalues --   -0.50174  -0.50089  -0.50083  -0.49971  -0.49601
 Alpha  occ. eigenvalues --   -0.49472  -0.49075  -0.48997  -0.48892  -0.48866
 Alpha  occ. eigenvalues --   -0.48608  -0.48377  -0.48216  -0.48158  -0.47987
 Alpha  occ. eigenvalues --   -0.47957  -0.47803  -0.47757  -0.47390  -0.47314
 Alpha  occ. eigenvalues --   -0.47206  -0.46699  -0.46591  -0.46577  -0.46504
 Alpha  occ. eigenvalues --   -0.46347  -0.46191  -0.46051  -0.45912  -0.45807
 Alpha  occ. eigenvalues --   -0.45343  -0.45186  -0.44901  -0.44763  -0.44593
 Alpha  occ. eigenvalues --   -0.44537  -0.44500  -0.44309  -0.44044  -0.44040
 Alpha  occ. eigenvalues --   -0.43881  -0.43705  -0.43502  -0.43415  -0.43276
 Alpha  occ. eigenvalues --   -0.43164  -0.43115  -0.42984  -0.42799  -0.42399
 Alpha  occ. eigenvalues --   -0.42338  -0.42324  -0.42034  -0.41960  -0.41939
 Alpha  occ. eigenvalues --   -0.41874  -0.41424  -0.41404  -0.41087  -0.40970
 Alpha  occ. eigenvalues --   -0.40882  -0.40739  -0.40485  -0.40423  -0.40380
 Alpha  occ. eigenvalues --   -0.40183  -0.40040  -0.39800  -0.38803  -0.38509
 Alpha  occ. eigenvalues --   -0.38240  -0.37960  -0.37828  -0.37608  -0.37227
 Alpha  occ. eigenvalues --   -0.37186  -0.37043  -0.37020  -0.36914  -0.36604
 Alpha  occ. eigenvalues --   -0.36106  -0.34746  -0.34585  -0.34123  -0.33954
 Alpha  occ. eigenvalues --   -0.33783  -0.33332  -0.33057  -0.31693  -0.31525
 Alpha  occ. eigenvalues --   -0.31361  -0.30723  -0.30702  -0.30589  -0.30038
 Alpha  occ. eigenvalues --   -0.29937  -0.29566  -0.29294  -0.24304  -0.24214
 Alpha  occ. eigenvalues --   -0.21025  -0.20164
 Alpha virt. eigenvalues --   -0.08954  -0.07536  -0.02471  -0.01608   0.00045
 Alpha virt. eigenvalues --    0.00122   0.01855   0.02176   0.02438   0.03176
 Alpha virt. eigenvalues --    0.04778   0.04902   0.05478   0.05495   0.05878

 Mulliken charges:
               1
     1  Mg   0.841765
     2  C    0.034512
     3  C   -0.092994
     4  C   -0.054391
     5  C   -0.125469
     6  N   -0.303499
     7  C   -0.052281
     8  C    0.000510
     9  C   -0.079167
    10  C    0.037489
    11  C    0.069881
    12  C    0.044557
    13  C   -0.036890
    14  H    0.029743
    15  N   -0.308350
    16  C    0.155178
    17  C   -0.140382
    18  C   -0.029035
    19  C    0.069266
    20  C    0.113475
    21  C    0.008019
    22  O   -0.244614
    23  C    0.041264
    24  N   -0.321003
    25  C    0.036073
    26  C   -0.042178
    27  C    0.024935
    28  C    0.084849
    29  C    0.056679
    30  C    0.036907
    31  C   -0.008392
    32  N   -0.439368
    33  C    0.179112
    34  C   -0.175166
    35  C   -0.013986
    36  C    0.109966
    37  C    0.115579
    38  C    0.073238
    39  O   -0.144934
    40  C   -0.038074
    41  C    0.155661
    42  O   -0.198854
    43  O   -0.329040
    44  C    0.182752
    45  H   -0.027449
    46  H   -0.007721
    47  H   -0.042406
    48  H    0.003911
    49  H    0.010800
    50  H    0.020586
    51  H    0.027092
    52  H    0.015775
    53  H    0.012895
    54  H    0.017210
    55  H    0.020542
    56  H    0.038061
    57  H    0.049700
    58  H    0.012633
    59  H    0.009422
    60  H    0.044184
    61  H    0.032973
    62  H    0.028631
    63  H    0.029413
    64  H    0.012691
    65  H    0.039361
    66  H    0.014854
    67  H    0.019112
    68  H    0.008623
    69  H    0.002706
    70  H    0.020689
    71  H    0.002381
    72  H    0.017174
    73  H    0.004831
    74  H    0.038571
    75  H    0.044877
    76  H    0.038591
    77  H    0.051907
    78  H    0.041590
    79  H    0.022443
    80  Mg   0.811286
    81  C    0.053183
    82  C   -0.123010
    83  C   -0.063816
    84  C   -0.065446
    85  N   -0.267884
    86  C   -0.054902
    87  C   -0.044045
    88  C   -0.099884
    89  C    0.112759
    90  C    0.068899
    91  C    0.138594
    92  C   -0.083157
    93  H   -0.006525
    94  N   -0.362792
    95  C    0.148153
    96  C   -0.139264
    97  C   -0.064749
    98  C    0.139358
    99  C    0.103288
   100  C   -0.015283
   101  O   -0.185044
   102  C    0.069078
   103  N   -0.322257
   104  C    0.034075
   105  C   -0.048974
   106  C   -0.011837
   107  C    0.064156
   108  C    0.078937
   109  C    0.007238
   110  C    0.029985
   111  N   -0.332871
   112  C    0.080393
   113  C   -0.182270
   114  C    0.030891
   115  C    0.076667
   116  C    0.117215
   117  C    0.052348
   118  O   -0.200683
   119  C   -0.080764
   120  C    0.223763
   121  O   -0.248551
   122  O   -0.310016
   123  C    0.170748
   124  H   -0.035028
   125  H    0.001999
   126  H   -0.033084
   127  H   -0.004824
   128  H   -0.000965
   129  H    0.028207
   130  H    0.011829
   131  H    0.014425
   132  H   -0.009229
   133  H    0.049620
   134  H    0.031228
   135  H    0.021206
   136  H    0.030242
   137  H    0.013475
   138  H    0.050631
   139  H    0.035166
   140  H    0.045140
   141  H    0.034432
   142  H    0.016527
   143  H    0.007004
   144  H    0.017636
   145  H    0.024240
   146  H    0.016107
   147  H    0.003823
   148  H    0.004010
   149  H    0.022784
   150  H    0.008379
   151  H    0.020761
   152  H    0.040117
   153  H    0.033963
   154  H    0.013521
   155  H    0.060402
   156  H    0.051665
   157  H    0.033580
   158  H    0.044022
 Sum of Mulliken charges =  -0.00000

 Dipole moment (field-independent basis, Debye):
    X=             -2.1898    Y=              1.7267    Z=              2.1327  Tot=              3.5107
 Quadrupole moment (field-independent basis, Debye-Ang):
   XX=           -317.8858   YY=           -480.8198   ZZ=           -505.7057
   XY=            -81.6667   XZ=            115.3498   YZ=             29.6791

 Normal termination of Gaussian 16 at Wed Sep 15 21:24:24 2021.
