 Gaussian 16, Revision A.03,
 Gaussian 16:  ES64L-G16RevA.03 25-Dec-2016

 -----------------------------------
 #p cam-b3lyp/Def2SVP td=(nstates=5)
 -----------------------------------

 --------------------------------
 TDDFT excited states in gaussian
 --------------------------------
 Symbolic Z-matrix:
 Charge =  0 Multiplicity = 1

                         Standard orientation:
 ---------------------------------------------------------------------
 Center     Atomic      Atomic             Coordinates (Angstroms)
 Number     Number       Type             X           Y           Z
 ---------------------------------------------------------------------
      1         12           0      -29.286889    0.470932    0.130684
      2          6           0      -27.332316   -2.134734   -1.249371
      3          6           0      -28.460846    2.282937   -2.478430
      4          6           0      -30.207137    3.069691    1.955958
      5          6           0      -29.384552   -1.502075    3.084677
      6          7           0      -28.136937   -0.049849   -1.750239
      7          6           0      -27.531948   -1.111530   -2.141538
      8          6           0      -27.147360   -1.008047   -3.631798
      9          6           0      -27.080654    0.584568   -3.878089
     10          6           0      -27.885146    1.013045   -2.581024
     11          6           0      -25.639914    1.228533   -3.954005
     12          6           0      -28.299522   -1.650369   -4.567122
     13          6           0      -27.927865   -2.353841   -5.912532
     14          1           0      -26.633300   -1.829336   -6.636306
     15          7           0      -29.526757    2.390463   -0.282593
     16          6           0      -29.158319    2.941972   -1.500476
     17          6           0      -29.499671    4.407970   -1.476402
     18          6           0      -30.058464    4.620094   -0.147260
     19          6           0      -29.976691    3.384450    0.636284
     20          6           0      -29.193327    5.306680   -2.659571
     21          6           0      -30.647682    5.902547    0.397611
     22          8           0      -31.073240    6.047045    1.552090
     23          6           0      -30.767249    7.064987   -0.502345
     24          7           0      -29.850705    0.729032    2.277226
     25          6           0      -30.136510    1.935623    2.732023
     26          6           0      -30.803421    1.831334    4.175216
     27          6           0      -30.479600    0.278543    4.523159
     28          6           0      -29.900384   -0.210444    3.198369
     29          6           0      -30.265254    2.884082    5.199759
     30          6           0      -31.659406   -0.627704    5.005678
     31          6           0      -31.625733   -1.088833    6.440133
     32          7           0      -28.717956   -1.535551    0.780206
     33          6           0      -28.846586   -2.141347    2.014246
     34          6           0      -28.191209   -3.382172    2.011856
     35          6           0      -27.548286   -3.397690    0.759579
     36          6           0      -27.844409   -2.266131    0.037089
     37          6           0      -28.117253   -4.359121    3.074544
     38          6           0      -26.762358   -4.250499   -0.044914
     39          8           0      -26.323781   -5.429336    0.045486
     40          6           0      -26.361363   -3.337539   -1.289394
     41          6           0      -26.421984   -4.124804   -2.546726
     42          8           0      -27.406809   -4.649341   -3.062580
     43          8           0      -25.119867   -4.074028   -3.137064
     44          6           0      -24.928966   -4.798037   -4.400293
     45          1           0      -28.276801    2.797274   -3.424417
     46          1           0      -30.567592    3.927181    2.526877
     47          1           0      -29.488084   -2.132726    3.970875
     48          1           0      -26.103376   -1.309854   -3.712015
     49          1           0      -27.492481    0.792825   -4.864979
     50          1           0      -24.867987    0.541863   -3.607234
     51          1           0      -25.551900    2.094507   -3.298158
     52          1           0      -25.482847    1.476368   -5.003713
     53          1           0      -29.079406   -0.919029   -4.779881
     54          1           0      -28.854702   -2.370920   -3.966226
     55          1           0      -28.713118   -2.300315   -6.667281
     56          1           0      -27.599627   -3.361482   -5.654531
     57          1           0      -30.026393    5.968247   -2.899830
     58          1           0      -28.924145    4.754217   -3.559835
     59          1           0      -28.249922    5.822949   -2.483659
     60          1           0      -29.794984    7.355111   -0.901629
     61          1           0      -31.207651    7.904578    0.035543
     62          1           0      -31.432301    6.934113   -1.355975
     63          1           0      -31.890218    1.907222    4.142312
     64          1           0      -29.610880    0.176555    5.175230
     65          1           0      -29.440819    3.449591    4.765097
     66          1           0      -30.062472    2.242989    6.057890
     67          1           0      -31.118936    3.487825    5.504959
     68          1           0      -31.649792   -1.525889    4.387810
     69          1           0      -32.606044   -0.122436    4.813111
     70          1           0      -30.808660   -0.509548    6.868111
     71          1           0      -31.332960   -2.139413    6.443372
     72          1           0      -32.535529   -0.855946    6.992043
     73          1           0      -29.140790   -4.548236    3.397028
     74          1           0      -27.712415   -4.004613    4.022497
     75          1           0      -27.674712   -5.280336    2.695114
     76          1           0      -25.347443   -2.970735   -1.126474
     77          1           0      -23.884078   -4.764964   -4.709969
     78          1           0      -25.423305   -4.239710   -5.195495
     79          1           0      -25.196592   -5.844323   -4.256596
     80         12           0       28.975126    0.595952   -0.560048
     81          6           0       27.339440   -2.264623    0.806456
     82          6           0       26.423477    2.361946    0.615683
     83          6           0       30.842372    3.394436   -0.881575
     84          6           0       31.866022   -1.477505   -0.769072
     85          7           0       27.113174    0.106547    0.432556
     86          6           0       26.577973   -1.136910    0.833043
     87          6           0       25.170813   -1.013750    1.497936
     88          6           0       24.902784    0.511400    1.356234
     89          6           0       26.184144    1.038536    0.676377
     90          6           0       23.583837    0.678011    0.583358
     91          6           0       25.017791   -1.514141    2.998947
     92          6           0       24.119041   -2.723348    3.230436
     93          1           0       22.953561   -2.561375    4.227577
     94          7           0       28.680565    2.572626   -0.291369
     95          6           0       27.507034    3.116155    0.230803
     96          6           0       27.545202    4.521411    0.172095
     97          6           0       28.749389    4.893916   -0.396216
     98          6           0       29.496993    3.661605   -0.544097
     99          6           0       26.443446    5.557074    0.608469
    100          6           0       29.107430    6.329782   -0.700172
    101          8           0       28.351552    7.248839   -0.590001
    102          6           0       30.565748    6.557970   -1.336508
    103          7           0       31.066581    0.936474   -0.721233
    104          6           0       31.568942    2.198991   -0.881694
    105          6           0       33.147228    2.071402   -0.875516
    106          6           0       33.488062    0.574849   -0.970302
    107          6           0       32.053785   -0.054298   -0.792481
    108          6           0       33.858640    2.971573   -1.845347
    109          6           0       34.362911    0.177276    0.212079
    110          6           0       35.220449   -1.050289    0.054937
    111          7           0       29.464864   -1.517247   -0.321847
    112          6           0       30.656174   -2.186631   -0.469907
    113          6           0       30.469266   -3.574937   -0.251323
    114          6           0       29.137993   -3.737310    0.199857
    115          6           0       28.626889   -2.409432    0.243349
    116          6           0       31.490262   -4.639666   -0.303038
    117          6           0       28.075301   -4.624739    0.691347
    118          8           0       28.085687   -5.858869    0.793021
    119          6           0       26.842761   -3.724639    1.087978
    120          6           0       25.766392   -3.965248    0.164289
    121          8           0       25.797157   -3.503910   -1.001128
    122          8           0       24.871375   -4.755995    0.788389
    123          6           0       23.559575   -5.004613    0.130067
    124          1           0       25.582757    2.970826    0.955690
    125          1           0       31.397699    4.320739   -1.043629
    126          1           0       32.685371   -2.180071   -0.932991
    127          1           0       24.436593   -1.561873    0.907608
    128          1           0       24.822952    1.029981    2.311159
    129          1           0       23.490380    1.737587    0.347073
    130          1           0       22.680670    0.369748    1.109841
    131          1           0       23.578105    0.119393   -0.353272
    132          1           0       24.477347   -0.703654    3.488004
    133          1           0       26.000657   -1.648884    3.450652
    134          1           0       24.760260   -3.545826    3.549251
    135          1           0       23.641816   -2.998945    2.289347
    136          1           0       26.943383    6.245922    1.289695
    137          1           0       25.613222    5.076207    1.125533
    138          1           0       25.920226    6.064939   -0.201684
    139          1           0       30.608535    7.615086   -1.597052
    140          1           0       30.568874    5.875763   -2.186950
    141          1           0       31.216739    6.248382   -0.518965
    142          1           0       33.419349    2.434800    0.116067
    143          1           0       33.980486    0.238765   -1.882755
    144          1           0       34.786270    2.484947   -2.145438
    145          1           0       34.042055    3.902010   -1.307627
    146          1           0       33.254330    3.286366   -2.695321
    147          1           0       33.800718    0.054166    1.138214
    148          1           0       35.032202    0.981716    0.517010
    149          1           0       35.262363   -1.410317   -0.972873
    150          1           0       34.796475   -1.833558    0.683626
    151          1           0       36.198243   -0.898986    0.512138
    152          1           0       32.294686   -4.393545   -0.996892
    153          1           0       30.961094   -5.533333   -0.634744
    154          1           0       31.900755   -4.694750    0.705469
    155          1           0       26.548935   -3.788230    2.135712
    156          1           0       23.370666   -6.025204    0.466125
    157          1           0       23.577180   -4.887919   -0.953126
    158          1           0       22.755006   -4.458131    0.623286
 ---------------------------------------------------------------------

 SCF Done:  E(RCAM-B3LYP) =  -4069.77856473     A.U. after   19 cycles

 Excitation energies and oscillator strengths:

 Excited State   1:      Singlet-A      1.7225 eV  719.80 nm  f=0.3850  <S**2>=0.000
     309 -> 316        0.17110
     312 -> 313        0.68747
     309 <- 316        0.10386
 This state for optimization and/or second-order correction.
 Total Energy, E(TD-HF/TD-DFT) =  -4069.71526440
 Copying the excited state density for this state as the 1-particle RhoCI density.

 Excited State   2:      Singlet-A      1.7997 eV  688.91 nm  f=0.3663  <S**2>=0.000
     310 -> 315       -0.21221
     311 -> 314        0.67496
     310 <- 315       -0.10955

 Excited State   3:      Singlet-A      2.2245 eV  557.36 nm  f=0.0808  <S**2>=0.000
     310 -> 314        0.62929
     311 -> 315        0.30802

 Excited State   4:      Singlet-A      2.2584 eV  549.00 nm  f=0.1173  <S**2>=0.000
     309 -> 313        0.63725
     312 -> 316       -0.28974

 Excited State   5:      Singlet-A      3.2735 eV  378.75 nm  f=0.0000  <S**2>=0.000
     312 -> 314        0.70711

 The electronic state is 1-A.
 Alpha  occ. eigenvalues --  -46.89414 -46.88514 -19.26510 -19.23965 -19.20241
 Alpha  occ. eigenvalues --  -19.19669 -19.19643 -19.19018 -19.18737 -19.18474
 Alpha  occ. eigenvalues --  -14.42537 -14.42186 -14.42173 -14.41744 -14.39994
 Alpha  occ. eigenvalues --  -14.39509 -14.38588 -14.38472 -10.39510 -10.39315
 Alpha  occ. eigenvalues --  -10.35482 -10.35394 -10.35146 -10.34510 -10.32844
 Alpha  occ. eigenvalues --  -10.31641 -10.31545 -10.31498 -10.31110 -10.30993
 Alpha  occ. eigenvalues --  -10.30986 -10.30773 -10.30729 -10.30641 -10.30604
 Alpha  occ. eigenvalues --  -10.30480 -10.30330 -10.30269 -10.29620 -10.29352
 Alpha  occ. eigenvalues --  -10.29012 -10.28690 -10.28683 -10.28666 -10.28593
 Alpha  occ. eigenvalues --  -10.28414 -10.28407 -10.28342 -10.28328 -10.28217
 Alpha  occ. eigenvalues --  -10.28141 -10.28032 -10.28027 -10.27958 -10.27860
 Alpha  occ. eigenvalues --  -10.27781 -10.27624 -10.27617 -10.27562 -10.27511
 Alpha  occ. eigenvalues --  -10.27489 -10.27316 -10.27188 -10.27112 -10.27092
 Alpha  occ. eigenvalues --  -10.26996 -10.26925 -10.26842 -10.26445 -10.26403
 Alpha  occ. eigenvalues --  -10.26397 -10.26364 -10.26261 -10.26250 -10.26048
 Alpha  occ. eigenvalues --  -10.26003 -10.25931 -10.25848 -10.25847 -10.25832
 Alpha  occ. eigenvalues --  -10.25758 -10.25440 -10.25426 -10.25170 -10.24839
 Alpha  occ. eigenvalues --  -10.24663  -3.17867  -3.17112  -1.92771  -1.92333
 Alpha  occ. eigenvalues --   -1.92153  -1.91990  -1.91548  -1.91439  -1.16647
 Alpha  occ. eigenvalues --   -1.13988  -1.11986  -1.09442  -1.08669  -1.07400
 Alpha  occ. eigenvalues --   -1.07310  -1.06748  -1.05804  -1.05233  -1.04121
 Alpha  occ. eigenvalues --   -1.03510  -1.03184  -1.02839  -1.01750  -1.01491
 Alpha  occ. eigenvalues --   -0.92979  -0.92216  -0.89670  -0.89520  -0.89350
 Alpha  occ. eigenvalues --   -0.88714  -0.88632  -0.87920  -0.87574  -0.87398
 Alpha  occ. eigenvalues --   -0.87336  -0.86930  -0.86648  -0.86510  -0.84820
 Alpha  occ. eigenvalues --   -0.84295  -0.84241  -0.83995  -0.83300  -0.82745
 Alpha  occ. eigenvalues --   -0.82080  -0.81914  -0.81532  -0.81138  -0.80690
 Alpha  occ. eigenvalues --   -0.80317  -0.78990  -0.77734  -0.77732  -0.77382
 Alpha  occ. eigenvalues --   -0.76991  -0.76687  -0.76261  -0.75911  -0.75258
 Alpha  occ. eigenvalues --   -0.75134  -0.73245  -0.72756  -0.72277  -0.71727
 Alpha  occ. eigenvalues --   -0.69261  -0.68952  -0.68621  -0.68617  -0.67947
 Alpha  occ. eigenvalues --   -0.67759  -0.67248  -0.67246  -0.65946  -0.65702
 Alpha  occ. eigenvalues --   -0.65682  -0.65617  -0.65607  -0.65001  -0.64622
 Alpha  occ. eigenvalues --   -0.64563  -0.62242  -0.61278  -0.60557  -0.60167
 Alpha  occ. eigenvalues --   -0.60150  -0.59637  -0.59434  -0.59309  -0.58522
 Alpha  occ. eigenvalues --   -0.58369  -0.58216  -0.57763  -0.57360  -0.57150
 Alpha  occ. eigenvalues --   -0.57017  -0.56414  -0.56048  -0.55788  -0.55501
 Alpha  occ. eigenvalues --   -0.54978  -0.54694  -0.54470  -0.54282  -0.53818
 Alpha  occ. eigenvalues --   -0.53816  -0.53553  -0.53242  -0.53171  -0.52987
 Alpha  occ. eigenvalues --   -0.52879  -0.52627  -0.52494  -0.52481  -0.52408
 Alpha  occ. eigenvalues --   -0.52262  -0.51685  -0.51576  -0.51481  -0.51239
 Alpha  occ. eigenvalues --   -0.51132  -0.50939  -0.50582  -0.50570  -0.50369
 Alpha  occ. eigenvalues --   -0.50352  -0.50160  -0.49969  -0.49888  -0.49868
 Alpha  occ. eigenvalues --   -0.49581  -0.49223  -0.49179  -0.48925  -0.48809
 Alpha  occ. eigenvalues --   -0.48687  -0.48431  -0.48402  -0.48261  -0.48066
 Alpha  occ. eigenvalues --   -0.48064  -0.47831  -0.47636  -0.47522  -0.47487
 Alpha  occ. eigenvalues --   -0.47334  -0.47053  -0.46961  -0.46814  -0.46422
 Alpha  occ. eigenvalues --   -0.46322  -0.46298  -0.46125  -0.46090  -0.45616
 Alpha  occ. eigenvalues --   -0.45608  -0.45362  -0.45308  -0.45155  -0.44934
 Alpha  occ. eigenvalues --   -0.44926  -0.44736  -0.44320  -0.44249  -0.44128
 Alpha  occ. eigenvalues --   -0.43951  -0.43933  -0.43717  -0.43580  -0.43469
 Alpha  occ. eigenvalues --   -0.43357  -0.43290  -0.43086  -0.43009  -0.42800
 Alpha  occ. eigenvalues --   -0.42628  -0.42563  -0.42309  -0.41957  -0.41938
 Alpha  occ. eigenvalues --   -0.41709  -0.41662  -0.41642  -0.41601  -0.41195
 Alpha  occ. eigenvalues --   -0.41079  -0.40776  -0.40668  -0.40589  -0.40311
 Alpha  occ. eigenvalues --   -0.40216  -0.40115  -0.40075  -0.39161  -0.39051
 Alpha  occ. eigenvalues --   -0.38509  -0.38389  -0.38228  -0.37852  -0.37609
 Alpha  occ. eigenvalues --   -0.37420  -0.37219  -0.36705  -0.36469  -0.36129
 Alpha  occ. eigenvalues --   -0.36003  -0.35659  -0.34498  -0.34341  -0.34169
 Alpha  occ. eigenvalues --   -0.33924  -0.33571  -0.32935  -0.31816  -0.31793
 Alpha  occ. eigenvalues --   -0.31315  -0.30897  -0.30759  -0.30557  -0.30524
 Alpha  occ. eigenvalues --   -0.30268  -0.29315  -0.28932  -0.24274  -0.24181
 Alpha  occ. eigenvalues --   -0.21693  -0.21255
 Alpha virt. eigenvalues --   -0.08756  -0.08634  -0.02670  -0.01702  -0.00257
 Alpha virt. eigenvalues --    0.00565   0.02179   0.02237   0.02306   0.02733
 Alpha virt. eigenvalues --    0.04553   0.04559   0.04747   0.05488   0.05587

 Mulliken charges:
               1
     1  Mg   0.815682
     2  C    0.016293
     3  C   -0.078630
     4  C   -0.039489
     5  C   -0.091661
     6  N   -0.224078
     7  C   -0.122421
     8  C    0.024852
     9  C   -0.108502
    10  C    0.025551
    11  C    0.065587
    12  C    0.060398
    13  C   -0.072464
    14  H   -0.016577
    15  N   -0.489190
    16  C    0.213726
    17  C   -0.139451
    18  C   -0.019691
    19  C    0.151496
    20  C    0.115731
    21  C    0.006975
    22  O   -0.211177
    23  C    0.033109
    24  N   -0.209867
    25  C    0.015566
    26  C   -0.071804
    27  C   -0.031126
    28  C   -0.009417
    29  C    0.089619
    30  C    0.026588
    31  C    0.020974
    32  N   -0.334499
    33  C    0.141019
    34  C   -0.143478
    35  C    0.021191
    36  C    0.107334
    37  C    0.141234
    38  C    0.060004
    39  O   -0.216330
    40  C   -0.028736
    41  C    0.225844
    42  O   -0.218476
    43  O   -0.379518
    44  C    0.184894
    45  H   -0.030776
    46  H   -0.007162
    47  H   -0.039819
    48  H    0.000433
    49  H    0.019271
    50  H    0.015681
    51  H    0.018139
    52  H    0.022285
    53  H    0.004579
    54  H    0.033044
    55  H    0.042190
    56  H    0.060409
    57  H    0.034373
    58  H    0.008032
    59  H    0.037098
    60  H    0.032540
    61  H    0.024261
    62  H    0.038689
    63  H    0.021660
    64  H    0.009457
    65  H    0.040267
    66  H    0.007212
    67  H    0.016229
    68  H    0.010558
    69  H   -0.000253
    70  H    0.002904
    71  H    0.018920
    72  H    0.023646
    73  H    0.007328
    74  H    0.021786
    75  H    0.047014
    76  H    0.051786
    77  H    0.025049
    78  H    0.027294
    79  H    0.048795
    80  Mg   0.849653
    81  C   -0.035879
    82  C   -0.127569
    83  C   -0.088504
    84  C   -0.059174
    85  N   -0.306895
    86  C   -0.024913
    87  C   -0.013004
    88  C   -0.067180
    89  C    0.093610
    90  C    0.060693
    91  C    0.056376
    92  C   -0.082555
    93  H    0.016227
    94  N   -0.421938
    95  C    0.201570
    96  C   -0.158746
    97  C   -0.012286
    98  C    0.124736
    99  C    0.150607
   100  C   -0.039998
   101  O   -0.163494
   102  C    0.032935
   103  N   -0.321061
   104  C    0.081232
   105  C   -0.032043
   106  C   -0.024575
   107  C    0.083683
   108  C    0.078934
   109  C   -0.005224
   110  C    0.032828
   111  N   -0.303147
   112  C    0.079965
   113  C   -0.204837
   114  C    0.040309
   115  C    0.083711
   116  C    0.124726
   117  C    0.054367
   118  O   -0.186628
   119  C   -0.001714
   120  C    0.227750
   121  O   -0.252782
   122  O   -0.319996
   123  C    0.163765
   124  H   -0.039033
   125  H   -0.061731
   126  H   -0.037174
   127  H    0.007702
   128  H    0.019300
   129  H    0.005371
   130  H    0.019887
   131  H    0.021155
   132  H    0.017036
   133  H    0.023299
   134  H    0.047057
   135  H    0.015741
   136  H    0.039272
   137  H   -0.011728
   138  H    0.038962
   139  H    0.030952
   140  H    0.046618
   141  H    0.048736
   142  H    0.020549
   143  H    0.012701
   144  H    0.018353
   145  H    0.010019
   146  H    0.016838
   147  H    0.005628
   148  H   -0.002424
   149  H    0.015936
   150  H    0.008839
   151  H    0.008740
   152  H    0.009171
   153  H    0.043191
   154  H    0.037478
   155  H    0.028180
   156  H    0.043881
   157  H    0.067959
   158  H    0.040003
 Sum of Mulliken charges =  -0.00000

 Dipole moment (field-independent basis, Debye):
    X=             -0.5586    Y=              5.8389    Z=             -0.9963  Tot=              5.9496
 Quadrupole moment (field-independent basis, Debye-Ang):
   XX=           -421.3160   YY=           -589.5601   ZZ=           -483.0772
   XY=            -50.0877   XZ=             46.8628   YZ=            -19.4817

 Normal termination of Gaussian 16 at Wed Sep 15 02:12:14 2021.
