 Gaussian 16, Revision A.03,
 Gaussian 16:  ES64L-G16RevA.03 25-Dec-2016

 -----------------------------------
 #p cam-b3lyp/Def2SVP td=(nstates=5)
 -----------------------------------

 --------------------------------
 TDDFT excited states in gaussian
 --------------------------------
 Symbolic Z-matrix:
 Charge =  0 Multiplicity = 1

                         Standard orientation:
 ---------------------------------------------------------------------
 Center     Atomic      Atomic             Coordinates (Angstroms)
 Number     Number       Type             X           Y           Z
 ---------------------------------------------------------------------
      1         12           0        5.502341    0.098815    0.713550
      2          6           0        4.866474   -3.235158   -0.028588
      3          6           0        3.110305   -0.109469    3.164658
      4          6           0        5.931404    3.474817    1.290970
      5          6           0        7.492388    0.401439   -2.132273
      6          7           0        4.228446   -1.528082    1.523250
      7          6           0        4.202476   -2.821478    1.158995
      8          6           0        3.349721   -3.735721    2.069268
      9          6           0        2.594970   -2.656476    2.957775
     10          6           0        3.315639   -1.295415    2.511198
     11          6           0        1.055750   -2.730206    2.655559
     12          6           0        4.374593   -4.679947    2.884328
     13          6           0        4.124301   -6.214462    2.799377
     14          1           0        2.660217   -6.602087    2.379918
     15          7           0        4.623272    1.536560    1.969247
     16          6           0        3.697864    1.207900    2.981326
     17          6           0        3.516324    2.361522    3.836384
     18          6           0        4.269542    3.410598    3.294330
     19          6           0        5.068350    2.815457    2.159744
     20          6           0        2.403616    2.401248    4.893493
     21          6           0        4.333738    4.886467    3.769285
     22          8           0        5.030272    5.777473    3.248175
     23          6           0        3.538843    5.279308    5.026445
     24          7           0        6.514876    1.690767   -0.361365
     25          6           0        6.566276    3.015602    0.169480
     26          6           0        7.256104    3.967457   -0.829984
     27          6           0        7.993316    2.910087   -1.777329
     28          6           0        7.326723    1.568778   -1.373655
     29          6           0        6.217765    4.882231   -1.458295
     30          6           0        9.553957    2.864218   -1.493876
     31          6           0       10.212336    2.656082   -0.087531
     32          7           0        6.020175   -1.088695   -0.819667
     33          6           0        6.826916   -0.851170   -1.936752
     34          6           0        6.921714   -2.049447   -2.705702
     35          6           0        6.223122   -3.009132   -1.995603
     36          6           0        5.592847   -2.371505   -0.898550
     37          6           0        7.594023   -2.229198   -4.051457
     38          6           0        5.857505   -4.369982   -1.989396
     39          8           0        6.068029   -5.175503   -2.839279
     40          6           0        4.861481   -4.537025   -0.768133
     41          6           0        3.518051   -4.847112   -1.368324
     42          8           0        2.601298   -4.054436   -1.425971
     43          8           0        3.566573   -6.101378   -1.832524
     44          6           0        2.541550   -6.379227   -2.808614
     45          1           0        2.410667   -0.185391    3.999353
     46          1           0        5.867807    4.563384    1.336827
     47          1           0        8.103853    0.482587   -3.033953
     48          1           0        2.659584   -4.396994    1.545662
     49          1           0        2.752035   -2.756402    4.032008
     50          1           0        0.559196   -1.765809    2.545853
     51          1           0        0.738316   -3.257205    3.554895
     52          1           0        0.934050   -3.416547    1.817908
     53          1           0        4.421857   -4.295828    3.903092
     54          1           0        5.367117   -4.482182    2.478757
     55          1           0        4.347226   -6.515011    3.822559
     56          1           0        4.794694   -6.754265    2.131238
     57          1           0        1.782063    3.268376    4.668766
     58          1           0        2.843966    2.591627    5.873164
     59          1           0        1.845404    1.465648    4.879582
     60          1           0        2.486260    5.293464    4.740644
     61          1           0        3.801289    6.318467    5.224160
     62          1           0        3.899114    4.705028    5.879621
     63          1           0        8.026140    4.469296   -0.243340
     64          1           0        7.917757    3.229534   -2.816098
     65          1           0        5.364598    5.072743   -0.807004
     66          1           0        5.842650    4.454786   -2.387897
     67          1           0        6.636309    5.871023   -1.644814
     68          1           0        9.995486    3.754788   -1.941243
     69          1           0        9.861417    1.964075   -2.026207
     70          1           0       10.327532    3.632909    0.382407
     71          1           0       11.187189    2.210923   -0.289937
     72          1           0        9.734754    1.922908    0.563233
     73          1           0        8.658872   -1.998547   -4.015085
     74          1           0        7.089393   -1.505017   -4.690672
     75          1           0        7.638818   -3.253267   -4.424746
     76          1           0        5.059590   -5.338774   -0.056532
     77          1           0        2.832901   -7.113948   -3.558847
     78          1           0        1.981900   -5.580220   -3.294700
     79          1           0        1.656241   -6.853214   -2.384191
     80         12           0       -4.565592    0.809518   -1.110853
     81          6           0       -7.563362   -0.846118    0.007645
     82          6           0       -2.869173   -2.031542   -0.656607
     83          6           0       -1.759211    2.631744   -1.296500
     84          6           0       -6.414857    3.789917   -1.069656
     85          7           0       -5.148494   -1.148822   -0.364567
     86          6           0       -6.432900   -1.676746   -0.148963
     87          6           0       -6.389900   -3.244016    0.013438
     88          6           0       -4.870539   -3.555591   -0.141575
     89          6           0       -4.250167   -2.169980   -0.463470
     90          6           0       -4.179821   -4.227397    1.017987
     91          6           0       -7.371539   -4.009946   -1.025296
     92          6           0       -8.348449   -5.005901   -0.388215
     93          1           0       -8.207574   -6.476381   -0.931538
     94          7           0       -2.575769    0.333999   -1.130364
     95          6           0       -2.052227   -0.878393   -0.922529
     96          6           0       -0.589197   -0.848027   -0.964010
     97          6           0       -0.280054    0.552846   -1.058495
     98          6           0       -1.562144    1.258713   -1.153797
     99          6           0        0.248413   -2.050284   -0.868016
    100          6           0        1.166755    1.130396   -0.958497
    101          8           0        1.400092    2.318208   -1.107492
    102          6           0        2.364646    0.273248   -0.700180
    103          7           0       -4.181586    2.845433   -1.174392
    104          6           0       -2.904958    3.356644   -1.381926
    105          6           0       -2.945801    4.909300   -1.565700
    106          6           0       -4.471627    5.187037   -1.835971
    107          6           0       -5.076730    3.855830   -1.390886
    108          6           0       -2.245504    5.791581   -0.481460
    109          6           0       -4.809138    5.494754   -3.320584
    110          6           0       -5.835284    6.556925   -3.624775
    111          7           0       -6.558295    1.400958   -0.587203
    112          6           0       -7.142147    2.635292   -0.625934
    113          6           0       -8.635077    2.476484   -0.341740
    114          6           0       -8.846081    1.133703   -0.141378
    115          6           0       -7.545507    0.528783   -0.229970
    116          6           0       -9.608442    3.630770   -0.416770
    117          6           0       -9.803332    0.088547    0.174564
    118          8           0      -11.023466    0.287501    0.351171
    119          6           0       -8.962899   -1.306993    0.389196
    120          6           0       -8.966279   -1.838454    1.807323
    121          8           0       -8.611591   -1.117307    2.760736
    122          8           0       -9.562766   -3.096187    1.905933
    123          6           0       -9.947221   -3.420243    3.274779
    124          1           0       -2.272532   -2.945660   -0.635509
    125          1           0       -0.799023    3.137814   -1.413628
    126          1           0       -6.946147    4.735829   -1.197601
    127          1           0       -6.768194   -3.383660    1.025914
    128          1           0       -4.829217   -4.345879   -0.892395
    129          1           0       -4.833402   -4.381292    1.876724
    130          1           0       -3.518376   -3.416470    1.321037
    131          1           0       -3.748840   -5.195650    0.761563
    132          1           0       -6.669244   -4.496455   -1.701622
    133          1           0       -7.879234   -3.269678   -1.643068
    134          1           0       -9.346709   -4.588362   -0.519500
    135          1           0       -8.153618   -5.061412    0.683558
    136          1           0        1.013969   -2.124017   -0.096257
    137          1           0        0.912060   -1.984392   -1.729432
    138          1           0       -0.265785   -2.995952   -1.040910
    139          1           0        2.401731   -0.419621   -1.541666
    140          1           0        2.138028   -0.315422    0.189200
    141          1           0        3.202385    0.962238   -0.600084
    142          1           0       -2.399587    5.070350   -2.495147
    143          1           0       -4.892116    5.935588   -1.164848
    144          1           0       -1.732359    5.071399    0.155412
    145          1           0       -2.918020    6.459866    0.055570
    146          1           0       -1.403855    6.352584   -0.889547
    147          1           0       -5.171304    4.503621   -3.593021
    148          1           0       -3.945502    5.700024   -3.953447
    149          1           0       -5.425436    7.127511   -4.458257
    150          1           0       -5.984319    7.257074   -2.802144
    151          1           0       -6.692381    6.030143   -4.045008
    152          1           0       -9.029606    4.522654   -0.656063
    153          1           0      -10.013853    3.796115    0.581180
    154          1           0      -10.409282    3.388802   -1.115196
    155          1           0       -9.332283   -2.041091   -0.326880
    156          1           0      -11.019525   -3.449085    3.463218
    157          1           0       -9.502324   -2.770377    4.028467
    158          1           0       -9.553085   -4.417211    3.470105
 ---------------------------------------------------------------------

 SCF Done:  E(RCAM-B3LYP) =  -4069.80606252     A.U. after   19 cycles

 Excitation energies and oscillator strengths:

 Excited State   1:      Singlet-A      1.6873 eV  734.82 nm  f=0.6332  <S**2>=0.000
     310 -> 316       -0.14441
     311 -> 313        0.36786
     312 -> 314        0.58137
 This state for optimization and/or second-order correction.
 Total Energy, E(TD-HF/TD-DFT) =  -4069.74405656
 Copying the excited state density for this state as the 1-particle RhoCI density.

 Excited State   2:      Singlet-A      1.6895 eV  733.83 nm  f=0.2032  <S**2>=0.000
     309 -> 315       -0.14834
     311 -> 313        0.58009
     312 -> 314       -0.36844

 Excited State   3:      Singlet-A      2.2137 eV  560.06 nm  f=0.0954  <S**2>=0.000
     309 -> 313        0.64020
     311 -> 315        0.26991

 Excited State   4:      Singlet-A      2.2350 eV  554.74 nm  f=0.0014  <S**2>=0.000
     312 -> 313        0.70025

 Excited State   5:      Singlet-A      2.2921 eV  540.91 nm  f=0.0895  <S**2>=0.000
     310 -> 314        0.62519
     312 -> 316        0.31720

 The electronic state is 1-A.
 Alpha  occ. eigenvalues --  -46.88282 -46.88016 -19.26955 -19.26516 -19.21129
 Alpha  occ. eigenvalues --  -19.20642 -19.19686 -19.19580 -19.18641 -19.17870
 Alpha  occ. eigenvalues --  -14.42485 -14.42233 -14.41599 -14.41292 -14.39675
 Alpha  occ. eigenvalues --  -14.39309 -14.39259 -14.38956 -10.40620 -10.40225
 Alpha  occ. eigenvalues --  -10.36172 -10.35180 -10.35143 -10.34239 -10.32056
 Alpha  occ. eigenvalues --  -10.31871 -10.31615 -10.31174 -10.30779 -10.30659
 Alpha  occ. eigenvalues --  -10.30651 -10.30308 -10.30226 -10.30194 -10.29973
 Alpha  occ. eigenvalues --  -10.29926 -10.29871 -10.29829 -10.29818 -10.29661
 Alpha  occ. eigenvalues --  -10.29425 -10.29133 -10.29094 -10.28898 -10.28842
 Alpha  occ. eigenvalues --  -10.28751 -10.28700 -10.28623 -10.28417 -10.28347
 Alpha  occ. eigenvalues --  -10.28300 -10.27976 -10.27885 -10.27864 -10.27795
 Alpha  occ. eigenvalues --  -10.27696 -10.27661 -10.27487 -10.27277 -10.27194
 Alpha  occ. eigenvalues --  -10.27069 -10.27067 -10.27062 -10.26888 -10.26856
 Alpha  occ. eigenvalues --  -10.26669 -10.26654 -10.26574 -10.26570 -10.26445
 Alpha  occ. eigenvalues --  -10.26157 -10.26127 -10.25819 -10.25746 -10.25660
 Alpha  occ. eigenvalues --  -10.25650 -10.25418 -10.25342 -10.25324 -10.25317
 Alpha  occ. eigenvalues --  -10.25305 -10.25203 -10.25159 -10.25060 -10.24912
 Alpha  occ. eigenvalues --  -10.24858  -3.16882  -3.16669  -1.91788  -1.91552
 Alpha  occ. eigenvalues --   -1.91314  -1.91200  -1.91109  -1.90996  -1.19002
 Alpha  occ. eigenvalues --   -1.16153  -1.12360  -1.10057  -1.09422  -1.08716
 Alpha  occ. eigenvalues --   -1.08347  -1.07750  -1.04413  -1.03540  -1.03536
 Alpha  occ. eigenvalues --   -1.02889  -1.02880  -1.02307  -1.01523  -1.01310
 Alpha  occ. eigenvalues --   -0.93159  -0.92286  -0.88774  -0.88661  -0.88503
 Alpha  occ. eigenvalues --   -0.88484  -0.87856  -0.87614  -0.87251  -0.86964
 Alpha  occ. eigenvalues --   -0.86681  -0.86500  -0.86158  -0.85744  -0.84312
 Alpha  occ. eigenvalues --   -0.83987  -0.83649  -0.83381  -0.82457  -0.82445
 Alpha  occ. eigenvalues --   -0.81539  -0.81123  -0.80998  -0.80891  -0.80084
 Alpha  occ. eigenvalues --   -0.79849  -0.77840  -0.77708  -0.77332  -0.77299
 Alpha  occ. eigenvalues --   -0.76964  -0.76542  -0.76147  -0.75973  -0.75096
 Alpha  occ. eigenvalues --   -0.74302  -0.73154  -0.72065  -0.71382  -0.70624
 Alpha  occ. eigenvalues --   -0.69009  -0.68886  -0.68683  -0.68259  -0.68089
 Alpha  occ. eigenvalues --   -0.67675  -0.66584  -0.66319  -0.66240  -0.65051
 Alpha  occ. eigenvalues --   -0.64887  -0.64689  -0.64665  -0.64542  -0.64038
 Alpha  occ. eigenvalues --   -0.64034  -0.62707  -0.62287  -0.60285  -0.59815
 Alpha  occ. eigenvalues --   -0.59696  -0.59397  -0.59236  -0.58846  -0.58644
 Alpha  occ. eigenvalues --   -0.58218  -0.58205  -0.57932  -0.57523  -0.56938
 Alpha  occ. eigenvalues --   -0.56700  -0.55993  -0.55819  -0.55488  -0.55180
 Alpha  occ. eigenvalues --   -0.54829  -0.54591  -0.54471  -0.54061  -0.53702
 Alpha  occ. eigenvalues --   -0.53494  -0.53456  -0.53197  -0.52803  -0.52584
 Alpha  occ. eigenvalues --   -0.52432  -0.52246  -0.52189  -0.52099  -0.51987
 Alpha  occ. eigenvalues --   -0.51599  -0.51410  -0.51320  -0.51189  -0.51146
 Alpha  occ. eigenvalues --   -0.50995  -0.50888  -0.50801  -0.50480  -0.50236
 Alpha  occ. eigenvalues --   -0.50150  -0.49833  -0.49784  -0.49306  -0.49107
 Alpha  occ. eigenvalues --   -0.48989  -0.48929  -0.48845  -0.48637  -0.48457
 Alpha  occ. eigenvalues --   -0.48321  -0.48226  -0.48048  -0.47954  -0.47854
 Alpha  occ. eigenvalues --   -0.47716  -0.47612  -0.47549  -0.47350  -0.46906
 Alpha  occ. eigenvalues --   -0.46814  -0.46646  -0.46476  -0.46393  -0.46205
 Alpha  occ. eigenvalues --   -0.46007  -0.45936  -0.45742  -0.45671  -0.45521
 Alpha  occ. eigenvalues --   -0.45333  -0.45240  -0.45120  -0.45036  -0.44871
 Alpha  occ. eigenvalues --   -0.44763  -0.44493  -0.44345  -0.44187  -0.44004
 Alpha  occ. eigenvalues --   -0.43864  -0.43768  -0.43730  -0.43553  -0.43342
 Alpha  occ. eigenvalues --   -0.43317  -0.43261  -0.43160  -0.42945  -0.42761
 Alpha  occ. eigenvalues --   -0.42641  -0.42544  -0.42491  -0.42358  -0.41988
 Alpha  occ. eigenvalues --   -0.41852  -0.41469  -0.41362  -0.41008  -0.40911
 Alpha  occ. eigenvalues --   -0.40858  -0.40744  -0.40494  -0.40395  -0.40275
 Alpha  occ. eigenvalues --   -0.39918  -0.39607  -0.39396  -0.39233  -0.38840
 Alpha  occ. eigenvalues --   -0.37996  -0.37981  -0.37822  -0.37662  -0.37407
 Alpha  occ. eigenvalues --   -0.37214  -0.37189  -0.37154  -0.36655  -0.36344
 Alpha  occ. eigenvalues --   -0.36119  -0.35838  -0.35716  -0.34937  -0.34293
 Alpha  occ. eigenvalues --   -0.34089  -0.32884  -0.32504  -0.31932  -0.31237
 Alpha  occ. eigenvalues --   -0.31214  -0.31034  -0.30535  -0.30439  -0.29991
 Alpha  occ. eigenvalues --   -0.29961  -0.29692  -0.29187  -0.23976  -0.23812
 Alpha  occ. eigenvalues --   -0.21158  -0.20370
 Alpha virt. eigenvalues --   -0.08774  -0.08010  -0.01536  -0.00965   0.00260
 Alpha virt. eigenvalues --    0.00342   0.02118   0.02208   0.02411   0.02831
 Alpha virt. eigenvalues --    0.03076   0.04169   0.04723   0.05388   0.05807

 Mulliken charges:
               1
     1  Mg   0.770110
     2  C   -0.011028
     3  C   -0.053356
     4  C   -0.048959
     5  C   -0.097596
     6  N   -0.260819
     7  C   -0.032191
     8  C   -0.038007
     9  C   -0.074294
    10  C    0.033502
    11  C    0.069814
    12  C    0.037646
    13  C   -0.072619
    14  H    0.019923
    15  N   -0.383549
    16  C    0.119884
    17  C   -0.157311
    18  C   -0.043857
    19  C    0.117561
    20  C    0.135438
    21  C    0.007098
    22  O   -0.220077
    23  C    0.047311
    24  N   -0.268634
    25  C    0.005764
    26  C   -0.014120
    27  C   -0.019107
    28  C    0.071577
    29  C    0.090384
    30  C   -0.014637
    31  C    0.000505
    32  N   -0.394426
    33  C    0.132363
    34  C   -0.172164
    35  C    0.038893
    36  C    0.101728
    37  C    0.123667
    38  C    0.020531
    39  O   -0.126974
    40  C   -0.027456
    41  C    0.183003
    42  O   -0.209410
    43  O   -0.274415
    44  C    0.180746
    45  H   -0.036615
    46  H    0.008687
    47  H   -0.023652
    48  H    0.018380
    49  H    0.015140
    50  H    0.037285
    51  H    0.011691
    52  H    0.028627
    53  H    0.009797
    54  H    0.020073
    55  H    0.035416
    56  H    0.048800
    57  H    0.027412
    58  H    0.016948
    59  H    0.019321
    60  H    0.042534
    61  H    0.018076
    62  H    0.042303
    63  H    0.007922
    64  H    0.002606
    65  H    0.030920
    66  H    0.016054
    67  H    0.013080
    68  H    0.013238
    69  H   -0.002706
    70  H    0.027482
    71  H    0.014209
    72  H    0.022359
    73  H    0.015709
    74  H    0.034578
    75  H    0.032331
    76  H    0.027594
    77  H    0.041952
    78  H    0.036137
    79  H    0.007374
    80  Mg   0.836360
    81  C   -0.085259
    82  C   -0.074886
    83  C   -0.081766
    84  C   -0.092198
    85  N   -0.299878
    86  C   -0.060563
    87  C   -0.032750
    88  C   -0.059589
    89  C    0.088259
    90  C    0.072896
    91  C    0.047210
    92  C   -0.050878
    93  H    0.009186
    94  N   -0.369546
    95  C    0.091727
    96  C   -0.126279
    97  C   -0.025910
    98  C    0.095206
    99  C    0.119751
   100  C   -0.006592
   101  O   -0.205220
   102  C    0.007760
   103  N   -0.329468
   104  C    0.079165
   105  C   -0.013917
   106  C   -0.050777
   107  C    0.039765
   108  C    0.083651
   109  C    0.023375
   110  C    0.034206
   111  N   -0.304099
   112  C    0.129693
   113  C   -0.212132
   114  C    0.055278
   115  C    0.125223
   116  C    0.140875
   117  C    0.067173
   118  O   -0.189283
   119  C    0.028996
   120  C    0.231021
   121  O   -0.229140
   122  O   -0.337532
   123  C    0.159326
   124  H   -0.037463
   125  H   -0.010760
   126  H   -0.030010
   127  H    0.018523
   128  H    0.007365
   129  H    0.004107
   130  H    0.020330
   131  H    0.019053
   132  H    0.007155
   133  H    0.014379
   134  H    0.041728
   135  H    0.032296
   136  H    0.020334
   137  H    0.016170
   138  H    0.012219
   139  H    0.048185
   140  H    0.055030
   141  H    0.103910
   142  H    0.003837
   143  H    0.003953
   144  H    0.016803
   145  H    0.022716
   146  H    0.013396
   147  H    0.005466
   148  H    0.010210
   149  H    0.004976
   150  H    0.020422
   151  H    0.021635
   152  H   -0.000012
   153  H    0.033762
   154  H    0.043151
   155  H    0.028958
   156  H    0.045129
   157  H    0.054588
   158  H    0.026516
 Sum of Mulliken charges =  -0.00000

 Dipole moment (field-independent basis, Debye):
    X=              3.2251    Y=             -3.5726    Z=             -0.0356  Tot=              4.8131
 Quadrupole moment (field-independent basis, Debye-Ang):
   XX=           -549.9462   YY=           -497.8213   ZZ=           -489.0433
   XY=              4.3919   XZ=             10.7587   YZ=            -28.1277

 Normal termination of Gaussian 16 at Wed Sep 15 15:38:59 2021.
