 Gaussian 16, Revision A.03,
 Gaussian 16:  ES64L-G16RevA.03 25-Dec-2016

 ----------------------------------------------------------
 #p cam-b3lyp/Def2SVP td=(nstates=5) density=(transition=1)
 ----------------------------------------------------------

 --------------------------------
 TDDFT excited states in gaussian
 --------------------------------
 Symbolic Z-matrix:
 Charge =  0 Multiplicity = 1

                         Standard orientation:
 ---------------------------------------------------------------------
 Center     Atomic      Atomic             Coordinates (Angstroms)
 Number     Number       Type             X           Y           Z
 ---------------------------------------------------------------------
      1         12           0       13.080251    0.133552    0.269811
      2          6           0        9.689940   -0.487299   -0.192520
      3          6           0       13.399814    0.639512   -3.104319
      4          6           0       16.443195    0.414274    0.745244
      5          6           0       12.554090   -0.681492    3.689194
      6          7           0       11.718807    0.048539   -1.447046
      7          6           0       10.360983   -0.105640   -1.350490
      8          6           0        9.802723    0.076829   -2.764011
      9          6           0       11.011331    0.127132   -3.681621
     10          6           0       12.128411    0.322634   -2.662854
     11          6           0       11.268055   -0.999478   -4.646156
     12          6           0        8.776441    1.293667   -2.949197
     13          6           0        8.371417    1.626163   -4.421288
     14          1           0        7.114505    0.940275   -5.017773
     15          7           0       14.651065    0.623175   -0.994958
     16          6           0       14.592589    0.760943   -2.342973
     17          6           0       15.939518    1.001045   -2.791528
     18          6           0       16.814829    0.927500   -1.668304
     19          6           0       16.002749    0.623615   -0.577191
     20          6           0       16.222224    1.253367   -4.240386
     21          6           0       18.369344    0.997000   -1.704558
     22          8           0       19.051656    0.588474   -0.781993
     23          6           0       19.128234    1.432079   -2.865878
     24          7           0       14.228221   -0.087243    1.886829
     25          6           0       15.607491    0.118537    1.887146
     26          6           0       16.226387   -0.037879    3.287044
     27          6           0       14.948676   -0.095786    4.191650
     28          6           0       13.828539   -0.253787    3.176666
     29          6           0       17.286462   -1.049880    3.431963
     30          6           0       14.684661    1.088078    5.277415
     31          6           0       14.568076    0.765365    6.770102
     32          7           0       11.432115   -0.537254    1.556553
     33          6           0       11.413309   -0.827877    2.891850
     34          6           0       10.108111   -1.204724    3.319185
     35          6           0        9.331493   -1.012310    2.113240
     36          6           0       10.223924   -0.688827    1.053009
     37          6           0        9.755554   -1.560407    4.713193
     38          6           0        7.981777   -0.996874    1.597835
     39          8           0        6.883704   -1.140791    2.098468
     40          6           0        8.190409   -0.648147    0.008916
     41          6           0        7.477372   -1.619031   -0.859855
     42          8           0        7.781916   -2.787873   -0.953612
     43          8           0        6.465478   -1.054059   -1.541558
     44          6           0        5.831570   -1.873380   -2.644748
     45          1           0       13.498190    0.854432   -4.170685
     46          1           0       17.524436    0.502590    0.868636
     47          1           0       12.595346   -0.868245    4.764481
     48          1           0        9.257260   -0.860828   -2.869744
     49          1           0       10.926182    0.990352   -4.341226
     50          1           0       12.113105   -1.467493   -4.142162
     51          1           0       11.463934   -0.648859   -5.659569
     52          1           0       10.477796   -1.750309   -4.628664
     53          1           0        9.341652    2.120779   -2.519113
     54          1           0        7.869605    1.102261   -2.376724
     55          1           0        9.158833    1.359662   -5.125193
     56          1           0        8.237631    2.705497   -4.493564
     57          1           0       15.377602    1.334480   -4.925299
     58          1           0       16.765821    0.375379   -4.587723
     59          1           0       16.894575    2.095671   -4.404581
     60          1           0       18.899218    1.026726   -3.850909
     61          1           0       20.212150    1.380259   -2.764041
     62          1           0       18.945272    2.506402   -2.861620
     63          1           0       16.660361    0.959686    3.360368
     64          1           0       15.095575   -1.085153    4.624567
     65          1           0       18.283108   -0.689559    3.688274
     66          1           0       17.356900   -1.585970    2.485162
     67          1           0       17.099404   -1.780756    4.218583
     68          1           0       13.752707    1.580098    4.999718
     69          1           0       15.393034    1.917111    5.298754
     70          1           0       13.551499    0.775298    7.164124
     71          1           0       15.261420    1.308454    7.411682
     72          1           0       14.826913   -0.286308    6.893702
     73          1           0       10.514253   -2.241734    5.097525
     74          1           0        8.748273   -1.966479    4.801911
     75          1           0        9.959414   -0.684845    5.330419
     76          1           0        7.703636    0.315242   -0.139359
     77          1           0        4.867351   -1.380047   -2.765145
     78          1           0        5.742409   -2.904987   -2.304849
     79          1           0        6.445820   -1.726751   -3.533295
     80         12           0      -12.572950   -0.485867   -0.425430
     81          6           0      -12.286174    2.888748    0.274058
     82          6           0       -9.069646   -0.584744   -0.982124
     83          6           0      -12.668731   -3.908453   -0.562888
     84          6           0      -15.877288   -0.474848    0.579674
     85          7           0      -10.937212    1.036659   -0.476434
     86          6           0      -11.058279    2.342534   -0.050054
     87          6           0       -9.683115    3.094075    0.104061
     88          6           0       -8.709310    2.096093   -0.683276
     89          6           0       -9.595087    0.733677   -0.792390
     90          6           0       -8.126764    2.530806   -2.081870
     91          6           0       -9.240545    3.328386    1.505538
     92          6           0       -9.035858    4.736739    2.029779
     93          1           0       -7.990244    4.895919    3.145177
     94          7           0      -11.075413   -2.037352   -0.827145
     95          6           0       -9.709988   -1.803173   -1.076459
     96          6           0       -9.063513   -3.035420   -1.398762
     97          6           0      -10.090296   -4.074512   -1.123581
     98          6           0      -11.371512   -3.374266   -0.799055
     99          6           0       -7.560467   -3.174647   -1.661814
    100          6           0       -9.758073   -5.573435   -1.225253
    101          8           0       -8.672486   -6.077504   -1.498277
    102          6           0      -10.739880   -6.523629   -0.636617
    103          7           0      -14.074801   -2.070211    0.143889
    104          6           0      -13.886979   -3.352428   -0.197115
    105          6           0      -15.028180   -4.142912    0.441275
    106          6           0      -16.168565   -3.067115    0.760018
    107          6           0      -15.346598   -1.736698    0.453004
    108          6           0      -15.593397   -5.180468   -0.592347
    109          6           0      -16.840740   -3.032454    2.193725
    110          6           0      -18.313591   -3.372637    2.365781
    111          7           0      -13.901920    0.951708    0.226427
    112          6           0      -15.250725    0.826375    0.573549
    113          6           0      -15.758605    2.087692    1.019486
    114          6           0      -14.635205    2.967145    0.935201
    115          6           0      -13.545290    2.184066    0.387907
    116          6           0      -17.136629    2.422239    1.496829
    117          6           0      -14.166627    4.282516    1.088295
    118          8           0      -14.783664    5.256496    1.470695
    119          6           0      -12.624936    4.281285    0.752595
    120          6           0      -12.331130    5.439650   -0.105618
    121          8           0      -11.771819    6.452495    0.299281
    122          8           0      -12.799278    5.213065   -1.391307
    123          6           0      -12.575704    6.360437   -2.299365
    124          1           0       -8.013654   -0.730827   -1.216924
    125          1           0      -12.628552   -4.989801   -0.712331
    126          1           0      -16.909877   -0.500078    0.933694
    127          1           0       -9.730620    4.046195   -0.423295
    128          1           0       -7.901754    1.847241    0.006154
    129          1           0       -8.318528    3.598383   -2.189151
    130          1           0       -8.537053    1.988106   -2.933584
    131          1           0       -7.062491    2.298864   -2.066549
    132          1           0       -8.253143    2.872845    1.594385
    133          1           0       -9.956212    2.888707    2.199405
    134          1           0       -9.969669    5.055608    2.491916
    135          1           0       -8.706698    5.439000    1.264231
    136          1           0       -6.885827   -2.324512   -1.563152
    137          1           0       -7.547516   -3.615845   -2.658142
    138          1           0       -7.284174   -4.037856   -1.057155
    139          1           0      -11.544078   -6.920251   -1.254855
    140          1           0      -11.142482   -6.166032    0.311204
    141          1           0      -10.174681   -7.425649   -0.399139
    142          1           0      -14.725964   -4.664701    1.349582
    143          1           0      -16.932017   -3.088448   -0.016876
    144          1           0      -15.632200   -6.142258   -0.080942
    145          1           0      -15.028545   -5.274864   -1.520639
    146          1           0      -16.595017   -4.933766   -0.945227
    147          1           0      -16.656474   -2.016443    2.542122
    148          1           0      -16.310984   -3.791605    2.770852
    149          1           0      -18.611887   -2.873256    3.287938
    150          1           0      -18.410774   -4.446589    2.526302
    151          1           0      -19.037331   -3.060822    1.613480
    152          1           0      -17.117758    3.485255    1.738544
    153          1           0      -17.350279    1.772181    2.344745
    154          1           0      -17.929508    2.284863    0.761373
    155          1           0      -12.154551    4.465863    1.718985
    156          1           0      -13.429687    7.036855   -2.265317
    157          1           0      -12.352815    5.927979   -3.274738
    158          1           0      -11.673469    6.913357   -2.039470
 ---------------------------------------------------------------------

 SCF Done:  E(RCAM-B3LYP) =  -4069.79922395     A.U. after   18 cycles

 Excitation energies and oscillator strengths:

 Excited State   1:      Singlet-A      1.6976 eV  730.33 nm  f=0.4799  <S**2>=0.000
     310 -> 316       -0.17686
     311 -> 313        0.10843
     312 -> 314        0.67722
     310 <- 316       -0.10698
 This state for optimization and/or second-order correction.
 Total Energy, E(TD-HF/TD-DFT) =  -4069.73683682
 Copying the excited state density for this state as the 1-particle RhoCI density.

 Excited State   2:      Singlet-A      1.7141 eV  723.33 nm  f=0.3083  <S**2>=0.000
     309 -> 315       -0.17209
     311 -> 313        0.67775
     312 -> 314       -0.10809
     309 <- 315       -0.10358

 Excited State   3:      Singlet-A      2.1721 eV  570.81 nm  f=0.1595  <S**2>=0.000
     309 -> 313        0.65194
     311 -> 315        0.25357

 Excited State   4:      Singlet-A      2.2225 eV  557.85 nm  f=0.0943  <S**2>=0.000
     310 -> 314        0.63233
     312 -> 316        0.30134

 Excited State   5:      Singlet-A      2.7470 eV  451.34 nm  f=0.0000  <S**2>=0.000
     312 -> 313        0.70706

 The electronic state is 1-A.
 Alpha  occ. eigenvalues --  -46.90427 -46.87891 -19.25085 -19.24448 -19.19786
 Alpha  occ. eigenvalues --  -19.19091 -19.19043 -19.18678 -19.18281 -19.18250
 Alpha  occ. eigenvalues --  -14.43431 -14.42726 -14.42057 -14.41937 -14.39991
 Alpha  occ. eigenvalues --  -14.39818 -14.39062 -14.38452 -10.39083 -10.37989
 Alpha  occ. eigenvalues --  -10.35596 -10.35208 -10.34665 -10.34139 -10.33053
 Alpha  occ. eigenvalues --  -10.32141 -10.32018 -10.31631 -10.31612 -10.31611
 Alpha  occ. eigenvalues --  -10.31483 -10.31139 -10.31130 -10.30770 -10.30458
 Alpha  occ. eigenvalues --  -10.30363 -10.30069 -10.29818 -10.29773 -10.29711
 Alpha  occ. eigenvalues --  -10.29642 -10.29361 -10.29036 -10.29006 -10.28647
 Alpha  occ. eigenvalues --  -10.28623 -10.28456 -10.28381 -10.28309 -10.28235
 Alpha  occ. eigenvalues --  -10.28217 -10.28191 -10.28152 -10.28138 -10.28120
 Alpha  occ. eigenvalues --  -10.28086 -10.27845 -10.27553 -10.27550 -10.27549
 Alpha  occ. eigenvalues --  -10.27405 -10.27282 -10.27279 -10.27224 -10.27152
 Alpha  occ. eigenvalues --  -10.27064 -10.27045 -10.26981 -10.26965 -10.26961
 Alpha  occ. eigenvalues --  -10.26929 -10.26876 -10.26871 -10.26755 -10.26262
 Alpha  occ. eigenvalues --  -10.26175 -10.26165 -10.26131 -10.26006 -10.25856
 Alpha  occ. eigenvalues --  -10.25767 -10.25595 -10.25499 -10.25347 -10.25255
 Alpha  occ. eigenvalues --  -10.24854  -3.18638  -3.16551  -1.93566  -1.93069
 Alpha  occ. eigenvalues --   -1.92940  -1.91466  -1.91008  -1.90853  -1.15873
 Alpha  occ. eigenvalues --   -1.15497  -1.10994  -1.09990  -1.09719  -1.09508
 Alpha  occ. eigenvalues --   -1.07440  -1.06757  -1.05256  -1.04764  -1.04124
 Alpha  occ. eigenvalues --   -1.04002  -1.03329  -1.02513  -1.02366  -1.01680
 Alpha  occ. eigenvalues --   -0.92533  -0.92450  -0.89445  -0.89317  -0.89235
 Alpha  occ. eigenvalues --   -0.88719  -0.88347  -0.88144  -0.87639  -0.87585
 Alpha  occ. eigenvalues --   -0.87121  -0.86987  -0.86716  -0.85755  -0.84656
 Alpha  occ. eigenvalues --   -0.84458  -0.83795  -0.83720  -0.82840  -0.82653
 Alpha  occ. eigenvalues --   -0.82493  -0.82167  -0.81429  -0.80837  -0.80761
 Alpha  occ. eigenvalues --   -0.80698  -0.78807  -0.77808  -0.77783  -0.77303
 Alpha  occ. eigenvalues --   -0.77136  -0.76925  -0.76169  -0.75914  -0.75475
 Alpha  occ. eigenvalues --   -0.75163  -0.73448  -0.72793  -0.72230  -0.71831
 Alpha  occ. eigenvalues --   -0.69407  -0.69345  -0.68957  -0.68940  -0.68243
 Alpha  occ. eigenvalues --   -0.67934  -0.67070  -0.66932  -0.65584  -0.65563
 Alpha  occ. eigenvalues --   -0.65436  -0.65413  -0.65194  -0.64751  -0.64699
 Alpha  occ. eigenvalues --   -0.64220  -0.62966  -0.61449  -0.60543  -0.60194
 Alpha  occ. eigenvalues --   -0.59771  -0.59696  -0.59401  -0.59011  -0.58969
 Alpha  occ. eigenvalues --   -0.58845  -0.57973  -0.57738  -0.57320  -0.56938
 Alpha  occ. eigenvalues --   -0.56495  -0.56376  -0.55921  -0.55767  -0.55434
 Alpha  occ. eigenvalues --   -0.55396  -0.54797  -0.54766  -0.54593  -0.53823
 Alpha  occ. eigenvalues --   -0.53799  -0.53467  -0.53179  -0.53174  -0.52979
 Alpha  occ. eigenvalues --   -0.52768  -0.52735  -0.52608  -0.52419  -0.52354
 Alpha  occ. eigenvalues --   -0.52095  -0.52036  -0.51781  -0.51332  -0.51275
 Alpha  occ. eigenvalues --   -0.51009  -0.50885  -0.50858  -0.50506  -0.50317
 Alpha  occ. eigenvalues --   -0.50316  -0.50154  -0.49942  -0.49651  -0.49456
 Alpha  occ. eigenvalues --   -0.49442  -0.49367  -0.49159  -0.49079  -0.49010
 Alpha  occ. eigenvalues --   -0.48817  -0.48645  -0.48596  -0.48254  -0.48243
 Alpha  occ. eigenvalues --   -0.47903  -0.47734  -0.47730  -0.47460  -0.47119
 Alpha  occ. eigenvalues --   -0.47114  -0.46955  -0.46850  -0.46655  -0.46603
 Alpha  occ. eigenvalues --   -0.46554  -0.46528  -0.46270  -0.46078  -0.46068
 Alpha  occ. eigenvalues --   -0.45936  -0.45778  -0.45626  -0.45258  -0.45168
 Alpha  occ. eigenvalues --   -0.45138  -0.45130  -0.44819  -0.44612  -0.44465
 Alpha  occ. eigenvalues --   -0.44421  -0.44255  -0.44065  -0.44023  -0.43698
 Alpha  occ. eigenvalues --   -0.43670  -0.43575  -0.43383  -0.42917  -0.42826
 Alpha  occ. eigenvalues --   -0.42721  -0.42700  -0.42380  -0.42186  -0.41970
 Alpha  occ. eigenvalues --   -0.41837  -0.41533  -0.41532  -0.41443  -0.41303
 Alpha  occ. eigenvalues --   -0.41215  -0.40976  -0.40422  -0.40398  -0.40206
 Alpha  occ. eigenvalues --   -0.39911  -0.39654  -0.39523  -0.39399  -0.39289
 Alpha  occ. eigenvalues --   -0.38801  -0.38297  -0.37802  -0.37755  -0.37352
 Alpha  occ. eigenvalues --   -0.37273  -0.37151  -0.36900  -0.36740  -0.36304
 Alpha  occ. eigenvalues --   -0.36079  -0.35830  -0.34440  -0.34260  -0.34082
 Alpha  occ. eigenvalues --   -0.33999  -0.33276  -0.33004  -0.31703  -0.31319
 Alpha  occ. eigenvalues --   -0.31152  -0.30982  -0.30475  -0.30226  -0.30135
 Alpha  occ. eigenvalues --   -0.29732  -0.29517  -0.29061  -0.24556  -0.24219
 Alpha  occ. eigenvalues --   -0.22096  -0.21140
 Alpha virt. eigenvalues --   -0.09666  -0.08810  -0.02278  -0.01888   0.00084
 Alpha virt. eigenvalues --    0.00602   0.02273   0.02389   0.02718   0.03365
 Alpha virt. eigenvalues --    0.04571   0.04670   0.05225   0.05318   0.05920

 Mulliken charges:
               1
     1  Mg  12.003208
     2  C    6.023040
     3  C    5.979073
     4  C    5.977006
     5  C    6.016663
     6  N    7.005790
     7  C    5.962681
     8  C    6.007459
     9  C    5.992714
    10  C    6.029310
    11  C    5.998897
    12  C    6.005257
    13  C    5.998649
    14  H    1.000814
    15  N    6.991639
    16  C    6.041631
    17  C    6.028048
    18  C    6.008800
    19  C    6.040225
    20  C    5.993328
    21  C    6.012494
    22  O    8.021588
    23  C    5.991980
    24  N    6.995776
    25  C    6.045281
    26  C    5.989776
    27  C    6.015261
    28  C    5.962098
    29  C    5.997485
    30  C    6.002950
    31  C    6.000344
    32  N    7.006090
    33  C    5.961906
    34  C    5.968695
    35  C    5.996456
    36  C    5.964294
    37  C    6.002845
    38  C    5.984590
    39  O    7.968965
    40  C    5.996470
    41  C    5.996424
    42  O    7.995320
    43  O    7.998959
    44  C    6.001475
    45  H    1.008300
    46  H    1.008971
    47  H    0.988471
    48  H    1.000316
    49  H    0.999658
    50  H    0.995148
    51  H    1.000509
    52  H    1.012986
    53  H    0.993354
    54  H    1.005479
    55  H    0.992740
    56  H    0.997577
    57  H    1.022111
    58  H    1.023167
    59  H    1.021625
    60  H    1.005071
    61  H    1.014665
    62  H    1.007712
    63  H    0.999444
    64  H    0.997422
    65  H    1.002269
    66  H    0.996627
    67  H    1.013353
    68  H    1.003305
    69  H    0.987682
    70  H    1.004526
    71  H    0.994179
    72  H    0.997946
    73  H    0.980265
    74  H    0.984969
    75  H    0.977885
    76  H    0.992823
    77  H    0.996229
    78  H    0.998127
    79  H    0.993338
    80  Mg  12.000110
    81  C    6.003767
    82  C    5.999251
    83  C    5.994050
    84  C    6.000244
    85  N    7.002185
    86  C    5.995137
    87  C    6.001655
    88  C    5.999272
    89  C    6.004807
    90  C    5.999089
    91  C    5.999767
    92  C    6.000071
    93  H    0.999941
    94  N    6.997621
    95  C    6.007078
    96  C    6.002994
    97  C    6.001765
    98  C    6.007611
    99  C    5.999470
   100  C    6.001606
   101  O    8.003356
   102  C    5.999019
   103  N    6.998694
   104  C    6.005966
   105  C    5.998510
   106  C    6.000595
   107  C    5.996256
   108  C    5.999674
   109  C    6.000717
   110  C    6.000177
   111  N    7.000899
   112  C    5.993344
   113  C    5.996039
   114  C    5.999343
   115  C    5.994513
   116  C    6.000109
   117  C    5.997401
   118  O    7.994539
   119  C    5.999415
   120  C    5.999173
   121  O    7.998867
   122  O    8.000401
   123  C    6.000539
   124  H    1.002520
   125  H    0.999708
   126  H    0.997585
   127  H    1.000279
   128  H    1.000935
   129  H    1.002279
   130  H    0.999867
   131  H    1.000897
   132  H    0.999005
   133  H    1.000789
   134  H    1.000888
   135  H    0.999698
   136  H    1.003323
   137  H    1.002681
   138  H    1.002835
   139  H    1.001910
   140  H    1.001652
   141  H    1.001818
   142  H    1.000329
   143  H    0.999690
   144  H    0.999968
   145  H    0.999118
   146  H    1.000948
   147  H    1.001194
   148  H    0.998219
   149  H    0.999830
   150  H    0.998701
   151  H    0.999781
   152  H    0.997883
   153  H    0.997059
   154  H    0.996581
   155  H    0.999197
   156  H    0.999805
   157  H    0.998855
   158  H    0.999134
 Sum of Mulliken charges = 624.00000

 Dipole moment (field-independent basis, Debye):
    X=             10.1236    Y=              1.2409    Z=             -6.7131  Tot=             12.2103
 Quadrupole moment (field-independent basis, Debye-Ang):
   XX=            193.7926   YY=              0.0194   ZZ=             -4.2996
   XY=             41.0925   XZ=            -75.6276   YZ=              0.8814

 Normal termination of Gaussian 16 at Thu Sep 23 01:27:59 2021.
