 Gaussian 16, Revision A.03,
 Gaussian 16:  ES64L-G16RevA.03 25-Dec-2016

 ----------------------------------------------------------
 #p cam-b3lyp/Def2SVP td=(nstates=5) density=(transition=1)
 ----------------------------------------------------------

 --------------------------------
 TDDFT excited states in gaussian
 --------------------------------
 Symbolic Z-matrix:
 Charge =  0 Multiplicity = 1

                         Standard orientation:
 ---------------------------------------------------------------------
 Center     Atomic      Atomic             Coordinates (Angstroms)
 Number     Number       Type             X           Y           Z
 ---------------------------------------------------------------------
      1         12           0      -13.393821   -0.397574    0.272436
      2          6           0      -12.983426    2.892046   -0.668845
      3          6           0      -12.044814    0.442730    3.302471
      4          6           0      -13.521245   -3.668663    1.101983
      5          6           0      -14.194936   -1.238729   -3.004728
      6          7           0      -12.479758    1.508568    1.104321
      7          6           0      -12.604118    2.696121    0.650723
      8          6           0      -12.101433    3.892687    1.611930
      9          6           0      -11.520760    3.003633    2.781551
     10          6           0      -11.956396    1.518181    2.369332
     11          6           0       -9.909407    3.024160    2.923703
     12          6           0      -13.227352    4.914642    2.076928
     13          6           0      -12.801665    6.403636    2.334426
     14          1           0      -11.329867    6.684889    2.370934
     15          7           0      -12.947017   -1.436316    1.940391
     16          6           0      -12.452252   -0.899249    3.193364
     17          6           0      -12.368777   -2.006577    4.140011
     18          6           0      -12.685450   -3.223071    3.485556
     19          6           0      -13.115124   -2.807010    2.131343
     20          6           0      -12.007836   -1.670058    5.542054
     21          6           0      -12.740711   -4.677200    4.009694
     22          8           0      -12.925455   -5.652401    3.344057
     23          6           0      -12.347804   -4.848609    5.491016
     24          7           0      -13.692618   -2.267730   -0.783322
     25          6           0      -13.700151   -3.454827   -0.264653
     26          6           0      -13.765155   -4.560122   -1.356593
     27          6           0      -14.094138   -3.780864   -2.652492
     28          6           0      -14.014608   -2.321670   -2.145355
     29          6           0      -12.443684   -5.355177   -1.420590
     30          6           0      -15.463965   -4.198662   -3.269899
     31          6           0      -15.486824   -5.593752   -3.915174
     32          7           0      -13.571006    0.598256   -1.525789
     33          6           0      -14.006231    0.124734   -2.750778
     34          6           0      -14.087386    1.264879   -3.625365
     35          6           0      -13.659324    2.418375   -2.902369
     36          6           0      -13.399175    1.896367   -1.605980
     37          6           0      -14.462698    1.216900   -4.990755
     38          6           0      -13.471004    3.834065   -2.888873
     39          8           0      -13.557520    4.649382   -3.854974
     40          6           0      -12.907819    4.160166   -1.451405
     41          6           0      -11.599508    4.754188   -1.625320
     42          8           0      -10.564223    4.114746   -1.809842
     43          8           0      -11.779158    6.112095   -1.698378
     44          6           0      -10.565310    6.834815   -2.133541
     45          1           0      -11.594111    0.675305    4.269070
     46          1           0      -13.560948   -4.703824    1.449370
     47          1           0      -14.520012   -1.545285   -4.001586
     48          1           0      -11.286729    4.345069    1.045929
     49          1           0      -11.921995    3.335986    3.738765
     50          1           0       -9.493571    3.370291    1.977034
     51          1           0       -9.547624    2.019334    3.141186
     52          1           0       -9.501497    3.653735    3.715165
     53          1           0      -13.570247    4.499927    3.024465
     54          1           0      -14.181187    4.856096    1.551517
     55          1           0      -13.209389    6.824658    3.253368
     56          1           0      -13.143149    7.017936    1.501233
     57          1           0      -10.924983   -1.615151    5.657529
     58          1           0      -12.528091   -2.285930    6.275768
     59          1           0      -12.412126   -0.677592    5.739784
     60          1           0      -13.102987   -4.514941    6.203362
     61          1           0      -11.434031   -4.257091    5.537978
     62          1           0      -12.051118   -5.853300    5.790660
     63          1           0      -14.616333   -5.158029   -1.031733
     64          1           0      -13.285536   -3.911421   -3.371633
     65          1           0      -11.559154   -4.833839   -1.053991
     66          1           0      -12.073057   -5.655163   -2.401330
     67          1           0      -12.616019   -6.245165   -0.815412
     68          1           0      -15.714533   -3.501551   -4.068295
     69          1           0      -16.244401   -4.135886   -2.510804
     70          1           0      -14.523705   -6.063599   -3.715755
     71          1           0      -15.433036   -5.480005   -4.997992
     72          1           0      -16.329854   -6.254648   -3.715081
     73          1           0      -15.332003    0.559498   -5.010240
     74          1           0      -13.733874    0.787181   -5.677772
     75          1           0      -14.605490    2.238066   -5.345711
     76          1           0      -13.598587    4.921735   -1.088575
     77          1           0      -10.389052    6.532273   -3.166157
     78          1           0       -9.737049    6.694806   -1.439723
     79          1           0      -10.805047    7.898231   -2.129526
     80         12           0       12.468508   -0.633835   -0.182682
     81          6           0       15.077507    1.542981   -0.173122
     82          6           0       10.162178    1.788361    0.664007
     83          6           0       10.039278   -3.043543   -0.058118
     84          6           0       14.841409   -3.327562   -0.634413
     85          7           0       12.659975    1.368696    0.397371
     86          6           0       13.815034    2.158706    0.078613
     87          6           0       13.497134    3.599843    0.121073
     88          6           0       12.047880    3.581377    0.785547
     89          6           0       11.546452    2.162860    0.630725
     90          6           0       12.055631    4.018624    2.335045
     91          6           0       13.689303    4.351622   -1.231878
     92          6           0       14.389390    5.668866   -1.135872
     93          1           0       14.011202    6.567751    0.106651
     94          7           0       10.369743   -0.615114    0.174260
     95          6           0        9.670258    0.504101    0.515499
     96          6           0        8.305428    0.128469    0.658246
     97          6           0        8.186660   -1.286498    0.366730
     98          6           0        9.582750   -1.743505    0.056993
     99          6           0        7.226964    1.118914    1.149111
    100          6           0        7.020777   -2.222371    0.294591
    101          8           0        7.028053   -3.448644    0.138825
    102          6           0        5.605468   -1.535445    0.380961
    103          7           0       12.440122   -2.938170   -0.222570
    104          6           0       11.325868   -3.625896   -0.253873
    105          6           0       11.550343   -5.080952   -0.660149
    106          6           0       13.093743   -5.151004   -0.840157
    107          6           0       13.506855   -3.713561   -0.530148
    108          6           0       11.003619   -6.146255    0.420175
    109          6           0       13.415402   -5.569539   -2.342350
    110          6           0       13.083724   -4.624193   -3.523377
    111          7           0       14.557929   -0.888582   -0.207670
    112          6           0       15.331454   -2.008148   -0.449425
    113          6           0       16.719422   -1.528112   -0.607216
    114          6           0       16.731205   -0.167732   -0.531262
    115          6           0       15.353337    0.174812   -0.278684
    116          6           0       17.909831   -2.421930   -0.668878
    117          6           0       17.537804    1.051530   -0.579256
    118          8           0       18.735694    1.216731   -0.738002
    119          6           0       16.463531    2.200238   -0.334791
    120          6           0       16.827612    2.874337    0.928022
    121          8           0       16.979160    2.364602    2.051932
    122          8           0       16.971471    4.199669    0.570736
    123          6           0       17.155796    5.117200    1.702729
    124          1           0        9.393754    2.533591    0.879214
    125          1           0        9.199517   -3.739808   -0.119611
    126          1           0       15.562975   -4.117876   -0.848771
    127          1           0       14.230202    4.016220    0.813137
    128          1           0       11.409107    4.251854    0.211431
    129          1           0       12.981066    4.502069    2.648017
    130          1           0       12.058752    3.091394    2.907878
    131          1           0       11.128405    4.580025    2.442095
    132          1           0       12.717483    4.538707   -1.688766
    133          1           0       14.297522    3.653400   -1.806731
    134          1           0       14.158468    6.335896   -1.965511
    135          1           0       15.476847    5.740741   -1.159593
    136          1           0        6.879008    1.844803    0.414280
    137          1           0        7.704395    1.565779    2.021004
    138          1           0        6.280661    0.633701    1.387270
    139          1           0        5.431360   -1.214039    1.407873
    140          1           0        4.883895   -2.192023   -0.104841
    141          1           0        5.500195   -0.668686   -0.271854
    142          1           0       11.069464   -5.248037   -1.623670
    143          1           0       13.577583   -5.875654   -0.185202
    144          1           0       10.099537   -6.573288   -0.015332
    145          1           0       10.741434   -5.638448    1.348905
    146          1           0       11.612626   -7.010325    0.682790
    147          1           0       13.025105   -6.541426   -2.643913
    148          1           0       14.504875   -5.607589   -2.314756
    149          1           0       14.071913   -4.384885   -3.916451
    150          1           0       12.513643   -3.748883   -3.214553
    151          1           0       12.483959   -5.088491   -4.306165
    152          1           0       18.589992   -1.865024   -1.312609
    153          1           0       17.679428   -3.408824   -1.070628
    154          1           0       18.414928   -2.352480    0.293643
    155          1           0       16.710116    2.849417   -1.174531
    156          1           0       17.361680    6.061353    1.197628
    157          1           0       18.068398    4.792447    2.202531
    158          1           0       16.367497    5.106186    2.455715
 ---------------------------------------------------------------------

 SCF Done:  E(RCAM-B3LYP) =  -4069.82014134     A.U. after   19 cycles

 Excitation energies and oscillator strengths:

 Excited State   1:      Singlet-A      1.6992 eV  729.66 nm  f=0.3861  <S**2>=0.000
     309 -> 315       -0.18619
     312 -> 313        0.68403
     309 <- 315       -0.10901
 This state for optimization and/or second-order correction.
 Total Energy, E(TD-HF/TD-DFT) =  -4069.75769709
 Copying the excited state density for this state as the 1-particle RhoCI density.

 Excited State   2:      Singlet-A      1.7726 eV  699.45 nm  f=0.3795  <S**2>=0.000
     310 -> 316        0.19899
     311 -> 314        0.67928
     310 <- 316        0.10972

 Excited State   3:      Singlet-A      2.2145 eV  559.88 nm  f=0.1093  <S**2>=0.000
     310 -> 314        0.64300
     311 -> 316       -0.28131

 Excited State   4:      Singlet-A      2.2667 eV  546.98 nm  f=0.0456  <S**2>=0.000
     309 -> 313        0.60924
     312 -> 315        0.34932

 Excited State   5:      Singlet-A      3.0468 eV  406.94 nm  f=0.0000  <S**2>=0.000
     312 -> 314        0.70709

 The electronic state is 1-A.
 Alpha  occ. eigenvalues --  -46.89257 -46.88421 -19.25662 -19.24839 -19.20267
 Alpha  occ. eigenvalues --  -19.20179 -19.19561 -19.19500 -19.19347 -19.18267
 Alpha  occ. eigenvalues --  -14.42298 -14.42244 -14.42199 -14.41561 -14.39700
 Alpha  occ. eigenvalues --  -14.39508 -14.39488 -14.38968 -10.39530 -10.38593
 Alpha  occ. eigenvalues --  -10.36288 -10.35705 -10.35415 -10.34789 -10.31988
 Alpha  occ. eigenvalues --  -10.31867 -10.31844 -10.31780 -10.31321 -10.30876
 Alpha  occ. eigenvalues --  -10.30707 -10.30692 -10.30496 -10.30446 -10.30364
 Alpha  occ. eigenvalues --  -10.30341 -10.30182 -10.29901 -10.29595 -10.29455
 Alpha  occ. eigenvalues --  -10.29252 -10.29241 -10.29091 -10.29021 -10.28961
 Alpha  occ. eigenvalues --  -10.28945 -10.28823 -10.28341 -10.28339 -10.28212
 Alpha  occ. eigenvalues --  -10.28138 -10.28114 -10.27894 -10.27844 -10.27820
 Alpha  occ. eigenvalues --  -10.27792 -10.27762 -10.27632 -10.27590 -10.27576
 Alpha  occ. eigenvalues --  -10.27563 -10.27500 -10.27418 -10.27384 -10.27356
 Alpha  occ. eigenvalues --  -10.27196 -10.27168 -10.27127 -10.26944 -10.26703
 Alpha  occ. eigenvalues --  -10.26599 -10.26577 -10.26495 -10.26286 -10.26233
 Alpha  occ. eigenvalues --  -10.26198 -10.25849 -10.25843 -10.25681 -10.25578
 Alpha  occ. eigenvalues --  -10.25493 -10.25407 -10.25351 -10.24737 -10.24676
 Alpha  occ. eigenvalues --  -10.24477  -3.17660  -3.17034  -1.92564  -1.92105
 Alpha  occ. eigenvalues --   -1.91962  -1.91927  -1.91495  -1.91337  -1.15973
 Alpha  occ. eigenvalues --   -1.15564  -1.12532  -1.10205  -1.09606  -1.07482
 Alpha  occ. eigenvalues --   -1.07265  -1.06777  -1.05411  -1.05133  -1.04338
 Alpha  occ. eigenvalues --   -1.03784  -1.03482  -1.02899  -1.01720  -1.00895
 Alpha  occ. eigenvalues --   -0.92551  -0.92384  -0.89340  -0.89106  -0.88800
 Alpha  occ. eigenvalues --   -0.88381  -0.88013  -0.87873  -0.87509  -0.87285
 Alpha  occ. eigenvalues --   -0.86985  -0.86916  -0.86878  -0.86253  -0.84656
 Alpha  occ. eigenvalues --   -0.83941  -0.83501  -0.83381  -0.82424  -0.82351
 Alpha  occ. eigenvalues --   -0.81764  -0.81544  -0.81214  -0.81079  -0.80304
 Alpha  occ. eigenvalues --   -0.79968  -0.78569  -0.78090  -0.77411  -0.77366
 Alpha  occ. eigenvalues --   -0.77209  -0.76417  -0.75813  -0.75787  -0.74984
 Alpha  occ. eigenvalues --   -0.74864  -0.72475  -0.72231  -0.72185  -0.71490
 Alpha  occ. eigenvalues --   -0.69874  -0.69431  -0.69269  -0.68821  -0.68359
 Alpha  occ. eigenvalues --   -0.68212  -0.67438  -0.67015  -0.65853  -0.65427
 Alpha  occ. eigenvalues --   -0.65241  -0.65008  -0.64779  -0.64712  -0.64399
 Alpha  occ. eigenvalues --   -0.64107  -0.62546  -0.61588  -0.60306  -0.60044
 Alpha  occ. eigenvalues --   -0.59427  -0.59395  -0.59160  -0.58924  -0.58784
 Alpha  occ. eigenvalues --   -0.58310  -0.57983  -0.57908  -0.57691  -0.57490
 Alpha  occ. eigenvalues --   -0.56015  -0.55932  -0.55755  -0.55547  -0.55184
 Alpha  occ. eigenvalues --   -0.55076  -0.54883  -0.54580  -0.54429  -0.53996
 Alpha  occ. eigenvalues --   -0.53548  -0.53381  -0.53197  -0.53171  -0.53161
 Alpha  occ. eigenvalues --   -0.52985  -0.52750  -0.52401  -0.52292  -0.52131
 Alpha  occ. eigenvalues --   -0.52099  -0.51947  -0.51928  -0.51510  -0.51401
 Alpha  occ. eigenvalues --   -0.51138  -0.51062  -0.50965  -0.50895  -0.50744
 Alpha  occ. eigenvalues --   -0.50402  -0.49864  -0.49661  -0.49457  -0.49344
 Alpha  occ. eigenvalues --   -0.49172  -0.48982  -0.48922  -0.48590  -0.48552
 Alpha  occ. eigenvalues --   -0.48525  -0.48483  -0.48481  -0.48222  -0.48126
 Alpha  occ. eigenvalues --   -0.47863  -0.47820  -0.47704  -0.47390  -0.47245
 Alpha  occ. eigenvalues --   -0.47062  -0.46851  -0.46750  -0.46656  -0.46477
 Alpha  occ. eigenvalues --   -0.46259  -0.46145  -0.46054  -0.45884  -0.45627
 Alpha  occ. eigenvalues --   -0.45624  -0.45195  -0.45148  -0.44884  -0.44778
 Alpha  occ. eigenvalues --   -0.44541  -0.44425  -0.44309  -0.44199  -0.43918
 Alpha  occ. eigenvalues --   -0.43758  -0.43541  -0.43467  -0.43227  -0.43224
 Alpha  occ. eigenvalues --   -0.42992  -0.42948  -0.42914  -0.42795  -0.42777
 Alpha  occ. eigenvalues --   -0.42690  -0.42308  -0.42300  -0.42144  -0.42109
 Alpha  occ. eigenvalues --   -0.41943  -0.41747  -0.41699  -0.41693  -0.41544
 Alpha  occ. eigenvalues --   -0.41497  -0.41211  -0.40749  -0.40675  -0.40546
 Alpha  occ. eigenvalues --   -0.40234  -0.39839  -0.39797  -0.39523  -0.39414
 Alpha  occ. eigenvalues --   -0.38242  -0.38009  -0.37877  -0.37645  -0.37501
 Alpha  occ. eigenvalues --   -0.37152  -0.36907  -0.36731  -0.36601  -0.36401
 Alpha  occ. eigenvalues --   -0.36345  -0.36266  -0.34677  -0.34334  -0.34214
 Alpha  occ. eigenvalues --   -0.33934  -0.33484  -0.33463  -0.31772  -0.31226
 Alpha  occ. eigenvalues --   -0.31218  -0.31117  -0.30983  -0.30413  -0.30384
 Alpha  occ. eigenvalues --   -0.30170  -0.29886  -0.29194  -0.24416  -0.23693
 Alpha  occ. eigenvalues --   -0.21265  -0.20961
 Alpha virt. eigenvalues --   -0.08490  -0.08445  -0.02361  -0.01718  -0.00246
 Alpha virt. eigenvalues --   -0.00057   0.01947   0.02068   0.02168   0.02580
 Alpha virt. eigenvalues --    0.04725   0.04932   0.05432   0.05435   0.05906

 Mulliken charges:
               1
     1  Mg  11.999990
     2  C    6.000298
     3  C    5.999637
     4  C    5.999735
     5  C    6.000288
     6  N    7.000102
     7  C    5.999533
     8  C    6.000181
     9  C    5.999707
    10  C    6.000801
    11  C    5.999834
    12  C    6.000147
    13  C    5.999915
    14  H    1.000310
    15  N    6.999868
    16  C    6.000775
    17  C    6.000283
    18  C    6.000457
    19  C    6.000372
    20  C    5.999895
    21  C    6.000171
    22  O    8.000335
    23  C    5.999869
    24  N    7.000008
    25  C    6.000434
    26  C    5.999902
    27  C    6.000213
    28  C    5.999454
    29  C    5.999885
    30  C    6.000128
    31  C    5.999996
    32  N    7.000118
    33  C    5.999327
    34  C    5.999548
    35  C    5.999892
    36  C    5.999663
    37  C    6.000153
    38  C    5.999665
    39  O    7.999336
    40  C    6.000018
    41  C    5.999922
    42  O    8.000256
    43  O    7.999848
    44  C    6.000021
    45  H    1.000310
    46  H    0.999985
    47  H    0.999701
    48  H    1.000198
    49  H    0.999939
    50  H    1.000522
    51  H    1.000333
    52  H    1.000273
    53  H    0.999719
    54  H    0.999846
    55  H    0.999748
    56  H    0.999920
    57  H    1.000710
    58  H    1.000054
    59  H    1.000066
    60  H    0.999891
    61  H    1.000375
    62  H    1.000199
    63  H    0.999729
    64  H    1.000055
    65  H    1.000365
    66  H    1.000204
    67  H    0.999855
    68  H    0.999933
    69  H    0.999720
    70  H    1.000049
    71  H    0.999896
    72  H    0.999685
    73  H    0.999519
    74  H    0.999645
    75  H    0.999621
    76  H    0.999692
    77  H    1.000029
    78  H    1.000225
    79  H    0.999698
    80  Mg  11.997141
    81  C    5.971654
    82  C    6.027508
    83  C    6.009816
    84  C    5.977952
    85  N    6.997163
    86  C    6.040951
    87  C    5.986458
    88  C    6.011419
    89  C    5.961439
    90  C    6.001697
    91  C    5.997451
    92  C    5.995721
    93  H    1.009145
    94  N    7.013198
    95  C    5.954754
    96  C    5.979979
    97  C    5.980784
    98  C    5.967816
    99  C    6.001218
   100  C    5.988955
   101  O    7.969488
   102  C    6.005058
   103  N    6.997545
   104  C    5.969398
   105  C    6.011021
   106  C    5.987594
   107  C    6.034298
   108  C    6.001364
   109  C    5.997332
   110  C    5.994771
   111  N    6.993315
   112  C    6.052373
   113  C    6.025535
   114  C    6.004578
   115  C    6.038328
   116  C    5.996658
   117  C    6.016476
   118  O    8.027481
   119  C    6.002854
   120  C    6.003354
   121  O    8.003714
   122  O    8.001672
   123  C    5.997912
   124  H    0.992938
   125  H    0.992942
   126  H    1.008972
   127  H    1.001683
   128  H    0.998471
   129  H    0.984902
   130  H    0.999467
   131  H    1.000633
   132  H    1.013182
   133  H    0.994576
   134  H    1.003856
   135  H    0.996668
   136  H    0.978773
   137  H    0.984427
   138  H    0.985820
   139  H    0.991052
   140  H    0.985310
   141  H    0.992113
   142  H    0.998807
   143  H    1.002612
   144  H    1.001627
   145  H    1.002915
   146  H    0.989520
   147  H    1.010439
   148  H    0.995248
   149  H    0.994096
   150  H    1.009515
   151  H    1.007297
   152  H    1.016538
   153  H    1.019639
   154  H    1.021419
   155  H    1.007347
   156  H    1.004503
   157  H    1.001330
   158  H    1.007028
 Sum of Mulliken charges = 624.00000

 Dipole moment (field-independent basis, Debye):
    X=             10.8645    Y=              0.0310    Z=             -1.3390  Tot=             10.9468
 Quadrupole moment (field-independent basis, Debye-Ang):
   XX=            265.5844   YY=              2.3061   ZZ=              0.3292
   XY=             -5.4584   XZ=            -20.3951   YZ=              0.8743

 Normal termination of Gaussian 16 at Thu Sep 23 05:02:45 2021.
