 Gaussian 16, Revision A.03,
 Gaussian 16:  ES64L-G16RevA.03 25-Dec-2016

 ----------------------------------------------------------
 #p cam-b3lyp/Def2SVP td=(nstates=5) density=(transition=1)
 ----------------------------------------------------------

 --------------------------------
 TDDFT excited states in gaussian
 --------------------------------
 Symbolic Z-matrix:
 Charge =  0 Multiplicity = 1

                         Standard orientation:
 ---------------------------------------------------------------------
 Center     Atomic      Atomic             Coordinates (Angstroms)
 Number     Number       Type             X           Y           Z
 ---------------------------------------------------------------------
      1         12           0       24.883081   -0.794610    0.297841
      2          6           0       25.001767    2.280693   -1.240350
      3          6           0       25.066333    0.854057    3.381168
      4          6           0       24.865587   -3.773675    1.885057
      5          6           0       25.085254   -2.335762   -2.718983
      6          7           0       25.287900    1.351366    0.957281
      7          6           0       25.051885    2.447182    0.117790
      8          6           0       24.855293    3.753517    0.912179
      9          6           0       25.000618    3.221761    2.385531
     10          6           0       25.079285    1.713055    2.292774
     11          6           0       26.193432    3.818793    3.121528
     12          6           0       23.543971    4.592644    0.711277
     13          6           0       23.697800    6.049985    0.011151
     14          1           0       23.194568    7.164570    0.933624
     15          7           0       25.056462   -1.388195    2.294472
     16          6           0       24.988020   -0.549046    3.418344
     17          6           0       24.797044   -1.321299    4.650469
     18          6           0       24.809620   -2.769025    4.265269
     19          6           0       24.847966   -2.724293    2.749034
     20          6           0       24.671794   -0.682672    6.016130
     21          6           0       24.745210   -3.981592    5.068155
     22          8           0       24.872219   -5.087836    4.522841
     23          6           0       24.595446   -3.967993    6.579347
     24          7           0       25.046725   -2.689135   -0.339405
     25          6           0       24.882304   -3.819838    0.481977
     26          6           0       24.768936   -5.196314   -0.289716
     27          6           0       24.881271   -4.647099   -1.804401
     28          6           0       24.994172   -3.119024   -1.602680
     29          6           0       25.904144   -6.270179    0.088916
     30          6           0       23.642649   -5.068604   -2.667543
     31          6           0       23.877708   -5.438916   -4.098479
     32          7           0       25.123917   -0.131562   -1.623281
     33          6           0       25.136376   -0.898778   -2.791680
     34          6           0       25.082134   -0.068455   -3.946078
     35          6           0       24.927387    1.241760   -3.359236
     36          6           0       25.040990    1.111684   -1.969294
     37          6           0       25.042652   -0.398115   -5.379179
     38          6           0       24.876708    2.634471   -3.677172
     39          8           0       24.803661    3.291133   -4.721710
     40          6           0       25.073853    3.376035   -2.277817
     41          6           0       26.346999    4.143078   -2.318629
     42          8           0       27.388786    3.850144   -1.879342
     43          8           0       26.132271    5.401530   -2.875790
     44          6           0       27.072466    6.422977   -2.463698
     45          1           0       25.034034    1.378536    4.338452
     46          1           0       24.790373   -4.791837    2.272372
     47          1           0       24.998471   -2.825339   -3.691177
     48          1           0       25.699627    4.411754    0.710271
     49          1           0       24.163199    3.531971    3.011128
     50          1           0       26.911576    3.024840    3.324737
     51          1           0       25.747206    4.168123    4.051847
     52          1           0       26.659103    4.683488    2.649187
     53          1           0       23.083481    4.729483    1.690026
     54          1           0       22.836308    4.071965    0.065984
     55          1           0       23.002388    5.973673   -0.824906
     56          1           0       24.733991    6.226402   -0.276580
     57          1           0       25.668479   -0.332501    6.287486
     58          1           0       24.344932   -1.449908    6.716307
     59          1           0       24.059369    0.219264    6.019678
     60          1           0       24.903148   -4.960243    6.909922
     61          1           0       23.588588   -3.724651    6.920249
     62          1           0       25.304561   -3.365719    7.146915
     63          1           0       23.760777   -5.595852   -0.184665
     64          1           0       25.724133   -5.039043   -2.374124
     65          1           0       26.204554   -6.787170   -0.822681
     66          1           0       25.597192   -7.108350    0.713312
     67          1           0       26.775603   -5.819822    0.564557
     68          1           0       22.824594   -4.348712   -2.648172
     69          1           0       23.181488   -5.989967   -2.312361
     70          1           0       23.391184   -4.647308   -4.668124
     71          1           0       23.372449   -6.299114   -4.537665
     72          1           0       24.948613   -5.456149   -4.303501
     73          1           0       24.595530   -1.386239   -5.491209
     74          1           0       26.092935   -0.449528   -5.665911
     75          1           0       24.609662    0.444694   -5.918302
     76          1           0       24.252860    4.071465   -2.105126
     77          1           0       27.968110    6.200079   -3.042558
     78          1           0       27.252081    6.243966   -1.403727
     79          1           0       26.713383    7.422458   -2.710716
     80         12           0      -25.477812   -0.563968   -0.417555
     81          6           0      -23.593497    2.443700   -0.285255
     82          6           0      -27.702599    1.019127    1.831033
     83          6           0      -27.111203   -3.376152   -0.156796
     84          6           0      -22.984988   -1.976146   -2.389400
     85          7           0      -25.628651    1.537059    0.680845
     86          6           0      -24.764933    2.579141    0.448148
     87          6           0      -25.197221    3.874407    1.114289
     88          6           0      -26.468780    3.332989    1.898030
     89          6           0      -26.649943    1.883099    1.422978
     90          6           0      -26.327306    3.568645    3.398918
     91          6           0      -25.536441    4.947263    0.056256
     92          6           0      -25.185502    6.451800    0.368878
     93          1           0      -24.972543    6.858481    1.846062
     94          7           0      -27.224912   -1.098479    0.624425
     95          6           0      -27.929236   -0.326480    1.548790
     96          6           0      -29.064310   -1.124573    2.038656
     97          6           0      -28.951965   -2.390983    1.377382
     98          6           0      -27.739668   -2.282075    0.543420
     99          6           0      -29.979786   -0.660564    3.041197
    100          6           0      -29.857299   -3.612097    1.503904
    101          8           0      -29.574480   -4.679674    0.937298
    102          6           0      -31.179866   -3.507986    2.156050
    103          7           0      -25.045482   -2.447407   -1.084697
    104          6           0      -25.938441   -3.428970   -0.932868
    105          6           0      -25.416372   -4.764886   -1.554681
    106          6           0      -24.216540   -4.256524   -2.415439
    107          6           0      -24.029487   -2.843360   -1.959713
    108          6           0      -25.087483   -5.883706   -0.501811
    109          6           0      -24.724974   -4.315028   -3.906507
    110          6           0      -25.366801   -3.050102   -4.573883
    111          7           0      -23.716683    0.079262   -1.282535
    112          6           0      -22.791733   -0.639860   -2.061019
    113          6           0      -21.639569    0.249014   -2.352210
    114          6           0      -21.907201    1.407764   -1.632703
    115          6           0      -23.143512    1.327407   -1.027498
    116          6           0      -20.437791   -0.285763   -2.968788
    117          6           0      -21.277080    2.661574   -1.226558
    118          8           0      -20.154165    3.065669   -1.506683
    119          6           0      -22.346739    3.401497   -0.293731
    120          6           0      -21.785836    3.678222    1.051089
    121          8           0      -21.903207    2.968013    2.045547
    122          8           0      -21.103398    4.909030    1.018341
    123          6           0      -20.400395    5.414633    2.175697
    124          1           0      -28.555002    1.499450    2.316774
    125          1           0      -27.620008   -4.342359   -0.129027
    126          1           0      -22.296888   -2.513832   -3.044596
    127          1           0      -24.442251    4.269459    1.794528
    128          1           0      -27.290089    3.994108    1.622845
    129          1           0      -27.143287    4.127835    3.855375
    130          1           0      -25.409398    4.058327    3.724209
    131          1           0      -26.395417    2.587588    3.870890
    132          1           0      -26.595124    4.916543   -0.201043
    133          1           0      -24.972673    4.565991   -0.795862
    134          1           0      -26.007250    7.101571    0.069692
    135          1           0      -24.418211    6.718655   -0.357847
    136          1           0      -30.978864   -0.797982    2.627095
    137          1           0      -29.667835    0.305220    3.437577
    138          1           0      -29.732789   -1.343962    3.854251
    139          1           0      -31.124321   -3.408525    3.240502
    140          1           0      -31.745327   -4.421419    1.972662
    141          1           0      -31.634872   -2.573389    1.829298
    142          1           0      -26.316197   -5.036023   -2.106908
    143          1           0      -23.348356   -4.910347   -2.328800
    144          1           0      -25.932894   -6.565073   -0.405402
    145          1           0      -24.785999   -5.372783    0.412040
    146          1           0      -24.225289   -6.419688   -0.898254
    147          1           0      -25.287647   -5.236478   -4.057616
    148          1           0      -23.796064   -4.315463   -4.477569
    149          1           0      -26.230694   -3.457096   -5.098578
    150          1           0      -24.715254   -2.579335   -5.311194
    151          1           0      -25.738926   -2.284545   -3.893901
    152          1           0      -20.156514   -1.197880   -2.444001
    153          1           0      -19.653507    0.454341   -2.806696
    154          1           0      -20.538167   -0.324511   -4.053126
    155          1           0      -22.517382    4.345225   -0.812692
    156          1           0      -19.334486    5.188180    2.167632
    157          1           0      -20.958762    5.227903    3.093133
    158          1           0      -20.577383    6.484808    2.064716
 ---------------------------------------------------------------------

 SCF Done:  E(RCAM-B3LYP) =  -4069.79694678     A.U. after   18 cycles

 Excitation energies and oscillator strengths:

 Excited State   1:      Singlet-A      1.6721 eV  741.51 nm  f=0.4076  <S**2>=0.000
     309 -> 315        0.15727
     311 -> 313        0.68850
 This state for optimization and/or second-order correction.
 Total Energy, E(TD-HF/TD-DFT) =  -4069.73549985
 Copying the excited state density for this state as the 1-particle RhoCI density.

 Excited State   2:      Singlet-A      1.7492 eV  708.82 nm  f=0.3747  <S**2>=0.000
     310 -> 316       -0.18984
     312 -> 314        0.68132
     310 <- 316       -0.10804

 Excited State   3:      Singlet-A      2.1913 eV  565.81 nm  f=0.1261  <S**2>=0.000
     309 -> 313        0.64543
     311 -> 315       -0.25763

 Excited State   4:      Singlet-A      2.2728 eV  545.50 nm  f=0.0723  <S**2>=0.000
     310 -> 314        0.62310
     312 -> 316        0.32202

 Excited State   5:      Singlet-A      2.9429 eV  421.30 nm  f=0.0000  <S**2>=0.000
     312 -> 313        0.70711

 The electronic state is 1-A.
 Alpha  occ. eigenvalues --  -46.88512 -46.87923 -19.23989 -19.22166 -19.19891
 Alpha  occ. eigenvalues --  -19.19582 -19.19326 -19.18853 -19.18742 -19.17947
 Alpha  occ. eigenvalues --  -14.42556 -14.42131 -14.41992 -14.41291 -14.40267
 Alpha  occ. eigenvalues --  -14.39691 -14.38924 -14.38578 -10.39491 -10.38104
 Alpha  occ. eigenvalues --  -10.35382 -10.35329 -10.35292 -10.34200 -10.31824
 Alpha  occ. eigenvalues --  -10.31282 -10.31194 -10.31045 -10.31027 -10.31015
 Alpha  occ. eigenvalues --  -10.30776 -10.30755 -10.30615 -10.30464 -10.30458
 Alpha  occ. eigenvalues --  -10.30395 -10.30322 -10.30275 -10.30222 -10.29525
 Alpha  occ. eigenvalues --  -10.29284 -10.29240 -10.29233 -10.29194 -10.29035
 Alpha  occ. eigenvalues --  -10.28879 -10.28553 -10.28250 -10.28246 -10.28242
 Alpha  occ. eigenvalues --  -10.28047 -10.27856 -10.27747 -10.27708 -10.27606
 Alpha  occ. eigenvalues --  -10.27589 -10.27560 -10.27464 -10.27452 -10.27400
 Alpha  occ. eigenvalues --  -10.27306 -10.27288 -10.27246 -10.27157 -10.27147
 Alpha  occ. eigenvalues --  -10.27049 -10.26816 -10.26533 -10.26512 -10.26486
 Alpha  occ. eigenvalues --  -10.26478 -10.26455 -10.26437 -10.26376 -10.26181
 Alpha  occ. eigenvalues --  -10.25976 -10.25875 -10.25819 -10.25758 -10.25346
 Alpha  occ. eigenvalues --  -10.25319 -10.25317 -10.25284 -10.25102 -10.24703
 Alpha  occ. eigenvalues --  -10.24483  -3.17055  -3.16685  -1.91962  -1.91554
 Alpha  occ. eigenvalues --   -1.91523  -1.91343  -1.91150  -1.91002  -1.16773
 Alpha  occ. eigenvalues --   -1.14663  -1.09665  -1.09558  -1.09210  -1.08113
 Alpha  occ. eigenvalues --   -1.07714  -1.07254  -1.04765  -1.04630  -1.04047
 Alpha  occ. eigenvalues --   -1.03430  -1.03099  -1.02062  -1.01380  -1.00623
 Alpha  occ. eigenvalues --   -0.92586  -0.91986  -0.89887  -0.89184  -0.88664
 Alpha  occ. eigenvalues --   -0.88616  -0.88497  -0.88391  -0.87346  -0.87339
 Alpha  occ. eigenvalues --   -0.87199  -0.86741  -0.86673  -0.86189  -0.84222
 Alpha  occ. eigenvalues --   -0.84137  -0.83460  -0.83305  -0.82648  -0.82404
 Alpha  occ. eigenvalues --   -0.81998  -0.81890  -0.80864  -0.80836  -0.80444
 Alpha  occ. eigenvalues --   -0.80223  -0.78949  -0.78775  -0.77401  -0.77109
 Alpha  occ. eigenvalues --   -0.76860  -0.76691  -0.75791  -0.75259  -0.75231
 Alpha  occ. eigenvalues --   -0.74784  -0.73065  -0.72131  -0.71687  -0.71307
 Alpha  occ. eigenvalues --   -0.69326  -0.69239  -0.68914  -0.68688  -0.67943
 Alpha  occ. eigenvalues --   -0.67844  -0.67549  -0.66710  -0.65669  -0.65301
 Alpha  occ. eigenvalues --   -0.65006  -0.64994  -0.64683  -0.64463  -0.64188
 Alpha  occ. eigenvalues --   -0.63884  -0.61538  -0.60856  -0.60332  -0.60186
 Alpha  occ. eigenvalues --   -0.59399  -0.59366  -0.59046  -0.58998  -0.58458
 Alpha  occ. eigenvalues --   -0.58292  -0.58066  -0.57876  -0.57694  -0.57168
 Alpha  occ. eigenvalues --   -0.56503  -0.56280  -0.55573  -0.55493  -0.55334
 Alpha  occ. eigenvalues --   -0.55284  -0.54279  -0.53958  -0.53925  -0.53854
 Alpha  occ. eigenvalues --   -0.53626  -0.53325  -0.53263  -0.53154  -0.52993
 Alpha  occ. eigenvalues --   -0.52770  -0.52669  -0.52328  -0.52278  -0.52151
 Alpha  occ. eigenvalues --   -0.51811  -0.51601  -0.51501  -0.51362  -0.51308
 Alpha  occ. eigenvalues --   -0.51185  -0.50764  -0.50752  -0.50609  -0.50556
 Alpha  occ. eigenvalues --   -0.50125  -0.50002  -0.49905  -0.49787  -0.49786
 Alpha  occ. eigenvalues --   -0.49621  -0.49560  -0.49026  -0.48965  -0.48909
 Alpha  occ. eigenvalues --   -0.48585  -0.48533  -0.48526  -0.48387  -0.48081
 Alpha  occ. eigenvalues --   -0.48075  -0.48017  -0.47595  -0.47363  -0.47277
 Alpha  occ. eigenvalues --   -0.46951  -0.46948  -0.46829  -0.46679  -0.46487
 Alpha  occ. eigenvalues --   -0.46140  -0.46105  -0.45994  -0.45991  -0.45400
 Alpha  occ. eigenvalues --   -0.45392  -0.45272  -0.45020  -0.44972  -0.44633
 Alpha  occ. eigenvalues --   -0.44614  -0.44254  -0.44233  -0.44156  -0.44049
 Alpha  occ. eigenvalues --   -0.43931  -0.43664  -0.43661  -0.43512  -0.43420
 Alpha  occ. eigenvalues --   -0.43330  -0.43316  -0.43057  -0.42957  -0.42906
 Alpha  occ. eigenvalues --   -0.42554  -0.42507  -0.41980  -0.41952  -0.41694
 Alpha  occ. eigenvalues --   -0.41649  -0.41415  -0.41302  -0.41173  -0.41021
 Alpha  occ. eigenvalues --   -0.41020  -0.40667  -0.40632  -0.40345  -0.40129
 Alpha  occ. eigenvalues --   -0.39887  -0.39853  -0.39372  -0.39060  -0.38706
 Alpha  occ. eigenvalues --   -0.38578  -0.37816  -0.37748  -0.37682  -0.37424
 Alpha  occ. eigenvalues --   -0.37112  -0.37069  -0.36636  -0.36124  -0.36116
 Alpha  occ. eigenvalues --   -0.35682  -0.34916  -0.34453  -0.34177  -0.34081
 Alpha  occ. eigenvalues --   -0.34037  -0.33295  -0.33181  -0.31543  -0.31429
 Alpha  occ. eigenvalues --   -0.31196  -0.30961  -0.30824  -0.30155  -0.30026
 Alpha  occ. eigenvalues --   -0.29774  -0.29343  -0.29270  -0.24375  -0.23880
 Alpha  occ. eigenvalues --   -0.21460  -0.20783
 Alpha virt. eigenvalues --   -0.09281  -0.08143  -0.02170  -0.01705  -0.00233
 Alpha virt. eigenvalues --    0.00237   0.01946   0.02184   0.02421   0.03330
 Alpha virt. eigenvalues --    0.04828   0.05088   0.05124   0.05356   0.05732

 Mulliken charges:
               1
     1  Mg  12.003361
     2  C    5.985768
     3  C    6.017438
     4  C    6.021939
     5  C    5.988317
     6  N    6.994923
     7  C    6.027373
     8  C    5.986778
     9  C    6.009586
    10  C    5.971988
    11  C    6.001549
    12  C    5.998718
    13  C    5.996306
    14  H    1.009044
    15  N    7.005327
    16  C    5.958117
    17  C    5.971482
    18  C    5.985921
    19  C    5.963843
    20  C    6.003875
    21  C    5.989035
    22  O    7.970038
    23  C    6.007331
    24  N    7.001958
    25  C    5.960770
    26  C    6.016036
    27  C    5.986338
    28  C    6.032395
    29  C    6.003011
    30  C    5.993629
    31  C    6.000675
    32  N    6.998023
    33  C    6.042284
    34  C    6.028329
    35  C    6.006513
    36  C    6.029111
    37  C    5.997884
    38  C    6.015699
    39  O    8.034486
    40  C    5.999918
    41  C    6.000719
    42  O    8.008139
    43  O    7.999506
    44  C    5.997419
    45  H    0.991745
    46  H    0.993305
    47  H    1.010238
    48  H    1.003070
    49  H    0.999714
    50  H    1.002905
    51  H    0.999670
    52  H    0.986200
    53  H    1.010115
    54  H    0.997011
    55  H    0.996858
    56  H    0.997830
    57  H    0.978669
    58  H    0.984295
    59  H    0.978888
    60  H    0.985548
    61  H    0.989565
    62  H    0.991924
    63  H    0.995931
    64  H    1.003321
    65  H    0.987853
    66  H    1.001076
    67  H    1.001153
    68  H    1.000462
    69  H    1.012290
    70  H    0.994373
    71  H    1.005337
    72  H    1.000035
    73  H    1.019715
    74  H    1.020074
    75  H    1.014624
    76  H    1.011633
    77  H    1.002247
    78  H    1.006469
    79  H    1.004959
    80  Mg  11.999990
    81  C    5.999980
    82  C    5.999979
    83  C    6.000006
    84  C    6.000024
    85  N    7.000011
    86  C    5.999981
    87  C    6.000029
    88  C    5.999967
    89  C    6.000065
    90  C    5.999993
    91  C    6.000006
    92  C    6.000007
    93  H    1.000010
    94  N    6.999985
    95  C    6.000115
    96  C    6.000009
    97  C    6.000055
    98  C    6.000037
    99  C    5.999972
   100  C    6.000052
   101  O    8.000049
   102  C    5.999984
   103  N    6.999983
   104  C    6.000032
   105  C    5.999977
   106  C    6.000030
   107  C    5.999955
   108  C    6.000005
   109  C    6.000008
   110  C    6.000012
   111  N    7.000019
   112  C    5.999909
   113  C    5.999926
   114  C    6.000016
   115  C    5.999961
   116  C    6.000019
   117  C    5.999934
   118  O    7.999941
   119  C    6.000009
   120  C    6.000001
   121  O    8.000006
   122  O    7.999990
   123  C    6.000004
   124  H    1.000027
   125  H    0.999996
   126  H    0.999967
   127  H    1.000006
   128  H    1.000008
   129  H    1.000012
   130  H    1.000037
   131  H    1.000010
   132  H    0.999968
   133  H    1.000001
   134  H    0.999983
   135  H    0.999990
   136  H    1.000035
   137  H    1.000040
   138  H    1.000063
   139  H    1.000037
   140  H    1.000037
   141  H    1.000001
   142  H    0.999982
   143  H    0.999997
   144  H    0.999999
   145  H    1.000019
   146  H    1.000023
   147  H    0.999978
   148  H    0.999986
   149  H    0.999969
   150  H    0.999984
   151  H    1.000000
   152  H    0.999973
   153  H    0.999955
   154  H    0.999919
   155  H    0.999965
   156  H    1.000001
   157  H    1.000011
   158  H    0.999977
 Sum of Mulliken charges = 624.00000

 Dipole moment (field-independent basis, Debye):
    X=              0.1989    Y=              3.7626    Z=            -10.6946  Tot=             11.3389
 Quadrupole moment (field-independent basis, Debye-Ang):
   XX=             12.3878   YY=             -2.8225   ZZ=             -9.2572
   XY=             94.2519   XZ=           -267.5477   YZ=              9.1859

 Normal termination of Gaussian 16 at Thu Sep 23 08:47:08 2021.
