 Gaussian 16, Revision A.03,
 Gaussian 16:  ES64L-G16RevA.03 25-Dec-2016

 ----------------------------------------------------------
 #p cam-b3lyp/Def2SVP td=(nstates=5) density=(transition=1)
 ----------------------------------------------------------

 --------------------------------
 TDDFT excited states in gaussian
 --------------------------------
 Symbolic Z-matrix:
 Charge =  0 Multiplicity = 1

                         Standard orientation:
 ---------------------------------------------------------------------
 Center     Atomic      Atomic             Coordinates (Angstroms)
 Number     Number       Type             X           Y           Z
 ---------------------------------------------------------------------
      1         12           0      -13.395885    0.577242   -0.013860
      2          6           0      -11.206950   -1.942552   -0.575928
      3          6           0      -16.012155   -1.706881    0.037659
      4          6           0      -15.585751    3.098516    0.542131
      5          6           0      -10.875596    2.888553   -0.551475
      6          7           0      -13.500215   -1.522177   -0.136786
      7          6           0      -12.499082   -2.398437   -0.403786
      8          6           0      -12.934152   -3.832761   -0.252687
      9          6           0      -14.505373   -3.741365   -0.332821
     10          6           0      -14.689660   -2.206342   -0.097236
     11          6           0      -15.279495   -4.327657   -1.586518
     12          6           0      -12.493228   -4.439660    1.154798
     13          6           0      -12.375269   -5.992074    1.124231
     14          1           0      -13.199427   -6.850295    0.149877
     15          7           0      -15.546453    0.734725    0.182688
     16          6           0      -16.427234   -0.378567    0.181224
     17          6           0      -17.768808    0.075280    0.392168
     18          6           0      -17.681328    1.506483    0.529859
     19          6           0      -16.208735    1.809112    0.430912
     20          6           0      -18.953577   -0.815082    0.531126
     21          6           0      -18.792090    2.524373    0.763284
     22          8           0      -18.653181    3.782734    0.759477
     23          6           0      -20.210289    2.036436    1.005839
     24          7           0      -13.279207    2.680149   -0.070993
     25          6           0      -14.287494    3.530634    0.385304
     26          6           0      -13.823844    4.986472    0.679981
     27          6           0      -12.238637    4.817471    0.338897
     28          6           0      -12.086037    3.404216   -0.090198
     29          6           0      -14.574783    5.948935   -0.249103
     30          6           0      -11.319196    5.232778    1.449335
     31          6           0      -10.319320    6.276460    1.040760
     32          7           0      -11.517750    0.605997   -0.563559
     33          6           0      -10.555581    1.594372   -0.729739
     34          6           0       -9.314020    1.012732   -1.083528
     35          6           0       -9.489195   -0.397198   -1.091366
     36          6           0      -10.816415   -0.616365   -0.665937
     37          6           0       -8.018139    1.673442   -1.359337
     38          6           0       -8.870715   -1.662388   -1.421838
     39          8           0       -7.793698   -2.002370   -1.871177
     40          6           0      -10.002176   -2.717468   -1.005746
     41          6           0      -10.103018   -3.847470   -1.966016
     42          8           0      -10.084736   -3.773839   -3.168122
     43          8           0      -10.185645   -5.046431   -1.368627
     44          6           0      -10.302927   -6.196820   -2.309299
     45          1           0      -16.767653   -2.475849   -0.137325
     46          1           0      -16.317631    3.907517    0.588575
     47          1           0      -10.003612    3.541698   -0.624631
     48          1           0      -12.658878   -4.444112   -1.111926
     49          1           0      -14.919491   -4.208106    0.560336
     50          1           0      -14.543998   -4.834404   -2.211410
     51          1           0      -15.847176   -3.631093   -2.201439
     52          1           0      -16.030787   -5.012238   -1.192349
     53          1           0      -13.249975   -4.076358    1.850322
     54          1           0      -11.524397   -4.005680    1.402343
     55          1           0      -12.621945   -6.260499    2.151624
     56          1           0      -11.311420   -6.212176    1.039487
     57          1           0      -19.104707   -1.253673    1.517532
     58          1           0      -18.828809   -1.579002   -0.235287
     59          1           0      -19.875194   -0.362907    0.165913
     60          1           0      -20.635542    1.856637    0.018570
     61          1           0      -20.719344    2.880613    1.470301
     62          1           0      -20.270836    1.118440    1.590672
     63          1           0      -14.128109    5.195671    1.705603
     64          1           0      -11.999195    5.460815   -0.508462
     65          1           0      -15.173487    5.484607   -1.032998
     66          1           0      -13.877431    6.703441   -0.612367
     67          1           0      -15.318338    6.442752    0.377162
     68          1           0      -10.698041    4.417818    1.821198
     69          1           0      -11.822283    5.605101    2.341825
     70          1           0      -10.267077    7.114459    1.735247
     71          1           0      -10.557893    6.693692    0.062805
     72          1           0       -9.393950    5.716486    0.902618
     73          1           0       -8.072285    2.670352   -1.797773
     74          1           0       -7.641594    1.125878   -2.223814
     75          1           0       -7.398058    1.666723   -0.462861
     76          1           0       -9.500124   -3.092936   -0.113606
     77          1           0       -9.344810   -6.455805   -2.762134
     78          1           0      -11.121489   -6.063339   -3.016774
     79          1           0      -10.599338   -7.074532   -1.734440
     80         12           0       13.216943    0.650577   -0.368103
     81          6           0       11.476004   -1.995300    1.348656
     82          6           0       15.103324   -1.636529   -1.906449
     83          6           0       15.299794    3.142718   -1.193764
     84          6           0       11.465566    2.889111    1.687598
     85          7           0       13.300679   -1.518954   -0.234194
     86          6           0       12.394960   -2.412903    0.361974
     87          6           0       12.645446   -3.892095   -0.121560
     88          6           0       13.846795   -3.725867   -1.100690
     89          6           0       14.073873   -2.191036   -1.134202
     90          6           0       15.113300   -4.476659   -0.776227
     91          6           0       11.318824   -4.579953   -0.750972
     92          6           0       10.938214   -5.938091   -0.148687
     93          1           0       10.873261   -7.108053   -1.199557
     94          7           0       14.896820    0.755725   -1.531224
     95          6           0       15.543095   -0.278350   -2.079132
     96          6           0       16.732909    0.157068   -2.812516
     97          6           0       16.825627    1.559411   -2.509569
     98          6           0       15.651856    1.889878   -1.694621
     99          6           0       17.577575   -0.751988   -3.597619
    100          6           0       18.036220    2.456620   -2.917367
    101          8           0       18.052960    3.656764   -2.700766
    102          6           0       19.242003    1.919078   -3.619869
    103          7           0       13.338142    2.650740    0.162095
    104          6           0       14.243184    3.524948   -0.430226
    105          6           0       13.983878    4.997095    0.029908
    106          6           0       12.545449    4.914448    0.664275
    107          6           0       12.394607    3.400193    0.807940
    108          6           0       15.092617    5.703697    0.875971
    109          6           0       11.422229    5.513943   -0.225478
    110          6           0       10.317415    6.299748    0.434532
    111          7           0       11.803288    0.513458    1.237404
    112          6           0       11.198378    1.505110    1.956205
    113          6           0       10.127778    0.876549    2.847021
    114          6           0       10.170285   -0.474638    2.601633
    115          6           0       11.249978   -0.656545    1.670805
    116          6           0        9.185752    1.698843    3.696648
    117          6           0        9.632925   -1.784845    2.922725
    118          8           0        8.700999   -1.979924    3.730783
    119          6           0       10.560775   -2.904019    2.156910
    120          6           0       11.382106   -3.784045    3.075885
    121          8           0       12.144571   -3.283840    3.926353
    122          8           0       11.041572   -5.133206    2.969993
    123          6           0       11.502666   -5.911479    4.113776
    124          1           0       15.683544   -2.324382   -2.524704
    125          1           0       15.992263    3.901747   -1.562745
    126          1           0       10.878188    3.653278    2.201820
    127          1           0       12.900490   -4.400851    0.807867
    128          1           0       13.530427   -4.238208   -2.010312
    129          1           0       15.056105   -5.030948    0.160670
    130          1           0       15.764886   -3.632322   -0.553781
    131          1           0       15.407290   -5.183252   -1.552955
    132          1           0       11.568203   -4.653454   -1.809146
    133          1           0       10.497487   -3.864927   -0.711750
    134          1           0       10.003385   -5.787011    0.391098
    135          1           0       11.695220   -6.230319    0.580203
    136          1           0       18.644682   -0.824318   -3.389834
    137          1           0       17.648686   -0.275453   -4.574688
    138          1           0       17.130792   -1.716482   -3.839938
    139          1           0       18.864356    1.520341   -4.562170
    140          1           0       19.591056    1.070742   -3.030485
    141          1           0       19.937887    2.754232   -3.689128
    142          1           0       13.912353    5.548303   -0.907755
    143          1           0       12.506311    5.307478    1.679924
    144          1           0       15.927403    5.003449    0.856718
    145          1           0       14.776665    5.991185    1.878372
    146          1           0       15.521870    6.561077    0.356090
    147          1           0       11.050482    4.575928   -0.637380
    148          1           0       11.774277    6.110597   -1.067253
    149          1           0       10.152798    7.165675   -0.206803
    150          1           0       10.591110    6.680067    1.419210
    151          1           0        9.416033    5.696784    0.322044
    152          1           0        9.463322    2.744167    3.562400
    153          1           0        9.385892    1.468181    4.742756
    154          1           0        8.154991    1.450185    3.444865
    155          1           0        9.917959   -3.485200    1.495757
    156          1           0       10.718246   -6.280001    4.773363
    157          1           0       12.235662   -5.397897    4.736074
    158          1           0       12.017353   -6.778355    3.700177
 ---------------------------------------------------------------------

 SCF Done:  E(RCAM-B3LYP) =  -4069.80121005     A.U. after   17 cycles

 Excitation energies and oscillator strengths:

 Excited State   1:      Singlet-A      1.6460 eV  753.25 nm  f=0.4327  <S**2>=0.000
     309 -> 315       -0.16975
     311 -> 313        0.68822
     309 <- 315       -0.10735
 This state for optimization and/or second-order correction.
 Total Energy, E(TD-HF/TD-DFT) =  -4069.74072068
 Copying the excited state density for this state as the 1-particle RhoCI density.

 Excited State   2:      Singlet-A      1.6982 eV  730.11 nm  f=0.3839  <S**2>=0.000
     310 -> 316       -0.17285
     312 -> 314        0.68748
     310 <- 316       -0.10769

 Excited State   3:      Singlet-A      2.2270 eV  556.73 nm  f=0.1107  <S**2>=0.000
     309 -> 313        0.63821
     311 -> 315        0.29156

 Excited State   4:      Singlet-A      2.2865 eV  542.24 nm  f=0.0920  <S**2>=0.000
     310 -> 314        0.63011
     312 -> 316        0.31281

 Excited State   5:      Singlet-A      2.8539 eV  434.44 nm  f=0.0000  <S**2>=0.000
     312 -> 313        0.70705

 The electronic state is 1-A.
 Alpha  occ. eigenvalues --  -46.88328 -46.87128 -19.26649 -19.25146 -19.20803
 Alpha  occ. eigenvalues --  -19.19871 -19.19201 -19.18740 -19.18501 -19.18477
 Alpha  occ. eigenvalues --  -14.42833 -14.42512 -14.41665 -14.41598 -14.39630
 Alpha  occ. eigenvalues --  -14.39505 -14.39315 -14.38737 -10.40785 -10.38571
 Alpha  occ. eigenvalues --  -10.36449 -10.35206 -10.35124 -10.34880 -10.32024
 Alpha  occ. eigenvalues --  -10.31698 -10.31539 -10.31333 -10.30931 -10.30906
 Alpha  occ. eigenvalues --  -10.30709 -10.30597 -10.30462 -10.30284 -10.30093
 Alpha  occ. eigenvalues --  -10.30069 -10.29898 -10.29833 -10.29729 -10.29449
 Alpha  occ. eigenvalues --  -10.29319 -10.29083 -10.28939 -10.28927 -10.28834
 Alpha  occ. eigenvalues --  -10.28811 -10.28724 -10.28505 -10.28227 -10.28186
 Alpha  occ. eigenvalues --  -10.28124 -10.28011 -10.27993 -10.27843 -10.27832
 Alpha  occ. eigenvalues --  -10.27776 -10.27661 -10.27631 -10.27514 -10.27494
 Alpha  occ. eigenvalues --  -10.27455 -10.27418 -10.27314 -10.27227 -10.27182
 Alpha  occ. eigenvalues --  -10.27170 -10.27030 -10.26890 -10.26796 -10.26455
 Alpha  occ. eigenvalues --  -10.26104 -10.26090 -10.25978 -10.25868 -10.25818
 Alpha  occ. eigenvalues --  -10.25742 -10.25667 -10.25584 -10.25489 -10.25459
 Alpha  occ. eigenvalues --  -10.25447 -10.25378 -10.25363 -10.25218 -10.25166
 Alpha  occ. eigenvalues --  -10.25101  -3.16979  -3.15986  -1.91861  -1.91418
 Alpha  occ. eigenvalues --   -1.91307  -1.90877  -1.90421  -1.90331  -1.17288
 Alpha  occ. eigenvalues --   -1.16293  -1.10117  -1.10064  -1.08986  -1.07909
 Alpha  occ. eigenvalues --   -1.07390  -1.07236  -1.04505  -1.03867  -1.03550
 Alpha  occ. eigenvalues --   -1.03244  -1.02698  -1.02592  -1.01831  -1.01391
 Alpha  occ. eigenvalues --   -0.93353  -0.92580  -0.89698  -0.89065  -0.88791
 Alpha  occ. eigenvalues --   -0.88690  -0.88566  -0.87983  -0.87661  -0.87276
 Alpha  occ. eigenvalues --   -0.87206  -0.87179  -0.86396  -0.86069  -0.84313
 Alpha  occ. eigenvalues --   -0.84233  -0.83799  -0.83613  -0.82667  -0.82460
 Alpha  occ. eigenvalues --   -0.81890  -0.81642  -0.81153  -0.81039  -0.80489
 Alpha  occ. eigenvalues --   -0.80181  -0.78382  -0.78341  -0.77761  -0.77560
 Alpha  occ. eigenvalues --   -0.77341  -0.76877  -0.76511  -0.76174  -0.75200
 Alpha  occ. eigenvalues --   -0.74656  -0.72866  -0.72398  -0.71831  -0.70921
 Alpha  occ. eigenvalues --   -0.69074  -0.68950  -0.68672  -0.68354  -0.68172
 Alpha  occ. eigenvalues --   -0.67854  -0.66684  -0.66667  -0.65844  -0.65338
 Alpha  occ. eigenvalues --   -0.65291  -0.64940  -0.64845  -0.64759  -0.64303
 Alpha  occ. eigenvalues --   -0.64061  -0.62543  -0.62321  -0.60306  -0.60240
 Alpha  occ. eigenvalues --   -0.59916  -0.59722  -0.58951  -0.58866  -0.58473
 Alpha  occ. eigenvalues --   -0.58357  -0.58282  -0.57983  -0.57693  -0.57269
 Alpha  occ. eigenvalues --   -0.56207  -0.56072  -0.55483  -0.55379  -0.55168
 Alpha  occ. eigenvalues --   -0.55069  -0.54960  -0.54876  -0.53927  -0.53722
 Alpha  occ. eigenvalues --   -0.53464  -0.53327  -0.53083  -0.52983  -0.52875
 Alpha  occ. eigenvalues --   -0.52552  -0.52537  -0.52418  -0.52412  -0.52129
 Alpha  occ. eigenvalues --   -0.51959  -0.51780  -0.51569  -0.51434  -0.51293
 Alpha  occ. eigenvalues --   -0.51225  -0.51135  -0.51080  -0.50777  -0.50297
 Alpha  occ. eigenvalues --   -0.50201  -0.50082  -0.49965  -0.49593  -0.49558
 Alpha  occ. eigenvalues --   -0.49323  -0.49107  -0.48990  -0.48859  -0.48743
 Alpha  occ. eigenvalues --   -0.48576  -0.48371  -0.48270  -0.48209  -0.48098
 Alpha  occ. eigenvalues --   -0.47981  -0.47905  -0.47750  -0.47307  -0.47199
 Alpha  occ. eigenvalues --   -0.47185  -0.46976  -0.46707  -0.46692  -0.46584
 Alpha  occ. eigenvalues --   -0.46435  -0.46340  -0.45969  -0.45904  -0.45897
 Alpha  occ. eigenvalues --   -0.45625  -0.45319  -0.45178  -0.44894  -0.44756
 Alpha  occ. eigenvalues --   -0.44529  -0.44519  -0.44277  -0.44089  -0.44033
 Alpha  occ. eigenvalues --   -0.43982  -0.43874  -0.43766  -0.43564  -0.43494
 Alpha  occ. eigenvalues --   -0.43269  -0.43157  -0.43149  -0.42947  -0.42800
 Alpha  occ. eigenvalues --   -0.42613  -0.42392  -0.42331  -0.42027  -0.41933
 Alpha  occ. eigenvalues --   -0.41674  -0.41660  -0.41395  -0.41068  -0.40963
 Alpha  occ. eigenvalues --   -0.40874  -0.40737  -0.40511  -0.40478  -0.40415
 Alpha  occ. eigenvalues --   -0.40372  -0.40125  -0.40033  -0.39447  -0.39086
 Alpha  occ. eigenvalues --   -0.38241  -0.38231  -0.37952  -0.37759  -0.37601
 Alpha  occ. eigenvalues --   -0.37377  -0.37362  -0.37179  -0.37013  -0.36596
 Alpha  occ. eigenvalues --   -0.36364  -0.36054  -0.35104  -0.34578  -0.34385
 Alpha  occ. eigenvalues --   -0.34116  -0.33325  -0.32834  -0.31517  -0.31498
 Alpha  occ. eigenvalues --   -0.31336  -0.30715  -0.30696  -0.30650  -0.30336
 Alpha  occ. eigenvalues --   -0.29930  -0.29730  -0.29559  -0.24296  -0.24118
 Alpha  occ. eigenvalues --   -0.21018  -0.20725
 Alpha virt. eigenvalues --   -0.08947  -0.08374  -0.01601  -0.01265   0.00010
 Alpha virt. eigenvalues --    0.00129   0.01845   0.02183   0.02379   0.02856
 Alpha virt. eigenvalues --    0.03184   0.04597   0.04788   0.05485   0.05599

 Mulliken charges:
               1
     1  Mg  12.004666
     2  C    5.973777
     3  C    6.009365
     4  C    6.035860
     5  C    6.009583
     6  N    6.986805
     7  C    6.036109
     8  C    5.987033
     9  C    6.010808
    10  C    5.963764
    11  C    6.005249
    12  C    5.997018
    13  C    5.999798
    14  H    1.006795
    15  N    7.007044
    16  C    5.950918
    17  C    5.987658
    18  C    5.974986
    19  C    5.963698
    20  C    6.004826
    21  C    5.986922
    22  O    7.961368
    23  C    6.005832
    24  N    7.020989
    25  C    5.961886
    26  C    6.010868
    27  C    5.987042
    28  C    6.018898
    29  C    6.000297
    30  C    5.993146
    31  C    5.999659
    32  N    6.994707
    33  C    6.025628
    34  C    6.035873
    35  C    6.001955
    36  C    6.035619
    37  C    5.995015
    38  C    6.012807
    39  O    8.025308
    40  C    6.004329
    41  C    6.002912
    42  O    8.002435
    43  O    8.002096
    44  C    5.997833
    45  H    0.984365
    46  H    1.002266
    47  H    1.015965
    48  H    0.999760
    49  H    0.995942
    50  H    0.983482
    51  H    1.000668
    52  H    0.996404
    53  H    1.012890
    54  H    0.992207
    55  H    1.002748
    56  H    0.995466
    57  H    0.979593
    58  H    0.985473
    59  H    0.984133
    60  H    0.989136
    61  H    0.984203
    62  H    0.992671
    63  H    1.003318
    64  H    1.004543
    65  H    1.004909
    66  H    0.991007
    67  H    1.004905
    68  H    0.997717
    69  H    1.013743
    70  H    1.007717
    71  H    1.004224
    72  H    0.995352
    73  H    1.019219
    74  H    1.017689
    75  H    1.023841
    76  H    1.003965
    77  H    1.000622
    78  H    1.005423
    79  H    1.005248
    80  Mg  11.999992
    81  C    6.001450
    82  C    5.999011
    83  C    5.999142
    84  C    6.001137
    85  N    7.000380
    86  C    5.997830
    87  C    6.000618
    88  C    5.999252
    89  C    6.001709
    90  C    5.999905
    91  C    6.000307
    92  C    6.000120
    93  H    0.999554
    94  N    6.999547
    95  C    6.002286
    96  C    6.001214
    97  C    6.000646
    98  C    6.002241
    99  C    5.999558
   100  C    6.000711
   101  O    8.001320
   102  C    5.999893
   103  N    7.000075
   104  C    6.001581
   105  C    5.999514
   106  C    6.000507
   107  C    5.998290
   108  C    6.000042
   109  C    6.000134
   110  C    6.000162
   111  N    7.000209
   112  C    5.997567
   113  C    5.998346
   114  C    5.999752
   115  C    5.998012
   116  C    6.000233
   117  C    5.998928
   118  O    7.998161
   119  C    5.999736
   120  C    5.999749
   121  O    7.999981
   122  O    7.999770
   123  C    6.000076
   124  H    1.000588
   125  H    1.000553
   126  H    0.999371
   127  H    1.000019
   128  H    1.000312
   129  H    1.000775
   130  H    0.999759
   131  H    1.000268
   132  H    0.999368
   133  H    0.999877
   134  H    0.999944
   135  H    1.000108
   136  H    1.001491
   137  H    1.001147
   138  H    1.001076
   139  H    1.000317
   140  H    1.000359
   141  H    1.000971
   142  H    1.000032
   143  H    1.000117
   144  H    0.999866
   145  H    1.000706
   146  H    1.000247
   147  H    0.999835
   148  H    0.999421
   149  H    0.999698
   150  H    1.000090
   151  H    0.999764
   152  H    0.998970
   153  H    0.999039
   154  H    0.998369
   155  H    0.999277
   156  H    0.999813
   157  H    1.000000
   158  H    0.999805
 Sum of Mulliken charges = 624.00000

 Dipole moment (field-independent basis, Debye):
    X=             11.5446    Y=              0.9123    Z=             -2.1281  Tot=             11.7745
 Quadrupole moment (field-independent basis, Debye-Ang):
   XX=           -287.3226   YY=              3.7801   ZZ=              1.6817
   XY=             -1.9528   XZ=             15.5100   YZ=             -0.8265

 Normal termination of Gaussian 16 at Wed Sep 22 21:59:20 2021.
