 Gaussian 16, Revision A.03,
 Gaussian 16:  ES64L-G16RevA.03 25-Dec-2016

 ----------------------------------------------------------
 #p cam-b3lyp/Def2SVP td=(nstates=5) density=(transition=1)
 ----------------------------------------------------------

 --------------------------------
 TDDFT excited states in gaussian
 --------------------------------
 Symbolic Z-matrix:
 Charge =  0 Multiplicity = 1

                         Standard orientation:
 ---------------------------------------------------------------------
 Center     Atomic      Atomic             Coordinates (Angstroms)
 Number     Number       Type             X           Y           Z
 ---------------------------------------------------------------------
      1         12           0       27.608146    0.437496    0.176983
      2          6           0       24.438670   -0.258999   -1.018371
      3          6           0       26.293345    0.360998    3.472171
      4          6           0       30.779979    0.546391    1.469182
      5          6           0       28.952100    0.036270   -2.979252
      6          7           0       25.566294    0.216090    1.059109
      7          6           0       24.439910   -0.165371    0.360888
      8          6           0       23.220134   -0.552044    1.278641
      9          6           0       23.708397    0.036847    2.685400
     10          6           0       25.299934    0.284463    2.443776
     11          6           0       22.998502    1.314946    3.274393
     12          6           0       22.914256   -2.006801    1.349546
     13          6           0       21.571911   -2.541188    0.888324
     14          1           0       21.081841   -3.822646    1.581473
     15          7           0       28.422129    0.546785    2.210842
     16          6           0       27.657381    0.552250    3.392584
     17          6           0       28.516426    0.738799    4.518409
     18          6           0       29.889028    0.637453    3.956791
     19          6           0       29.767283    0.554852    2.468325
     20          6           0       28.039781    0.728574    5.974579
     21          6           0       31.129071    0.659409    4.867445
     22          8           0       31.150391    0.728610    6.092958
     23          6           0       32.420918    0.242760    4.258478
     24          7           0       29.684867    0.124296   -0.647009
     25          6           0       30.768409    0.410178    0.087736
     26          6           0       31.979012   -0.025058   -0.736737
     27          6           0       31.456935   -0.122251   -2.245843
     28          6           0       29.895234    0.050535   -1.979133
     29          6           0       33.092137    1.079366   -0.662113
     30          6           0       31.773070   -1.413010   -3.107548
     31          6           0       32.672681   -1.324695   -4.331279
     32          7           0       26.847451    0.050650   -1.701687
     33          6           0       27.511520   -0.052632   -2.927991
     34          6           0       26.578770   -0.385112   -3.961023
     35          6           0       25.326141   -0.490810   -3.281083
     36          6           0       25.585758   -0.156040   -1.895014
     37          6           0       26.839736   -0.605502   -5.417750
     38          6           0       23.943870   -0.708104   -3.404823
     39          8           0       23.313960   -0.962297   -4.411898
     40          6           0       23.321097   -0.651969   -1.956200
     41          6           0       22.091806    0.154931   -2.005370
     42          8           0       20.966596   -0.330106   -1.969758
     43          8           0       22.407442    1.500402   -2.121905
     44          6           0       21.212824    2.368698   -2.221733
     45          1           0       25.999836    0.402389    4.522757
     46          1           0       31.748247    0.672585    1.958868
     47          1           0       29.400760   -0.128765   -3.960920
     48          1           0       22.333461   -0.012617    0.947394
     49          1           0       23.661111   -0.788307    3.396930
     50          1           0       22.087132    1.468146    2.696522
     51          1           0       23.607304    2.219098    3.262271
     52          1           0       22.795333    1.107662    4.324376
     53          1           0       22.950841   -2.275598    2.406325
     54          1           0       23.639303   -2.567854    0.760922
     55          1           0       21.672313   -2.825811   -0.158652
     56          1           0       20.753000   -1.837538    1.036118
     57          1           0       27.000707    0.522294    6.230264
     58          1           0       28.381016    1.701041    6.328639
     59          1           0       28.759732    0.073522    6.464129
     60          1           0       33.063722    0.989080    3.793645
     61          1           0       32.306262   -0.613744    3.593961
     62          1           0       33.041637   -0.102864    5.085967
     63          1           0       32.393245   -0.979173   -0.410095
     64          1           0       31.729846    0.777695   -2.795837
     65          1           0       34.020566    0.570860   -0.402261
     66          1           0       32.902714    1.891136    0.041336
     67          1           0       33.237292    1.607845   -1.604594
     68          1           0       30.788579   -1.775713   -3.402229
     69          1           0       32.296539   -2.084726   -2.425782
     70          1           0       32.385462   -2.172697   -4.953479
     71          1           0       33.706268   -1.478977   -4.020668
     72          1           0       32.625607   -0.451785   -4.981509
     73          1           0       25.870603   -0.833222   -5.862397
     74          1           0       27.570314   -1.410079   -5.495809
     75          1           0       27.233167    0.257433   -5.955320
     76          1           0       23.024318   -1.684188   -1.767288
     77          1           0       20.928414    2.495643   -3.266235
     78          1           0       21.465007    3.283324   -1.685154
     79          1           0       20.366963    1.959527   -1.670017
     80         12           0      -26.843664   -0.672421    0.342560
     81          6           0      -27.715617    2.708578    0.132338
     82          6           0      -24.369889   -0.189425   -1.759082
     83          6           0      -26.522057   -4.076236    0.004303
     84          6           0      -29.794230   -1.279773    2.183972
     85          7           0      -26.114007    1.078544   -0.575619
     86          6           0      -26.539014    2.387307   -0.510580
     87          6           0      -25.554595    3.335568   -1.182839
     88          6           0      -24.636696    2.335624   -1.956602
     89          6           0      -24.976321    1.026486   -1.333554
     90          6           0      -24.627775    2.344293   -3.469996
     91          6           0      -24.828401    4.323561   -0.214979
     92          6           0      -23.856599    5.299513   -0.887203
     93          1           0      -24.050736    6.771308   -0.553095
     94          7           0      -25.588180   -2.015286   -0.837225
     95          6           0      -24.521098   -1.578954   -1.538415
     96          6           0      -23.769725   -2.709779   -2.008132
     97          6           0      -24.455361   -3.862428   -1.587623
     98          6           0      -25.587535   -3.333588   -0.779310
     99          6           0      -22.519977   -2.599373   -2.855782
    100          6           0      -24.108534   -5.303152   -1.774670
    101          8           0      -24.842413   -6.288417   -1.494434
    102          6           0      -22.738012   -5.696213   -2.312392
    103          7           0      -27.994016   -2.387229    0.967601
    104          6           0      -27.679482   -3.662149    0.640047
    105          6           0      -28.627856   -4.685579    1.468601
    106          6           0      -29.327523   -3.723234    2.491511
    107          6           0      -28.992666   -2.379363    1.928438
    108          6           0      -29.597852   -5.418281    0.461334
    109          6           0      -28.637815   -3.809553    3.901960
    110          6           0      -27.129282   -3.646726    4.004788
    111          7           0      -28.472536    0.488839    1.112491
    112          6           0      -29.557908    0.065533    1.829328
    113          6           0      -30.325987    1.189346    2.105693
    114          6           0      -29.712937    2.305004    1.466168
    115          6           0      -28.578088    1.823853    0.867985
    116          6           0      -31.629255    1.280928    2.818038
    117          6           0      -29.770372    3.751471    1.155656
    118          8           0      -30.587983    4.633747    1.391139
    119          6           0      -28.396836    4.080801    0.349764
    120          6           0      -28.680542    4.922546   -0.843029
    121          8           0      -29.717478    4.828728   -1.564764
    122          8           0      -27.747781    5.864511   -0.881126
    123          6           0      -28.110505    7.024309   -1.672941
    124          1           0      -23.467493   -0.070232   -2.362548
    125          1           0      -26.412645   -5.161234   -0.063481
    126          1           0      -30.624502   -1.485005    2.861508
    127          1           0      -26.186670    3.981150   -1.792893
    128          1           0      -23.579295    2.459477   -1.720287
    129          1           0      -25.000503    3.244139   -3.959294
    130          1           0      -25.171909    1.472343   -3.833920
    131          1           0      -23.629730    2.035660   -3.781676
    132          1           0      -24.313855    3.760619    0.564187
    133          1           0      -25.576035    4.908226    0.320041
    134          1           0      -24.105770    5.446457   -1.937968
    135          1           0      -22.821878    4.980506   -0.758524
    136          1           0      -22.286956   -1.591643   -3.199501
    137          1           0      -22.566757   -3.076338   -3.834465
    138          1           0      -21.625272   -2.979336   -2.361636
    139          1           0      -22.691610   -5.394351   -3.358364
    140          1           0      -22.646271   -6.773725   -2.447077
    141          1           0      -21.914437   -5.352415   -1.685546
    142          1           0      -28.013801   -5.457783    1.932026
    143          1           0      -30.390662   -3.946554    2.402500
    144          1           0      -29.307384   -5.304519   -0.583221
    145          1           0      -30.628766   -5.065856    0.498468
    146          1           0      -29.617781   -6.500150    0.584626
    147          1           0      -28.950502   -4.816194    4.179640
    148          1           0      -29.042299   -3.127454    4.649170
    149          1           0      -26.678841   -3.690973    3.012969
    150          1           0      -26.617745   -4.299533    4.711255
    151          1           0      -27.034335   -2.668781    4.476774
    152          1           0      -31.628578    0.838866    3.814688
    153          1           0      -32.321514    0.697782    2.211422
    154          1           0      -32.006338    2.301698    2.871760
    155          1           0      -27.824285    4.681040    1.056399
    156          1           0      -27.826220    7.937687   -1.148927
    157          1           0      -29.171322    7.149673   -1.888535
    158          1           0      -27.533545    6.947015   -2.595063
 ---------------------------------------------------------------------

 SCF Done:  E(RCAM-B3LYP) =  -4069.80582723     A.U. after   19 cycles

 Excitation energies and oscillator strengths:

 Excited State   1:      Singlet-A      1.7131 eV  723.72 nm  f=0.3409  <S**2>=0.000
     309 -> 315        0.17220
     311 -> 313        0.67840
     312 -> 314        0.10466
     309 <- 315        0.10370
 This state for optimization and/or second-order correction.
 Total Energy, E(TD-HF/TD-DFT) =  -4069.74287023
 Copying the excited state density for this state as the 1-particle RhoCI density.

 Excited State   2:      Singlet-A      1.7145 eV  723.14 nm  f=0.4323  <S**2>=0.000
     310 -> 316        0.16404
     311 -> 313       -0.10423
     312 -> 314        0.68104
     310 <- 316        0.10190

 Excited State   3:      Singlet-A      2.1454 eV  577.92 nm  f=0.1694  <S**2>=0.000
     310 -> 314        0.66339
     312 -> 316       -0.22680

 Excited State   4:      Singlet-A      2.1719 eV  570.86 nm  f=0.1595  <S**2>=0.000
     309 -> 313        0.65197
     311 -> 315       -0.25357

 Excited State   5:      Singlet-A      3.0953 eV  400.55 nm  f=0.0000  <S**2>=0.000
     312 -> 313        0.70711

 The electronic state is 1-A.
 Alpha  occ. eigenvalues --  -46.90535 -46.89384 -19.26665 -19.25180 -19.19885
 Alpha  occ. eigenvalues --  -19.19160 -19.19112 -19.19053 -19.18457 -19.18355
 Alpha  occ. eigenvalues --  -14.43540 -14.42905 -14.42044 -14.41827 -14.40101
 Alpha  occ. eigenvalues --  -14.39925 -14.39766 -14.38028 -10.39242 -10.39182
 Alpha  occ. eigenvalues --  -10.35759 -10.35325 -10.34830 -10.34243 -10.33161
 Alpha  occ. eigenvalues --  -10.32125 -10.32122 -10.32023 -10.31735 -10.31724
 Alpha  occ. eigenvalues --  -10.31571 -10.31093 -10.31018 -10.30876 -10.30785
 Alpha  occ. eigenvalues --  -10.30631 -10.30471 -10.30179 -10.30100 -10.29884
 Alpha  occ. eigenvalues --  -10.29767 -10.29478 -10.29256 -10.29145 -10.28763
 Alpha  occ. eigenvalues --  -10.28722 -10.28568 -10.28527 -10.28489 -10.28343
 Alpha  occ. eigenvalues --  -10.28319 -10.28316 -10.28316 -10.28307 -10.28253
 Alpha  occ. eigenvalues --  -10.28249 -10.28221 -10.28175 -10.27950 -10.27885
 Alpha  occ. eigenvalues --  -10.27868 -10.27791 -10.27768 -10.27706 -10.27513
 Alpha  occ. eigenvalues --  -10.27386 -10.27078 -10.27074 -10.27040 -10.26882
 Alpha  occ. eigenvalues --  -10.26504 -10.26490 -10.26482 -10.26475 -10.26302
 Alpha  occ. eigenvalues --  -10.26225 -10.26149 -10.26126 -10.26103 -10.25946
 Alpha  occ. eigenvalues --  -10.25671 -10.25463 -10.25422 -10.24962 -10.24890
 Alpha  occ. eigenvalues --  -10.24277  -3.18745  -3.17772  -1.93674  -1.93177
 Alpha  occ. eigenvalues --   -1.93047  -1.92681  -1.92197  -1.92087  -1.18101
 Alpha  occ. eigenvalues --   -1.15593  -1.10108  -1.09823  -1.08799  -1.08373
 Alpha  occ. eigenvalues --   -1.07537  -1.05925  -1.05415  -1.04871  -1.04366
 Alpha  occ. eigenvalues --   -1.04108  -1.03341  -1.02623  -1.02463  -1.01790
 Alpha  occ. eigenvalues --   -0.92640  -0.91859  -0.89603  -0.89555  -0.89434
 Alpha  occ. eigenvalues --   -0.89288  -0.88408  -0.88243  -0.87990  -0.87747
 Alpha  occ. eigenvalues --   -0.87226  -0.87143  -0.85869  -0.85685  -0.84807
 Alpha  occ. eigenvalues --   -0.84569  -0.83894  -0.83767  -0.82949  -0.82914
 Alpha  occ. eigenvalues --   -0.82280  -0.81861  -0.81339  -0.80941  -0.80806
 Alpha  occ. eigenvalues --   -0.80673  -0.78885  -0.77887  -0.77590  -0.77361
 Alpha  occ. eigenvalues --   -0.77240  -0.77041  -0.76275  -0.76129  -0.75578
 Alpha  occ. eigenvalues --   -0.75239  -0.73556  -0.72754  -0.72336  -0.71752
 Alpha  occ. eigenvalues --   -0.69914  -0.69445  -0.69185  -0.69047  -0.68355
 Alpha  occ. eigenvalues --   -0.68046  -0.67688  -0.67186  -0.65684  -0.65535
 Alpha  occ. eigenvalues --   -0.65527  -0.65302  -0.65206  -0.64863  -0.64682
 Alpha  occ. eigenvalues --   -0.64567  -0.63063  -0.62744  -0.61020  -0.60303
 Alpha  occ. eigenvalues --   -0.59803  -0.59782  -0.59512  -0.59252  -0.59120
 Alpha  occ. eigenvalues --   -0.58537  -0.57845  -0.57616  -0.57232  -0.57041
 Alpha  occ. eigenvalues --   -0.56604  -0.56212  -0.56039  -0.56028  -0.55805
 Alpha  occ. eigenvalues --   -0.55501  -0.55468  -0.55322  -0.54864  -0.54400
 Alpha  occ. eigenvalues --   -0.53898  -0.53575  -0.53289  -0.53278  -0.53143
 Alpha  occ. eigenvalues --   -0.52930  -0.52879  -0.52833  -0.52540  -0.52538
 Alpha  occ. eigenvalues --   -0.52148  -0.51896  -0.51721  -0.51579  -0.51380
 Alpha  occ. eigenvalues --   -0.50986  -0.50982  -0.50569  -0.50454  -0.50428
 Alpha  occ. eigenvalues --   -0.50263  -0.50116  -0.49763  -0.49548  -0.49529
 Alpha  occ. eigenvalues --   -0.49194  -0.49111  -0.48923  -0.48859  -0.48696
 Alpha  occ. eigenvalues --   -0.48584  -0.48493  -0.48363  -0.48362  -0.48108
 Alpha  occ. eigenvalues --   -0.48002  -0.47846  -0.47244  -0.47223  -0.47204
 Alpha  occ. eigenvalues --   -0.47062  -0.46769  -0.46757  -0.46636  -0.46499
 Alpha  occ. eigenvalues --   -0.46388  -0.46179  -0.46043  -0.45965  -0.45886
 Alpha  occ. eigenvalues --   -0.45860  -0.45738  -0.45447  -0.45361  -0.45240
 Alpha  occ. eigenvalues --   -0.45185  -0.44737  -0.44724  -0.44573  -0.44460
 Alpha  occ. eigenvalues --   -0.44287  -0.44169  -0.43865  -0.43777  -0.43729
 Alpha  occ. eigenvalues --   -0.43685  -0.43422  -0.43211  -0.43029  -0.42881
 Alpha  occ. eigenvalues --   -0.42808  -0.42589  -0.42476  -0.42359  -0.42282
 Alpha  occ. eigenvalues --   -0.42078  -0.41772  -0.41643  -0.41551  -0.41442
 Alpha  occ. eigenvalues --   -0.41324  -0.41240  -0.40870  -0.40536  -0.40503
 Alpha  occ. eigenvalues --   -0.40017  -0.39761  -0.39613  -0.39517  -0.39256
 Alpha  occ. eigenvalues --   -0.38675  -0.38397  -0.37901  -0.37866  -0.37460
 Alpha  occ. eigenvalues --   -0.37312  -0.37266  -0.36924  -0.36837  -0.36581
 Alpha  occ. eigenvalues --   -0.36303  -0.35947  -0.34542  -0.34367  -0.34084
 Alpha  occ. eigenvalues --   -0.33955  -0.33383  -0.32910  -0.31954  -0.31812
 Alpha  occ. eigenvalues --   -0.31270  -0.31157  -0.30796  -0.30579  -0.30240
 Alpha  occ. eigenvalues --   -0.30109  -0.29630  -0.28513  -0.24664  -0.24072
 Alpha  occ. eigenvalues --   -0.22203  -0.21776
 Alpha virt. eigenvalues --   -0.09775  -0.09376  -0.02386  -0.01293  -0.00033
 Alpha virt. eigenvalues --   -0.00027   0.01791   0.02166   0.02290   0.02498
 Alpha virt. eigenvalues --    0.04438   0.04459   0.04652   0.05216   0.05676

 Mulliken charges:
               1
     1  Mg  11.998577
     2  C    5.975684
     3  C    6.007196
     4  C    6.036652
     5  C    5.996478
     6  N    6.986308
     7  C    6.031101
     8  C    5.989727
     9  C    6.004531
    10  C    5.968639
    11  C    6.005098
    12  C    6.000777
    13  C    5.998462
    14  H    1.004008
    15  N    7.014735
    16  C    5.955032
    17  C    5.981542
    18  C    5.988549
    19  C    5.952596
    20  C    6.003336
    21  C    5.989638
    22  O    7.980328
    23  C    6.006448
    24  N    7.007932
    25  C    5.962139
    26  C    6.009733
    27  C    5.996087
    28  C    6.024302
    29  C    6.002442
    30  C    5.995846
    31  C    5.999036
    32  N    6.994630
    33  C    6.042045
    34  C    6.024240
    35  C    6.004439
    36  C    6.034213
    37  C    5.999057
    38  C    6.015534
    39  O    8.033005
    40  C    6.004174
    41  C    6.005133
    42  O    8.007235
    43  O    7.997478
    44  C    5.996820
    45  H    0.987029
    46  H    1.001093
    47  H    1.013548
    48  H    0.997416
    49  H    0.997436
    50  H    0.984757
    51  H    0.999502
    52  H    0.997490
    53  H    1.009194
    54  H    0.994736
    55  H    0.992943
    56  H    1.001371
    57  H    0.982339
    58  H    0.982517
    59  H    0.984661
    60  H    0.986269
    61  H    0.989814
    62  H    0.989059
    63  H    0.998133
    64  H    1.000753
    65  H    0.999693
    66  H    1.005232
    67  H    0.992647
    68  H    0.992708
    69  H    1.011347
    70  H    1.000580
    71  H    1.007588
    72  H    1.000364
    73  H    1.012571
    74  H    1.018184
    75  H    1.020085
    76  H    1.005675
    77  H    0.999948
    78  H    1.006683
    79  H    1.005672
    80  Mg  12.000966
    81  C    5.995835
    82  C    6.001680
    83  C    6.004309
    84  C    5.999266
    85  N    6.997261
    86  C    6.005867
    87  C    5.998533
    88  C    6.001459
    89  C    5.994329
    90  C    6.000266
    91  C    5.999544
    92  C    6.000422
    93  H    0.999581
    94  N    7.001586
    95  C    5.993395
    96  C    5.997518
    97  C    5.996807
    98  C    5.994484
    99  C    6.000954
   100  C    5.998455
   101  O    7.994849
   102  C    6.000987
   103  N    7.001173
   104  C    5.995197
   105  C    6.000681
   106  C    5.998058
   107  C    6.004527
   108  C    6.000334
   109  C    5.998378
   110  C    5.999604
   111  N    6.999246
   112  C    6.005468
   113  C    6.004759
   114  C    5.999897
   115  C    6.006019
   116  C    5.999652
   117  C    6.002056
   118  O    8.004068
   119  C    6.000867
   120  C    6.000908
   121  O    8.000205
   122  O    8.000336
   123  C    5.999673
   124  H    0.998420
   125  H    0.999735
   126  H    1.002293
   127  H    0.999671
   128  H    0.999550
   129  H    0.997637
   130  H    1.000039
   131  H    1.000112
   132  H    1.000954
   133  H    0.998895
   134  H    1.000444
   135  H    1.000858
   136  H    0.997246
   137  H    0.996968
   138  H    0.997002
   139  H    0.998836
   140  H    0.997660
   141  H    0.998648
   142  H    1.000306
   143  H    1.000481
   144  H    1.000989
   145  H    0.998331
   146  H    0.999991
   147  H    1.001847
   148  H    0.999657
   149  H    1.002478
   150  H    1.000897
   151  H    0.999206
   152  H    1.003289
   153  H    1.003295
   154  H    1.002488
   155  H    1.000719
   156  H    1.000501
   157  H    1.000099
   158  H    1.000998
 Sum of Mulliken charges = 624.00000

 Dipole moment (field-independent basis, Debye):
    X=             -3.9132    Y=             -0.5709    Z=             -9.4501  Tot=             10.2442
 Quadrupole moment (field-independent basis, Debye-Ang):
   XX=            -83.3839   YY=             -1.2650   ZZ=             -5.5246
   XY=            -61.5247   XZ=           -304.2410   YZ=             -2.8767

 Normal termination of Gaussian 16 at Thu Sep 23 03:01:37 2021.
