 Gaussian 16, Revision A.03,
 Gaussian 16:  ES64L-G16RevA.03 25-Dec-2016

 -----------------------------------
 #p cam-b3lyp/Def2SVP td=(nstates=5)
 -----------------------------------

 --------------------------------
 TDDFT excited states in gaussian
 --------------------------------
 Symbolic Z-matrix:
 Charge =  0 Multiplicity = 1

                         Standard orientation:
 ---------------------------------------------------------------------
 Center     Atomic      Atomic             Coordinates (Angstroms)
 Number     Number       Type             X           Y           Z
 ---------------------------------------------------------------------
      1         12           0       12.994383   -0.105074    0.401287
      2          6           0        9.685165   -0.262955   -0.407294
      3          6           0       13.492843    1.993845   -2.402281
      4          6           0       16.284900   -0.110233    1.022337
      5          6           0       12.378279   -2.095033    3.132451
      6          7           0       11.823855    0.509894   -1.385122
      7          6           0       10.427242    0.407219   -1.416625
      8          6           0        9.821047    1.104195   -2.667508
      9          6           0       11.118627    1.722565   -3.252403
     10          6           0       12.259091    1.340307   -2.326364
     11          6           0       11.539758    1.493799   -4.766448
     12          6           0        8.688004    2.191084   -2.404002
     13          6           0        8.189040    2.840832   -3.722465
     14          1           0        6.781500    2.394666   -4.120726
     15          7           0       14.684394    0.881568   -0.560785
     16          6           0       14.604546    1.860087   -1.528181
     17          6           0       15.982187    2.233573   -1.826538
     18          6           0       16.788193    1.605179   -0.823433
     19          6           0       15.940116    0.762461   -0.040585
     20          6           0       16.295078    3.170283   -2.928941
     21          6           0       18.350441    1.737417   -0.773626
     22          8           0       19.080810    1.035013   -0.045533
     23          6           0       19.053094    2.701887   -1.693172
     24          7           0       14.105922   -0.951538    1.769341
     25          6           0       15.521833   -0.834096    1.854113
     26          6           0       16.090071   -1.835681    2.833819
     27          6           0       14.873960   -2.038816    3.735484
     28          6           0       13.687914   -1.632124    2.872574
     29          6           0       16.568428   -3.159097    2.147527
     30          6           0       14.892650   -1.123843    4.980377
     31          6           0       15.641385   -1.588471    6.200624
     32          7           0       11.401240   -1.085837    1.267614
     33          6           0       11.243649   -1.724379    2.438309
     34          6           0        9.880188   -2.145620    2.570106
     35          6           0        9.211346   -1.589349    1.500509
     36          6           0       10.177860   -0.907171    0.745242
     37          6           0        9.392723   -2.929075    3.738658
     38          6           0        7.943702   -1.463218    0.918514
     39          8           0        6.849570   -1.862338    1.267736
     40          6           0        8.196756   -0.568822   -0.384390
     41          6           0        7.708201   -1.332314   -1.564060
     42          8           0        8.173744   -2.348679   -2.019090
     43          8           0        6.732788   -0.673337   -2.196671
     44          6           0        6.185175   -1.323794   -3.448984
     45          1           0       13.538687    2.755133   -3.183629
     46          1           0       17.354558   -0.116050    1.241263
     47          1           0       12.081954   -2.619834    4.042682
     48          1           0        9.440135    0.335111   -3.339534
     49          1           0       11.076380    2.808146   -3.158992
     50          1           0       12.010393    2.338682   -5.269921
     51          1           0       10.720652    1.022605   -5.310010
     52          1           0       12.354254    0.772094   -4.705965
     53          1           0        9.156666    2.874635   -1.697100
     54          1           0        7.859108    1.701032   -1.893401
     55          1           0        8.934620    2.709892   -4.506730
     56          1           0        8.110844    3.910066   -3.527884
     57          1           0       16.810531    2.608734   -3.708324
     58          1           0       16.812228    4.010390   -2.465368
     59          1           0       15.383147    3.607114   -3.336212
     60          1           0       20.121974    2.705463   -1.479647
     61          1           0       18.698000    3.679484   -1.364237
     62          1           0       18.878475    2.584118   -2.762308
     63          1           0       16.944771   -1.421728    3.369541
     64          1           0       14.741446   -3.071355    4.057952
     65          1           0       15.720954   -3.774694    1.848500
     66          1           0       17.227468   -3.714641    2.815242
     67          1           0       17.144348   -2.840023    1.279544
     68          1           0       13.895437   -0.831303    5.306687
     69          1           0       15.286167   -0.145290    4.704924
     70          1           0       16.407877   -0.839588    6.397986
     71          1           0       16.186720   -2.458856    5.835411
     72          1           0       15.009747   -1.835185    7.054164
     73          1           0        8.940484   -2.267276    4.476284
     74          1           0       10.066919   -3.654593    4.194870
     75          1           0        8.571704   -3.531767    3.349950
     76          1           0        7.628951    0.355866   -0.278662
     77          1           0        7.040604   -1.570933   -4.078069
     78          1           0        5.550239   -0.659744   -4.036079
     79          1           0        5.644151   -2.220826   -3.146973
     80         12           0      -12.695002   -0.448776   -0.684771
     81          6           0      -12.169434    2.734020    1.064288
     82          6           0       -9.333778   -0.227860   -1.480419
     83          6           0      -12.811775   -3.582787   -1.262876
     84          6           0      -15.978986   -0.393996    0.772698
     85          7           0      -10.887863    1.109293   -0.083566
     86          6           0      -10.915449    2.302952    0.603951
     87          6           0       -9.450869    2.858955    0.740466
     88          6           0       -8.638093    2.063637   -0.295909
     89          6           0       -9.664299    0.919285   -0.644091
     90          6           0       -8.187122    2.794273   -1.628456
     91          6           0       -8.887024    2.797714    2.201361
     92          6           0       -8.052815    3.978045    2.650500
     93          1           0       -6.504423    3.780616    2.658515
     94          7           0      -11.336601   -1.700144   -1.396198
     95          6           0      -10.046974   -1.438338   -1.771492
     96          6           0       -9.412012   -2.678764   -2.294904
     97          6           0      -10.431817   -3.661543   -2.203230
     98          6           0      -11.570633   -3.006551   -1.564463
     99          6           0       -7.952618   -2.856212   -2.744791
    100          6           0      -10.327665   -5.169355   -2.449776
    101          8           0       -9.260601   -5.594714   -2.884003
    102          6           0      -11.371433   -6.094812   -2.246630
    103          7           0      -14.138412   -1.859675   -0.032970
    104          6           0      -14.005098   -3.070576   -0.682936
    105          6           0      -15.326357   -3.899786   -0.446305
    106          6           0      -16.189794   -2.963590    0.473174
    107          6           0      -15.429740   -1.625574    0.309048
    108          6           0      -16.070573   -4.361788   -1.729161
    109          6           0      -16.418185   -3.374805    1.983494
    110          6           0      -17.492052   -4.432964    2.290690
    111          7           0      -13.932897    0.859698    0.605747
    112          6           0      -15.260333    0.784974    0.977641
    113          6           0      -15.710623    2.000199    1.611896
    114          6           0      -14.515841    2.812087    1.653302
    115          6           0      -13.404910    2.094526    1.087113
    116          6           0      -17.093356    2.206989    2.148800
    117          6           0      -14.014087    4.024694    2.124612
    118          8           0      -14.511600    4.871667    2.854186
    119          6           0      -12.474867    3.995379    1.897334
    120          6           0      -12.187680    5.239466    1.089531
    121          8           0      -11.296428    6.043467    1.373857
    122          8           0      -12.923135    5.357923   -0.157902
    123          6           0      -12.351548    6.366453   -1.048788
    124          1           0       -8.295481   -0.150159   -1.808088
    125          1           0      -13.058042   -4.599994   -1.574466
    126          1           0      -17.023364   -0.491477    1.076102
    127          1           0       -9.425599    3.867375    0.325029
    128          1           0       -7.787557    1.555953    0.158992
    129          1           0       -7.117604    2.960073   -1.500798
    130          1           0       -8.651920    3.775873   -1.716130
    131          1           0       -8.431801    2.276362   -2.555760
    132          1           0       -8.170540    1.995344    2.379150
    133          1           0       -9.704240    2.734338    2.920183
    134          1           0       -8.448241    4.295763    3.615295
    135          1           0       -8.237882    4.794267    1.951468
    136          1           0       -7.914496   -3.489820   -3.631299
    137          1           0       -7.459944   -3.276079   -1.867893
    138          1           0       -7.517561   -1.904094   -3.045536
    139          1           0      -12.155994   -5.881966   -2.973458
    140          1           0      -11.743011   -6.149670   -1.223342
    141          1           0      -10.837077   -7.035632   -2.383001
    142          1           0      -15.171285   -4.820469    0.115188
    143          1           0      -17.166282   -2.765291    0.031969
    144          1           0      -17.074107   -3.945446   -1.640447
    145          1           0      -16.115617   -5.450398   -1.723803
    146          1           0      -15.463870   -3.948923   -2.536041
    147          1           0      -16.697877   -2.434136    2.458974
    148          1           0      -15.517586   -3.820059    2.406817
    149          1           0      -17.910195   -4.587805    1.295649
    150          1           0      -18.309274   -4.008383    2.875514
    151          1           0      -17.152989   -5.374943    2.721069
    152          1           0      -17.247529    1.397630    2.861222
    153          1           0      -17.875864    2.054138    1.405768
    154          1           0      -17.180751    3.103091    2.763298
    155          1           0      -12.010039    4.107574    2.876659
    156          1           0      -12.730515    5.921185   -1.969471
    157          1           0      -11.281684    6.499284   -0.888161
    158          1           0      -12.926997    7.277788   -0.885751
 ---------------------------------------------------------------------

 SCF Done:  E(RCAM-B3LYP) =  -4069.78268386     A.U. after   18 cycles

 Excitation energies and oscillator strengths:

 Excited State   1:      Singlet-A      1.6533 eV  749.91 nm  f=0.4037  <S**2>=0.000
     309 -> 316        0.16003
     312 -> 313        0.69049
     309 <- 316        0.10382
 This state for optimization and/or second-order correction.
 Total Energy, E(TD-HF/TD-DFT) =  -4069.72192575
 Copying the excited state density for this state as the 1-particle RhoCI density.

 Excited State   2:      Singlet-A      1.7226 eV  719.74 nm  f=0.3466  <S**2>=0.000
     310 -> 315        0.19679
     311 -> 314        0.67906
     310 <- 315        0.11030

 Excited State   3:      Singlet-A      2.2418 eV  553.05 nm  f=0.0724  <S**2>=0.000
     310 -> 314        0.61524
     311 -> 315       -0.33008

 Excited State   4:      Singlet-A      2.2510 eV  550.79 nm  f=0.1062  <S**2>=0.000
     309 -> 313        0.63747
     312 -> 316       -0.28799

 Excited State   5:      Singlet-A      2.9844 eV  415.44 nm  f=0.0000  <S**2>=0.000
     311 -> 313        0.70704

 The electronic state is 1-A.
 Alpha  occ. eigenvalues --  -46.90734 -46.87523 -19.24949 -19.23699 -19.20070
 Alpha  occ. eigenvalues --  -19.19399 -19.18768 -19.18753 -19.18570 -19.17843
 Alpha  occ. eigenvalues --  -14.42741 -14.42686 -14.41988 -14.41760 -14.40782
 Alpha  occ. eigenvalues --  -14.39113 -14.38886 -14.38870 -10.39371 -10.38557
 Alpha  occ. eigenvalues --  -10.35231 -10.34964 -10.34898 -10.33482 -10.32329
 Alpha  occ. eigenvalues --  -10.32285 -10.32076 -10.31858 -10.31558 -10.31499
 Alpha  occ. eigenvalues --  -10.31376 -10.31339 -10.30982 -10.30771 -10.30586
 Alpha  occ. eigenvalues --  -10.30029 -10.29624 -10.29581 -10.29506 -10.29367
 Alpha  occ. eigenvalues --  -10.29287 -10.29210 -10.29012 -10.29002 -10.28886
 Alpha  occ. eigenvalues --  -10.28884 -10.28804 -10.28627 -10.28501 -10.28498
 Alpha  occ. eigenvalues --  -10.28377 -10.28300 -10.28283 -10.28187 -10.28117
 Alpha  occ. eigenvalues --  -10.28083 -10.28037 -10.27807 -10.27782 -10.27476
 Alpha  occ. eigenvalues --  -10.27430 -10.27397 -10.27385 -10.27313 -10.27134
 Alpha  occ. eigenvalues --  -10.26956 -10.26825 -10.26822 -10.26783 -10.26766
 Alpha  occ. eigenvalues --  -10.26690 -10.26623 -10.26617 -10.26557 -10.26371
 Alpha  occ. eigenvalues --  -10.26202 -10.26183 -10.26160 -10.25850 -10.25819
 Alpha  occ. eigenvalues --  -10.25754 -10.25591 -10.25545 -10.25209 -10.25113
 Alpha  occ. eigenvalues --  -10.25037  -3.19145  -3.16302  -1.93990  -1.93653
 Alpha  occ. eigenvalues --   -1.93410  -1.91204  -1.90773  -1.90601  -1.16943
 Alpha  occ. eigenvalues --   -1.13928  -1.10463  -1.10422  -1.08958  -1.08297
 Alpha  occ. eigenvalues --   -1.07172  -1.06331  -1.05461  -1.05004  -1.03944
 Alpha  occ. eigenvalues --   -1.03341  -1.03314  -1.03119  -1.01981  -1.01057
 Alpha  occ. eigenvalues --   -0.93357  -0.92863  -0.89100  -0.88976  -0.88916
 Alpha  occ. eigenvalues --   -0.88803  -0.88685  -0.88484  -0.87926  -0.87192
 Alpha  occ. eigenvalues --   -0.86964  -0.86900  -0.86589  -0.85906  -0.84994
 Alpha  occ. eigenvalues --   -0.84351  -0.83989  -0.83844  -0.83668  -0.82551
 Alpha  occ. eigenvalues --   -0.82507  -0.81604  -0.81240  -0.81128  -0.80657
 Alpha  occ. eigenvalues --   -0.79861  -0.78407  -0.78227  -0.77578  -0.77336
 Alpha  occ. eigenvalues --   -0.77241  -0.77017  -0.76237  -0.75812  -0.75252
 Alpha  occ. eigenvalues --   -0.75223  -0.73241  -0.72816  -0.71901  -0.71832
 Alpha  occ. eigenvalues --   -0.69469  -0.69119  -0.68983  -0.68576  -0.68334
 Alpha  occ. eigenvalues --   -0.67689  -0.66984  -0.66103  -0.65822  -0.65543
 Alpha  occ. eigenvalues --   -0.65353  -0.65026  -0.64973  -0.64646  -0.64209
 Alpha  occ. eigenvalues --   -0.64005  -0.62112  -0.61892  -0.60358  -0.60272
 Alpha  occ. eigenvalues --   -0.60014  -0.59789  -0.59244  -0.59139  -0.58903
 Alpha  occ. eigenvalues --   -0.58897  -0.58350  -0.58042  -0.57141  -0.56973
 Alpha  occ. eigenvalues --   -0.56746  -0.56572  -0.56112  -0.55583  -0.55045
 Alpha  occ. eigenvalues --   -0.54784  -0.54766  -0.54304  -0.54273  -0.53924
 Alpha  occ. eigenvalues --   -0.53763  -0.53527  -0.53482  -0.53376  -0.53281
 Alpha  occ. eigenvalues --   -0.52957  -0.52867  -0.52739  -0.52461  -0.52306
 Alpha  occ. eigenvalues --   -0.51965  -0.51785  -0.51719  -0.51693  -0.51413
 Alpha  occ. eigenvalues --   -0.51348  -0.51000  -0.50600  -0.50395  -0.50271
 Alpha  occ. eigenvalues --   -0.50005  -0.49928  -0.49871  -0.49836  -0.49757
 Alpha  occ. eigenvalues --   -0.49487  -0.49303  -0.49102  -0.48968  -0.48933
 Alpha  occ. eigenvalues --   -0.48786  -0.48618  -0.48368  -0.48281  -0.48141
 Alpha  occ. eigenvalues --   -0.48102  -0.47941  -0.47764  -0.47718  -0.47521
 Alpha  occ. eigenvalues --   -0.47250  -0.47142  -0.46946  -0.46711  -0.46541
 Alpha  occ. eigenvalues --   -0.46500  -0.46479  -0.46124  -0.46055  -0.45880
 Alpha  occ. eigenvalues --   -0.45878  -0.45524  -0.45347  -0.45295  -0.44946
 Alpha  occ. eigenvalues --   -0.44718  -0.44665  -0.44451  -0.44307  -0.44250
 Alpha  occ. eigenvalues --   -0.44094  -0.43782  -0.43771  -0.43736  -0.43580
 Alpha  occ. eigenvalues --   -0.43568  -0.43355  -0.43166  -0.42869  -0.42536
 Alpha  occ. eigenvalues --   -0.42432  -0.42284  -0.42034  -0.42026  -0.41915
 Alpha  occ. eigenvalues --   -0.41827  -0.41649  -0.41583  -0.41466  -0.41326
 Alpha  occ. eigenvalues --   -0.41145  -0.40899  -0.40662  -0.40433  -0.40244
 Alpha  occ. eigenvalues --   -0.40184  -0.40062  -0.39939  -0.39846  -0.39281
 Alpha  occ. eigenvalues --   -0.38834  -0.38456  -0.38095  -0.37839  -0.37498
 Alpha  occ. eigenvalues --   -0.37498  -0.37138  -0.36959  -0.36685  -0.36594
 Alpha  occ. eigenvalues --   -0.36306  -0.35354  -0.34459  -0.34239  -0.34035
 Alpha  occ. eigenvalues --   -0.33835  -0.33299  -0.33176  -0.31718  -0.31482
 Alpha  occ. eigenvalues --   -0.31371  -0.31269  -0.31012  -0.30670  -0.30496
 Alpha  occ. eigenvalues --   -0.30134  -0.29116  -0.28718  -0.24628  -0.24443
 Alpha  occ. eigenvalues --   -0.21431  -0.21135
 Alpha virt. eigenvalues --   -0.09090  -0.08762  -0.02675  -0.01566  -0.00339
 Alpha virt. eigenvalues --    0.00387   0.00606   0.02196   0.02338   0.03393
 Alpha virt. eigenvalues --    0.04408   0.04626   0.04836   0.05339   0.05521

 Mulliken charges:
               1
     1  Mg   0.828559
     2  C    0.007473
     3  C   -0.059520
     4  C   -0.069209
     5  C   -0.093576
     6  N   -0.267903
     7  C   -0.051205
     8  C    0.020224
     9  C   -0.103979
    10  C    0.038333
    11  C    0.063721
    12  C    0.034981
    13  C   -0.056494
    14  H    0.031524
    15  N   -0.358596
    16  C    0.139233
    17  C   -0.203025
    18  C   -0.035924
    19  C    0.110428
    20  C    0.139565
    21  C    0.019224
    22  O   -0.225594
    23  C    0.056023
    24  N   -0.391526
    25  C    0.083645
    26  C   -0.019358
    27  C   -0.020664
    28  C    0.118488
    29  C    0.088224
    30  C   -0.004954
    31  C    0.053338
    32  N   -0.339600
    33  C    0.089663
    34  C   -0.168107
    35  C    0.069269
    36  C    0.103936
    37  C    0.107986
    38  C    0.017674
    39  O   -0.153845
    40  C   -0.052470
    41  C    0.180650
    42  O   -0.217007
    43  O   -0.331602
    44  C    0.179205
    45  H   -0.027517
    46  H   -0.006568
    47  H   -0.026899
    48  H    0.017531
    49  H    0.009465
    50  H    0.020291
    51  H    0.021682
    52  H    0.015420
    53  H    0.011051
    54  H    0.032948
    55  H    0.030044
    56  H    0.029355
    57  H    0.042910
    58  H    0.027731
    59  H    0.001088
    60  H    0.024431
    61  H    0.024878
    62  H    0.039970
    63  H    0.000266
    64  H   -0.003807
    65  H    0.020441
    66  H    0.019260
    67  H    0.019151
    68  H   -0.002492
    69  H   -0.003856
    70  H    0.012733
    71  H   -0.002497
    72  H    0.028792
    73  H    0.038395
    74  H    0.023696
    75  H    0.027410
    76  H    0.043137
    77  H    0.041546
    78  H    0.041435
    79  H    0.051373
    80  Mg   0.834406
    81  C   -0.008446
    82  C   -0.051060
    83  C   -0.074850
    84  C   -0.087962
    85  N   -0.224633
    86  C   -0.070883
    87  C    0.059331
    88  C   -0.071632
    89  C   -0.036556
    90  C    0.062086
    91  C    0.059679
    92  C   -0.072266
    93  H    0.008103
    94  N   -0.409485
    95  C    0.147851
    96  C   -0.174465
    97  C   -0.015357
    98  C    0.192222
    99  C    0.144665
   100  C   -0.033218
   101  O   -0.215554
   102  C    0.089212
   103  N   -0.319212
   104  C    0.023079
   105  C   -0.072982
   106  C   -0.047456
   107  C    0.019163
   108  C    0.084294
   109  C    0.042800
   110  C    0.012953
   111  N   -0.344553
   112  C    0.143210
   113  C   -0.151115
   114  C    0.030860
   115  C    0.129264
   116  C    0.139478
   117  C   -0.006571
   118  O   -0.179931
   119  C   -0.020439
   120  C    0.217686
   121  O   -0.226440
   122  O   -0.390001
   123  C    0.179665
   124  H   -0.026216
   125  H   -0.046920
   126  H   -0.027871
   127  H    0.012104
   128  H    0.018125
   129  H    0.026347
   130  H    0.015127
   131  H    0.028753
   132  H    0.025462
   133  H    0.019030
   134  H    0.034327
   135  H    0.030045
   136  H    0.044740
   137  H    0.045850
   138  H    0.008856
   139  H    0.053898
   140  H    0.041991
   141  H    0.028184
   142  H    0.008518
   143  H   -0.003970
   144  H    0.016823
   145  H    0.020081
   146  H    0.021244
   147  H    0.004872
   148  H    0.011293
   149  H   -0.004553
   150  H    0.017433
   151  H    0.028261
   152  H    0.012459
   153  H    0.024954
   154  H    0.037571
   155  H    0.040563
   156  H    0.031470
   157  H    0.052736
   158  H    0.033477
 Sum of Mulliken charges =  -0.00000

 Dipole moment (field-independent basis, Debye):
    X=             -1.0147    Y=             -0.7305    Z=             -4.5943  Tot=              4.7614
 Quadrupole moment (field-independent basis, Debye-Ang):
   XX=           -490.3220   YY=           -535.5656   ZZ=           -491.0837
   XY=            119.4073   XZ=             35.8281   YZ=            -47.2236

 Normal termination of Gaussian 16 at Thu Sep  2 11:10:51 2021.
