 Gaussian 16, Revision A.03,
 Gaussian 16:  ES64L-G16RevA.03 25-Dec-2016

 -----------------------------------
 #p cam-b3lyp/Def2SVP td=(nstates=5)
 -----------------------------------

 --------------------------------
 TDDFT excited states in gaussian
 --------------------------------
 Symbolic Z-matrix:
 Charge =  0 Multiplicity = 1

                         Standard orientation:
 ---------------------------------------------------------------------
 Center     Atomic      Atomic             Coordinates (Angstroms)
 Number     Number       Type             X           Y           Z
 ---------------------------------------------------------------------
      1         12           0        4.771740   -0.704988   -0.409754
      2          6           0        2.935244    2.246426   -1.001875
      3          6           0        7.625907    1.201807   -0.238645
      4          6           0        6.603706   -3.477009    0.080472
      5          6           0        1.953892   -2.638031   -1.162258
      6          7           0        5.109192    1.454419   -0.475856
      7          6           0        4.318585    2.499127   -0.704583
      8          6           0        4.987924    3.889066   -0.679552
      9          6           0        6.506863    3.372014   -0.720715
     10          6           0        6.408529    1.881378   -0.506263
     11          6           0        7.228506    3.708612   -2.003004
     12          6           0        4.657051    4.768770    0.649436
     13          6           0        4.757374    6.278252    0.411009
     14          1           0        3.431374    7.046827    0.645288
     15          7           0        6.840490   -1.105970    0.052216
     16          6           0        7.870347   -0.133400    0.019185
     17          6           0        9.048165   -0.756728    0.579486
     18          6           0        8.778082   -2.116316    0.706653
     19          6           0        7.352013   -2.308985    0.295556
     20          6           0       10.382436   -0.052789    0.739591
     21          6           0        9.621165   -3.263469    1.214602
     22          8           0        9.142516   -4.355819    1.309435
     23          6           0       11.029591   -3.069555    1.680727
     24          7           0        4.416532   -2.756341   -0.711181
     25          6           0        5.313240   -3.725499   -0.367134
     26          6           0        4.576937   -5.082915   -0.540449
     27          6           0        3.098671   -4.786816   -0.361622
     28          6           0        3.096283   -3.300535   -0.790263
     29          6           0        4.818911   -5.612530   -1.953177
     30          6           0        2.576261   -5.034516    1.005031
     31          6           0        3.351781   -4.518303    2.191699
     32          7           0        2.815270   -0.338267   -0.939350
     33          6           0        1.771128   -1.196846   -1.227603
     34          6           0        0.573257   -0.399827   -1.534163
     35          6           0        0.994536    0.937068   -1.427802
     36          6           0        2.316643    0.919521   -1.076085
     37          6           0       -0.744362   -0.919025   -1.919207
     38          6           0        0.564896    2.309482   -1.399724
     39          8           0       -0.582696    2.821621   -1.553718
     40          6           0        1.854595    3.204094   -1.081296
     41          6           0        2.043095    4.114457   -2.267058
     42          8           0        2.015350    3.723981   -3.396420
     43          8           0        2.319578    5.473926   -1.958307
     44          6           0        2.822177    6.295028   -3.101551
     45          1           0        8.549745    1.782992   -0.232395
     46          1           0        7.181489   -4.402543    0.132763
     47          1           0        1.001979   -3.168569   -1.235588
     48          1           0        4.641980    4.485176   -1.524912
     49          1           0        6.977537    3.883386    0.119874
     50          1           0        7.806387    4.609319   -1.796556
     51          1           0        6.558910    3.778100   -2.860537
     52          1           0        7.983621    2.927251   -2.088274
     53          1           0        5.359989    4.516708    1.444046
     54          1           0        3.674870    4.510418    1.045773
     55          1           0        5.119765    6.309982   -0.616703
     56          1           0        5.560531    6.733142    0.990448
     57          1           0       10.129492    1.006468    0.713881
     58          1           0       10.894321   -0.295578   -0.191170
     59          1           0       10.873990   -0.300114    1.680718
     60          1           0       10.835497   -2.537522    2.612212
     61          1           0       11.639409   -2.438591    1.034681
     62          1           0       11.512230   -4.034261    1.840982
     63          1           0        4.912847   -5.881800    0.119741
     64          1           0        2.426101   -5.378719   -0.981542
     65          1           0        4.041089   -5.510795   -2.710045
     66          1           0        5.059036   -6.671994   -1.864462
     67          1           0        5.717873   -5.132171   -2.341145
     68          1           0        2.371541   -6.091511    1.176822
     69          1           0        1.608024   -4.534251    1.007066
     70          1           0        2.737080   -3.727082    2.621861
     71          1           0        4.355941   -4.098988    2.122289
     72          1           0        3.389780   -5.310342    2.939415
     73          1           0       -0.662294   -1.340253   -2.921115
     74          1           0       -1.397053   -0.049774   -1.839395
     75          1           0       -1.053783   -1.742099   -1.273670
     76          1           0        1.620765    3.689748   -0.133717
     77          1           0        1.997266    6.577073   -3.755748
     78          1           0        3.583252    5.785809   -3.694544
     79          1           0        3.237816    7.268618   -2.843386
     80         12           0       -4.904592   -0.582473    0.201929
     81          6           0       -2.947805    2.239690    0.988870
     82          6           0       -7.596826    1.449408   -0.190541
     83          6           0       -6.761840   -3.337379   -0.431374
     84          6           0       -2.215661   -2.605357    1.059910
     85          7           0       -5.258757    1.545254    0.469639
     86          6           0       -4.288242    2.528139    0.682247
     87          6           0       -4.908161    3.883034    0.516313
     88          6           0       -6.419657    3.574737    0.635078
     89          6           0       -6.432382    2.066750    0.274795
     90          6           0       -7.091903    3.786867    2.028231
     91          6           0       -4.538471    4.650817   -0.808373
     92          6           0       -4.141036    6.078387   -0.606144
     93          1           0       -4.753484    7.106891   -1.575202
     94          7           0       -6.830306   -0.860649   -0.337514
     95          6           0       -7.806008    0.128018   -0.547485
     96          6           0       -9.006153   -0.463800   -0.987209
     97          6           0       -8.800822   -1.920172   -1.082833
     98          6           0       -7.448563   -2.089924   -0.633251
     99          6           0      -10.315031    0.244809   -1.179656
    100          6           0       -9.772407   -3.121944   -1.457874
    101          8           0       -9.367790   -4.259902   -1.490081
    102          6           0      -11.209837   -2.863174   -1.886129
    103          7           0       -4.563745   -2.681582    0.409359
    104          6           0       -5.513887   -3.599413    0.094214
    105          6           0       -4.961335   -5.080603    0.360906
    106          6           0       -3.398731   -4.847296    0.550507
    107          6           0       -3.367586   -3.265796    0.690115
    108          6           0       -5.582702   -5.841329    1.564781
    109          6           0       -2.519277   -5.366526   -0.642226
    110          6           0       -1.449563   -6.259499   -0.171055
    111          7           0       -2.991270   -0.280290    0.930264
    112          6           0       -1.965193   -1.202626    1.129863
    113          6           0       -0.761648   -0.517963    1.516350
    114          6           0       -1.109158    0.817461    1.500434
    115          6           0       -2.411346    0.929411    1.127146
    116          6           0        0.577835   -1.259985    1.762815
    117          6           0       -0.627882    2.163614    1.750974
    118          8           0        0.437190    2.499696    2.219959
    119          6           0       -1.845775    3.168368    1.441674
    120          6           0       -2.156005    3.933809    2.663035
    121          8           0       -2.480611    3.418048    3.764725
    122          8           0       -1.989658    5.260473    2.392649
    123          6           0       -1.891370    6.123861    3.599264
    124          1           0       -8.425050    2.157922   -0.257104
    125          1           0       -7.291891   -4.276703   -0.601189
    126          1           0       -1.404715   -3.255351    1.393557
    127          1           0       -4.723540    4.560746    1.350691
    128          1           0       -7.037420    4.155400   -0.050192
    129          1           0       -6.673006    4.616113    2.599797
    130          1           0       -6.994133    2.847120    2.572370
    131          1           0       -8.175144    3.904958    2.018483
    132          1           0       -5.415514    4.546778   -1.446894
    133          1           0       -3.756044    4.135056   -1.365824
    134          1           0       -3.057217    6.006228   -0.698214
    135          1           0       -4.482093    6.417170    0.372036
    136          1           0      -10.623431    0.395084   -2.214495
    137          1           0      -10.227436    1.263093   -0.802958
    138          1           0      -11.201569   -0.165030   -0.696475
    139          1           0      -11.593162   -3.826998   -2.218855
    140          1           0      -11.275256   -2.041257   -2.599662
    141          1           0      -11.755097   -2.384192   -1.072356
    142          1           0       -5.221818   -5.729287   -0.475590
    143          1           0       -3.094779   -5.315845    1.487735
    144          1           0       -6.288828   -5.283082    2.180353
    145          1           0       -4.836226   -6.213049    2.267149
    146          1           0       -6.100071   -6.707597    1.151600
    147          1           0       -2.025188   -4.511731   -1.105575
    148          1           0       -3.064454   -5.937060   -1.393859
    149          1           0       -1.762521   -7.290972   -0.335113
    150          1           0       -1.067332   -6.141445    0.842262
    151          1           0       -0.536079   -6.052401   -0.728621
    152          1           0        0.516132   -2.255241    1.321990
    153          1           0        0.871696   -1.217943    2.812613
    154          1           0        1.300599   -0.704160    1.166673
    155          1           0       -1.605839    3.851903    0.626840
    156          1           0       -1.625362    7.141784    3.314840
    157          1           0       -1.018951    5.753040    4.137734
    158          1           0       -2.826828    6.004968    4.146681
 ---------------------------------------------------------------------

 SCF Done:  E(RCAM-B3LYP) =  -4069.83345692     A.U. after   18 cycles

 Excitation energies and oscillator strengths:

 Excited State   1:      Singlet-A      1.6397 eV  756.15 nm  f=0.8813  <S**2>=0.000
     309 -> 315       -0.13050
     311 -> 313        0.53210
     311 -> 314       -0.18525
     312 -> 313       -0.23040
     312 -> 314       -0.32505
 This state for optimization and/or second-order correction.
 Total Energy, E(TD-HF/TD-DFT) =  -4069.77319976
 Copying the excited state density for this state as the 1-particle RhoCI density.

 Excited State   2:      Singlet-A      1.7529 eV  707.31 nm  f=0.0610  <S**2>=0.000
     309 -> 315       -0.10431
     310 -> 316        0.15028
     311 -> 313        0.38761
     312 -> 313        0.12474
     312 -> 314        0.54944

 Excited State   3:      Singlet-A      2.1477 eV  577.29 nm  f=0.0019  <S**2>=0.000
     309 -> 313        0.44610
     309 -> 314       -0.15770
     310 -> 313        0.20817
     310 -> 314        0.37144
     311 -> 315        0.17977
     312 -> 313        0.16706
     312 -> 316       -0.13866

 Excited State   4:      Singlet-A      2.1919 eV  565.66 nm  f=0.2283  <S**2>=0.000
     309 -> 313       -0.42550
     310 -> 314        0.47487
     311 -> 315       -0.18049
     312 -> 316       -0.18489

 Excited State   5:      Singlet-A      2.2171 eV  559.22 nm  f=0.0017  <S**2>=0.000
     310 -> 314       -0.10281
     311 -> 313        0.12805
     312 -> 313        0.62744
     312 -> 314       -0.23724

 The electronic state is 1-A.
 Alpha  occ. eigenvalues --  -46.88493 -46.86553 -19.24985 -19.24399 -19.19945
 Alpha  occ. eigenvalues --  -19.19422 -19.19008 -19.18798 -19.18720 -19.18696
 Alpha  occ. eigenvalues --  -14.43264 -14.41432 -14.41244 -14.40920 -14.39602
 Alpha  occ. eigenvalues --  -14.38989 -14.38716 -14.37910 -10.39270 -10.38651
 Alpha  occ. eigenvalues --  -10.35880 -10.35111 -10.34998 -10.34540 -10.31747
 Alpha  occ. eigenvalues --  -10.31678 -10.31618 -10.31219 -10.30933 -10.30884
 Alpha  occ. eigenvalues --  -10.30539 -10.30460 -10.30254 -10.30120 -10.30081
 Alpha  occ. eigenvalues --  -10.30013 -10.29950 -10.29372 -10.29319 -10.29215
 Alpha  occ. eigenvalues --  -10.28587 -10.28489 -10.28487 -10.28412 -10.28301
 Alpha  occ. eigenvalues --  -10.28193 -10.28154 -10.28098 -10.28004 -10.27927
 Alpha  occ. eigenvalues --  -10.27556 -10.27459 -10.27360 -10.27323 -10.27310
 Alpha  occ. eigenvalues --  -10.27308 -10.27178 -10.27102 -10.27017 -10.27003
 Alpha  occ. eigenvalues --  -10.26933 -10.26857 -10.26762 -10.26748 -10.26741
 Alpha  occ. eigenvalues --  -10.26714 -10.26575 -10.26507 -10.26406 -10.26323
 Alpha  occ. eigenvalues --  -10.26272 -10.25827 -10.25681 -10.25530 -10.25509
 Alpha  occ. eigenvalues --  -10.25467 -10.25240 -10.25221 -10.25202 -10.25084
 Alpha  occ. eigenvalues --  -10.25046 -10.24785 -10.24633 -10.24420 -10.24318
 Alpha  occ. eigenvalues --  -10.23670  -3.16990  -3.15283  -1.91911  -1.91421
 Alpha  occ. eigenvalues --   -1.91308  -1.90187  -1.89728  -1.89608  -1.15519
 Alpha  occ. eigenvalues --   -1.15070  -1.12042  -1.11250  -1.09969  -1.07416
 Alpha  occ. eigenvalues --   -1.06914  -1.05639  -1.05142  -1.04243  -1.03452
 Alpha  occ. eigenvalues --   -1.02897  -1.02721  -1.01998  -1.01706  -1.00863
 Alpha  occ. eigenvalues --   -0.92802  -0.91743  -0.89978  -0.89339  -0.88727
 Alpha  occ. eigenvalues --   -0.88389  -0.88272  -0.87688  -0.87565  -0.86867
 Alpha  occ. eigenvalues --   -0.86452  -0.86142  -0.85878  -0.85143  -0.84503
 Alpha  occ. eigenvalues --   -0.83578  -0.83531  -0.83453  -0.82541  -0.82350
 Alpha  occ. eigenvalues --   -0.82242  -0.81613  -0.80955  -0.80564  -0.80055
 Alpha  occ. eigenvalues --   -0.79810  -0.78816  -0.77696  -0.77251  -0.76960
 Alpha  occ. eigenvalues --   -0.76632  -0.76235  -0.76130  -0.75174  -0.74902
 Alpha  occ. eigenvalues --   -0.74361  -0.72338  -0.72216  -0.71237  -0.70346
 Alpha  occ. eigenvalues --   -0.69687  -0.68748  -0.67981  -0.67934  -0.67692
 Alpha  occ. eigenvalues --   -0.66885  -0.66727  -0.65881  -0.65628  -0.64948
 Alpha  occ. eigenvalues --   -0.64837  -0.64649  -0.64112  -0.63949  -0.63432
 Alpha  occ. eigenvalues --   -0.63376  -0.61678  -0.61307  -0.60317  -0.59768
 Alpha  occ. eigenvalues --   -0.59750  -0.59452  -0.59055  -0.58903  -0.58606
 Alpha  occ. eigenvalues --   -0.58430  -0.57686  -0.57555  -0.57063  -0.56829
 Alpha  occ. eigenvalues --   -0.56306  -0.55696  -0.55616  -0.55056  -0.54872
 Alpha  occ. eigenvalues --   -0.54654  -0.54530  -0.54409  -0.53998  -0.53904
 Alpha  occ. eigenvalues --   -0.53722  -0.53602  -0.53507  -0.53012  -0.52944
 Alpha  occ. eigenvalues --   -0.52632  -0.52388  -0.52126  -0.51996  -0.51742
 Alpha  occ. eigenvalues --   -0.51656  -0.51527  -0.51404  -0.51337  -0.51230
 Alpha  occ. eigenvalues --   -0.50917  -0.50686  -0.50473  -0.50273  -0.50091
 Alpha  occ. eigenvalues --   -0.50043  -0.49983  -0.49549  -0.49502  -0.49415
 Alpha  occ. eigenvalues --   -0.49286  -0.49221  -0.49079  -0.48977  -0.48626
 Alpha  occ. eigenvalues --   -0.48546  -0.48237  -0.48179  -0.47797  -0.47681
 Alpha  occ. eigenvalues --   -0.47527  -0.47300  -0.47219  -0.47098  -0.46809
 Alpha  occ. eigenvalues --   -0.46637  -0.46526  -0.46310  -0.46240  -0.45950
 Alpha  occ. eigenvalues --   -0.45625  -0.45497  -0.45353  -0.45272  -0.45199
 Alpha  occ. eigenvalues --   -0.45139  -0.44960  -0.44847  -0.44832  -0.44403
 Alpha  occ. eigenvalues --   -0.44310  -0.44114  -0.44066  -0.44036  -0.43884
 Alpha  occ. eigenvalues --   -0.43667  -0.43535  -0.43319  -0.43138  -0.43075
 Alpha  occ. eigenvalues --   -0.42979  -0.42795  -0.42678  -0.42426  -0.42329
 Alpha  occ. eigenvalues --   -0.42239  -0.42100  -0.42060  -0.41802  -0.41682
 Alpha  occ. eigenvalues --   -0.41500  -0.41385  -0.41145  -0.40976  -0.40918
 Alpha  occ. eigenvalues --   -0.40829  -0.40281  -0.40272  -0.40121  -0.40084
 Alpha  occ. eigenvalues --   -0.39703  -0.39346  -0.39322  -0.38739  -0.38254
 Alpha  occ. eigenvalues --   -0.37997  -0.37834  -0.37633  -0.37403  -0.37153
 Alpha  occ. eigenvalues --   -0.37024  -0.36924  -0.36238  -0.36093  -0.36072
 Alpha  occ. eigenvalues --   -0.35673  -0.35310  -0.34568  -0.34436  -0.33656
 Alpha  occ. eigenvalues --   -0.33451  -0.33054  -0.32537  -0.31605  -0.31297
 Alpha  occ. eigenvalues --   -0.31292  -0.30814  -0.30460  -0.30371  -0.29898
 Alpha  occ. eigenvalues --   -0.29767  -0.29146  -0.28615  -0.24022  -0.23305
 Alpha  occ. eigenvalues --   -0.21299  -0.20919
 Alpha virt. eigenvalues --   -0.08926  -0.08409  -0.01635  -0.00642   0.00238
 Alpha virt. eigenvalues --    0.01309   0.02153   0.03417   0.03691   0.04348
 Alpha virt. eigenvalues --    0.04786   0.05228   0.05506   0.05737   0.06233

 Mulliken charges:
               1
     1  Mg   0.812159
     2  C   -0.028781
     3  C   -0.099450
     4  C   -0.057326
     5  C   -0.059581
     6  N   -0.248814
     7  C   -0.043439
     8  C   -0.044794
     9  C   -0.088801
    10  C    0.098911
    11  C    0.104665
    12  C    0.043803
    13  C   -0.046336
    14  H    0.043114
    15  N   -0.364822
    16  C    0.130284
    17  C   -0.164608
    18  C   -0.010208
    19  C    0.117272
    20  C    0.118292
    21  C   -0.027335
    22  O   -0.177882
    23  C    0.053218
    24  N   -0.335180
    25  C    0.060019
    26  C   -0.034794
    27  C    0.001821
    28  C    0.091025
    29  C    0.079010
    30  C    0.052793
    31  C   -0.010877
    32  N   -0.349681
    33  C    0.029316
    34  C   -0.198511
    35  C    0.055422
    36  C    0.098959
    37  C    0.155261
    38  C    0.027624
    39  O   -0.234749
    40  C    0.043275
    41  C    0.189500
    42  O   -0.182817
    43  O   -0.370930
    44  C    0.179485
    45  H   -0.015685
    46  H   -0.007048
    47  H   -0.033241
    48  H    0.018858
    49  H    0.010877
    50  H    0.008520
    51  H    0.034506
    52  H    0.000914
    53  H    0.003661
    54  H    0.033855
    55  H    0.006096
    56  H    0.019846
    57  H    0.008973
    58  H    0.052296
    59  H    0.037427
    60  H    0.038586
    61  H    0.030751
    62  H    0.035196
    63  H   -0.003008
    64  H   -0.011692
    65  H    0.023902
    66  H    0.009555
    67  H    0.009593
    68  H    0.005918
    69  H   -0.012802
    70  H    0.007324
    71  H    0.039789
    72  H    0.005894
    73  H    0.023724
    74  H    0.041519
    75  H    0.023714
    76  H    0.054112
    77  H    0.036070
    78  H    0.033044
    79  H    0.033307
    80  Mg   0.834660
    81  C    0.010563
    82  C   -0.091823
    83  C   -0.055504
    84  C   -0.084006
    85  N   -0.248284
    86  C   -0.026329
    87  C   -0.043069
    88  C   -0.077616
    89  C    0.007492
    90  C    0.066685
    91  C    0.079882
    92  C   -0.066554
    93  H    0.007880
    94  N   -0.438505
    95  C    0.227244
    96  C   -0.127279
    97  C   -0.046083
    98  C    0.134129
    99  C    0.087144
   100  C    0.029139
   101  O   -0.183223
   102  C    0.052921
   103  N   -0.286449
   104  C    0.054684
   105  C   -0.062196
   106  C   -0.033642
   107  C    0.040319
   108  C    0.054784
   109  C    0.074152
   110  C   -0.020704
   111  N   -0.350817
   112  C    0.090767
   113  C   -0.208715
   114  C    0.068656
   115  C    0.081273
   116  C    0.155898
   117  C    0.024270
   118  O   -0.169903
   119  C    0.033184
   120  C    0.207458
   121  O   -0.257353
   122  O   -0.337873
   123  C    0.183777
   124  H   -0.036662
   125  H   -0.008375
   126  H   -0.032731
   127  H    0.002755
   128  H   -0.001368
   129  H    0.021963
   130  H    0.020388
   131  H    0.008859
   132  H    0.002945
   133  H    0.026784
   134  H    0.052423
   135  H    0.026917
   136  H    0.027398
   137  H   -0.000829
   138  H    0.022229
   139  H    0.043855
   140  H    0.025075
   141  H    0.026967
   142  H    0.010535
   143  H    0.014590
   144  H    0.022548
   145  H    0.007166
   146  H    0.014585
   147  H    0.008300
   148  H    0.013582
   149  H    0.016652
   150  H    0.011653
   151  H   -0.000081
   152  H   -0.001680
   153  H    0.033684
   154  H    0.048868
   155  H    0.037574
   156  H    0.040318
   157  H    0.042866
   158  H    0.049344
 Sum of Mulliken charges =  -0.00000

 Dipole moment (field-independent basis, Debye):
    X=              3.9080    Y=              2.5113    Z=             -0.1462  Tot=              4.6476
 Quadrupole moment (field-independent basis, Debye-Ang):
   XX=           -420.2541   YY=           -481.0351   ZZ=           -531.4321
   XY=              8.5695   XZ=              3.0825   YZ=              2.6627

 Normal termination of Gaussian 16 at Tue Sep 14 15:32:41 2021.
