 Gaussian 16, Revision A.03,
 Gaussian 16:  ES64L-G16RevA.03 25-Dec-2016

 ----------------------------------------------------------
 #p cam-b3lyp/Def2SVP td=(nstates=5) density=(transition=1)
 ----------------------------------------------------------

 --------------------------------
 TDDFT excited states in gaussian
 --------------------------------
 Symbolic Z-matrix:
 Charge =  0 Multiplicity = 1

                         Standard orientation:
 ---------------------------------------------------------------------
 Center     Atomic      Atomic             Coordinates (Angstroms)
 Number     Number       Type             X           Y           Z
 ---------------------------------------------------------------------
      1         12           0       19.306069   -0.770429   -0.090606
      2          6           0       21.104827    2.159484   -0.223599
      3          6           0       16.940653    0.890627    1.885322
      4          6           0       17.526246   -3.626825    0.169437
      5          6           0       21.813406   -2.407851   -1.687279
      6          7           0       19.214135    1.256040    0.952910
      7          6           0       19.973859    2.351513    0.523937
      8          6           0       19.364323    3.692493    0.978303
      9          6           0       18.086520    3.185940    1.743335
     10          6           0       18.004344    1.693795    1.503054
     11          6           0       18.101303    3.532780    3.226719
     12          6           0       19.019529    4.788756   -0.090989
     13          6           0       19.893882    6.156973   -0.056742
     14          1           0       19.000451    7.380875    0.167628
     15          7           0       17.579987   -1.327828    0.948087
     16          6           0       16.684421   -0.460679    1.594585
     17          6           0       15.422091   -1.136457    1.912122
     18          6           0       15.569720   -2.563504    1.480629
     19          6           0       16.908300   -2.573209    0.766100
     20          6           0       14.263012   -0.445542    2.596032
     21          6           0       14.681796   -3.709102    1.615871
     22          8           0       15.068572   -4.832371    1.260981
     23          6           0       13.301775   -3.618548    2.243291
     24          7           0       19.685437   -2.673652   -0.596477
     25          6           0       18.744277   -3.717200   -0.522861
     26          6           0       19.175820   -5.058993   -1.241477
     27          6           0       20.615631   -4.592296   -1.805096
     28          6           0       20.698024   -3.119397   -1.344414
     29          6           0       19.250726   -6.341011   -0.273973
     30          6           0       20.712344   -4.761717   -3.360347
     31          6           0       22.016428   -5.216439   -3.937025
     32          7           0       21.175053   -0.232484   -0.727674
     33          6           0       22.091855   -1.018660   -1.431473
     34          6           0       23.176645   -0.230922   -1.908666
     35          6           0       22.767633    1.098635   -1.521394
     36          6           0       21.600228    0.988467   -0.755370
     37          6           0       24.356026   -0.586721   -2.712706
     38          6           0       23.203825    2.459322   -1.481853
     39          8           0       24.161287    3.084907   -1.950372
     40          6           0       22.184196    3.182045   -0.489379
     41          6           0       22.933480    3.654355    0.704948
     42          8           0       23.014629    3.156457    1.758331
     43          8           0       23.480328    4.912344    0.462753
     44          6           0       23.710789    5.718331    1.643605
     45          1           0       16.165058    1.437919    2.425172
     46          1           0       17.019147   -4.592717    0.122232
     47          1           0       22.549315   -2.895796   -2.329716
     48          1           0       20.032646    4.146470    1.709187
     49          1           0       17.182917    3.688202    1.396770
     50          1           0       18.164944    2.608826    3.800866
     51          1           0       17.126832    3.997764    3.371077
     52          1           0       18.849416    4.262015    3.536875
     53          1           0       17.968000    5.050885    0.028604
     54          1           0       19.169492    4.414314   -1.103709
     55          1           0       20.274103    6.207884   -1.077160
     56          1           0       20.664827    6.096725    0.711124
     57          1           0       14.553452   -0.311062    3.638718
     58          1           0       13.397094   -1.102879    2.534125
     59          1           0       14.085327    0.567103    2.233340
     60          1           0       13.031374   -4.643566    2.497738
     61          1           0       12.554598   -3.153402    1.599429
     62          1           0       13.230715   -3.167100    3.232662
     63          1           0       18.547055   -5.227983   -2.115059
     64          1           0       21.462565   -5.173840   -1.440225
     65          1           0       20.116604   -6.937561   -0.561931
     66          1           0       18.450641   -7.074131   -0.368955
     67          1           0       19.317210   -6.075629    0.781323
     68          1           0       20.397915   -3.881839   -3.921403
     69          1           0       20.060421   -5.550712   -3.734801
     70          1           0       22.381431   -4.355707   -4.497167
     71          1           0       22.039951   -5.959829   -4.733848
     72          1           0       22.706651   -5.470716   -3.131976
     73          1           0       24.106943   -1.457794   -3.319376
     74          1           0       25.102619   -0.872330   -1.971774
     75          1           0       24.727109    0.313321   -3.203302
     76          1           0       21.732214    4.043243   -0.980832
     77          1           0       24.613470    5.290089    2.078023
     78          1           0       22.854623    5.536335    2.292991
     79          1           0       23.885028    6.763990    1.388343
     80         12           0      -19.818085   -0.645698    0.135249
     81          6           0      -19.614340    2.730444   -1.117735
     82          6           0      -18.862484    0.646932    3.251860
     83          6           0      -20.113161   -3.691704    1.324647
     84          6           0      -20.453478   -1.765223   -3.114992
     85          7           0      -19.273742    1.512262    0.925058
     86          6           0      -19.469178    2.707223    0.307706
     87          6           0      -19.402372    3.870198    1.284164
     88          6           0      -18.804760    3.205126    2.646394
     89          6           0      -18.958851    1.705724    2.259888
     90          6           0      -17.382063    3.678513    3.036304
     91          6           0      -20.788790    4.569483    1.487698
     92          6           0      -20.780540    6.088330    1.175114
     93          1           0      -21.092309    7.029950    2.476133
     94          7           0      -19.542464   -1.389655    1.970952
     95          6           0      -19.112001   -0.749664    3.182261
     96          6           0      -19.035029   -1.671638    4.340086
     97          6           0      -19.461052   -2.907271    3.751671
     98          6           0      -19.722601   -2.693094    2.318456
     99          6           0      -18.579936   -1.278771    5.747040
    100          6           0      -19.545199   -4.245726    4.380708
    101          8           0      -20.128974   -5.218431    3.915081
    102          6           0      -18.974011   -4.410649    5.802768
    103          7           0      -20.386279   -2.393758   -0.737381
    104          6           0      -20.407560   -3.552678   -0.040257
    105          6           0      -20.549366   -4.764131   -0.919232
    106          6           0      -20.709221   -4.185946   -2.346873
    107          6           0      -20.567515   -2.670637   -2.078848
    108          6           0      -19.459679   -5.801857   -0.749405
    109          6           0      -22.192062   -4.541078   -2.951958
    110          6           0      -22.203998   -5.279140   -4.398814
    111          7           0      -19.741216    0.227841   -1.801810
    112          6           0      -20.114059   -0.380436   -3.024608
    113          6           0      -20.118585    0.661949   -4.057349
    114          6           0      -20.065681    1.866090   -3.307064
    115          6           0      -19.720502    1.549473   -1.992309
    116          6           0      -20.231718    0.538032   -5.573819
    117          6           0      -19.935123    3.338210   -3.498346
    118          8           0      -19.921500    4.118522   -4.490502
    119          6           0      -19.763741    3.922727   -2.043060
    120          6           0      -18.556380    4.813176   -2.028209
    121          8           0      -17.507313    4.537628   -2.538035
    122          8           0      -18.879989    6.012359   -1.456649
    123          6           0      -17.855013    7.056777   -1.707985
    124          1           0      -18.434443    1.075887    4.160056
    125          1           0      -20.224932   -4.726122    1.657114
    126          1           0      -20.687584   -2.086353   -4.131873
    127          1           0      -18.649707    4.551422    0.887182
    128          1           0      -19.459512    3.353516    3.505523
    129          1           0      -16.668145    2.856818    2.972256
    130          1           0      -17.381495    4.092561    4.045441
    131          1           0      -16.987706    4.519956    2.466553
    132          1           0      -21.142923    4.472344    2.514308
    133          1           0      -21.554020    4.140797    0.840039
    134          1           0      -21.610775    6.399196    0.540408
    135          1           0      -19.900262    6.448551    0.643641
    136          1           0      -18.584160   -0.216012    5.991222
    137          1           0      -17.611619   -1.673570    6.054441
    138          1           0      -19.305940   -1.745395    6.413597
    139          1           0      -17.904113   -4.202532    5.808430
    140          1           0      -19.186800   -5.393807    6.223911
    141          1           0      -19.471415   -3.685298    6.446607
    142          1           0      -21.437095   -5.309583   -0.596198
    143          1           0      -19.902659   -4.516925   -3.000437
    144          1           0      -19.793497   -6.702519   -0.233434
    145          1           0      -18.616746   -5.490697   -0.132467
    146          1           0      -19.069211   -6.040912   -1.738807
    147          1           0      -22.843356   -3.674969   -3.064692
    148          1           0      -22.758087   -5.208772   -2.302955
    149          1           0      -21.215803   -5.727584   -4.503022
    150          1           0      -22.408910   -4.579416   -5.210105
    151          1           0      -22.873102   -6.139209   -4.400393
    152          1           0      -20.740527    1.392364   -6.019858
    153          1           0      -20.912109   -0.288844   -5.780700
    154          1           0      -19.217473    0.283656   -5.881890
    155          1           0      -20.617124    4.583233   -1.891643
    156          1           0      -16.896840    6.656379   -1.377352
    157          1           0      -18.122699    7.845938   -1.005538
    158          1           0      -17.694877    7.412178   -2.725861
 ---------------------------------------------------------------------

 SCF Done:  E(RCAM-B3LYP) =  -4069.79041657     A.U. after   19 cycles

 Excitation energies and oscillator strengths:

 Excited State   1:      Singlet-A      1.6716 eV  741.71 nm  f=0.2639  <S**2>=0.000
     309 -> 315        0.11935
     310 -> 316       -0.12232
     311 -> 313        0.52274
     312 -> 314       -0.44536
 This state for optimization and/or second-order correction.
 Total Energy, E(TD-HF/TD-DFT) =  -4069.72898638
 Copying the excited state density for this state as the 1-particle RhoCI density.

 Excited State   2:      Singlet-A      1.6726 eV  741.29 nm  f=0.5165  <S**2>=0.000
     309 -> 315        0.10246
     310 -> 316        0.14287
     311 -> 313        0.44807
     312 -> 314        0.51949

 Excited State   3:      Singlet-A      2.1741 eV  570.29 nm  f=0.1315  <S**2>=0.000
     310 -> 314        0.64730
     312 -> 316       -0.27757

 Excited State   4:      Singlet-A      2.1913 eV  565.81 nm  f=0.1283  <S**2>=0.000
     309 -> 313        0.64541
     311 -> 315       -0.25761

 Excited State   5:      Singlet-A      3.0355 eV  408.45 nm  f=0.0000  <S**2>=0.000
     312 -> 313        0.70710

 The electronic state is 1-A.
 Alpha  occ. eigenvalues --  -46.88570 -46.87944 -19.25688 -19.22186 -19.19787
 Alpha  occ. eigenvalues --  -19.19603 -19.18992 -19.18875 -19.18725 -19.17968
 Alpha  occ. eigenvalues --  -14.42647 -14.42577 -14.42013 -14.41975 -14.40755
 Alpha  occ. eigenvalues --  -14.40288 -14.39290 -14.38599 -10.38860 -10.38124
 Alpha  occ. eigenvalues --  -10.35351 -10.35181 -10.35162 -10.34220 -10.31967
 Alpha  occ. eigenvalues --  -10.31868 -10.31845 -10.31617 -10.31528 -10.31329
 Alpha  occ. eigenvalues --  -10.31303 -10.31066 -10.31048 -10.30906 -10.30838
 Alpha  occ. eigenvalues --  -10.30777 -10.30707 -10.30635 -10.30485 -10.30296
 Alpha  occ. eigenvalues --  -10.30018 -10.29545 -10.29305 -10.29254 -10.29139
 Alpha  occ. eigenvalues --  -10.29081 -10.29034 -10.28944 -10.28669 -10.28575
 Alpha  occ. eigenvalues --  -10.28571 -10.28489 -10.28279 -10.28271 -10.28266
 Alpha  occ. eigenvalues --  -10.28122 -10.28001 -10.27879 -10.27870 -10.27768
 Alpha  occ. eigenvalues --  -10.27729 -10.27628 -10.27486 -10.27367 -10.27327
 Alpha  occ. eigenvalues --  -10.27275 -10.27182 -10.27178 -10.26796 -10.26638
 Alpha  occ. eigenvalues --  -10.26555 -10.26507 -10.26498 -10.26478 -10.26201
 Alpha  occ. eigenvalues --  -10.26164 -10.26150 -10.26094 -10.25997 -10.25949
 Alpha  occ. eigenvalues --  -10.25897 -10.25840 -10.25530 -10.25338 -10.25228
 Alpha  occ. eigenvalues --  -10.24504  -3.17214  -3.16706  -1.92111  -1.91668
 Alpha  occ. eigenvalues --   -1.91575  -1.91535  -1.91171  -1.91023  -1.17004
 Alpha  occ. eigenvalues --   -1.16794  -1.10007  -1.09580  -1.08727  -1.08133
 Alpha  occ. eigenvalues --   -1.07735  -1.07104  -1.04651  -1.04038  -1.03451
 Alpha  occ. eigenvalues --   -1.03307  -1.02623  -1.02083  -1.02055  -1.00644
 Alpha  occ. eigenvalues --   -0.92607  -0.91615  -0.89204  -0.88681  -0.88637
 Alpha  occ. eigenvalues --   -0.88535  -0.88519  -0.88167  -0.87452  -0.87367
 Alpha  occ. eigenvalues --   -0.87220  -0.87034  -0.86694  -0.85675  -0.84243
 Alpha  occ. eigenvalues --   -0.84062  -0.83481  -0.83209  -0.82425  -0.81912
 Alpha  occ. eigenvalues --   -0.81855  -0.81433  -0.80885  -0.80715  -0.80244
 Alpha  occ. eigenvalues --   -0.79799  -0.79135  -0.78796  -0.77422  -0.77136
 Alpha  occ. eigenvalues --   -0.76825  -0.76712  -0.76076  -0.75280  -0.75266
 Alpha  occ. eigenvalues --   -0.75251  -0.73086  -0.72596  -0.71708  -0.71459
 Alpha  occ. eigenvalues --   -0.69348  -0.69214  -0.68784  -0.68709  -0.67964
 Alpha  occ. eigenvalues --   -0.67633  -0.67570  -0.67129  -0.65958  -0.65689
 Alpha  occ. eigenvalues --   -0.65674  -0.65323  -0.65016  -0.64426  -0.64036
 Alpha  occ. eigenvalues --   -0.63905  -0.62408  -0.60876  -0.60841  -0.60207
 Alpha  occ. eigenvalues --   -0.59420  -0.59302  -0.59019  -0.58777  -0.58479
 Alpha  occ. eigenvalues --   -0.58386  -0.58313  -0.57997  -0.57714  -0.57178
 Alpha  occ. eigenvalues --   -0.56524  -0.56177  -0.55594  -0.55316  -0.55306
 Alpha  occ. eigenvalues --   -0.55104  -0.54536  -0.53945  -0.53818  -0.53647
 Alpha  occ. eigenvalues --   -0.53434  -0.53284  -0.53014  -0.52706  -0.52690
 Alpha  occ. eigenvalues --   -0.52603  -0.52300  -0.52194  -0.52172  -0.51693
 Alpha  occ. eigenvalues --   -0.51621  -0.51487  -0.51416  -0.51382  -0.51206
 Alpha  occ. eigenvalues --   -0.50887  -0.50773  -0.50577  -0.50499  -0.50147
 Alpha  occ. eigenvalues --   -0.50103  -0.50023  -0.50007  -0.49842  -0.49807
 Alpha  occ. eigenvalues --   -0.49643  -0.49466  -0.49249  -0.48986  -0.48824
 Alpha  occ. eigenvalues --   -0.48606  -0.48554  -0.48284  -0.48154  -0.48097
 Alpha  occ. eigenvalues --   -0.48045  -0.48037  -0.47604  -0.47507  -0.47297
 Alpha  occ. eigenvalues --   -0.47085  -0.46969  -0.46880  -0.46850  -0.46607
 Alpha  occ. eigenvalues --   -0.46508  -0.46241  -0.46160  -0.46012  -0.45984
 Alpha  occ. eigenvalues --   -0.45613  -0.45421  -0.45293  -0.45027  -0.44993
 Alpha  occ. eigenvalues --   -0.44853  -0.44813  -0.44654  -0.44413  -0.44177
 Alpha  occ. eigenvalues --   -0.44138  -0.43921  -0.43826  -0.43683  -0.43532
 Alpha  occ. eigenvalues --   -0.43358  -0.43351  -0.43079  -0.42927  -0.42900
 Alpha  occ. eigenvalues --   -0.42648  -0.42529  -0.42256  -0.42074  -0.42001
 Alpha  occ. eigenvalues --   -0.41670  -0.41584  -0.41436  -0.41351  -0.41194
 Alpha  occ. eigenvalues --   -0.41041  -0.40831  -0.40732  -0.40653  -0.40473
 Alpha  occ. eigenvalues --   -0.40216  -0.40150  -0.39908  -0.39415  -0.39081
 Alpha  occ. eigenvalues --   -0.38727  -0.38639  -0.38272  -0.37837  -0.37703
 Alpha  occ. eigenvalues --   -0.37528  -0.37382  -0.37090  -0.36418  -0.36137
 Alpha  occ. eigenvalues --   -0.35540  -0.34936  -0.34679  -0.34474  -0.34461
 Alpha  occ. eigenvalues --   -0.34101  -0.33202  -0.33058  -0.31672  -0.31565
 Alpha  occ. eigenvalues --   -0.31451  -0.31031  -0.30635  -0.30311  -0.30048
 Alpha  occ. eigenvalues --   -0.29795  -0.29423  -0.29291  -0.24396  -0.23945
 Alpha  occ. eigenvalues --   -0.21481  -0.21345
 Alpha virt. eigenvalues --   -0.09302  -0.09020  -0.02191  -0.01874  -0.00255
 Alpha virt. eigenvalues --    0.00092   0.01923   0.02017   0.02398   0.03518
 Alpha virt. eigenvalues --    0.04190   0.05103   0.05174   0.05335   0.05659

 Mulliken charges:
               1
     1  Mg  12.002564
     2  C    5.989392
     3  C    6.013093
     4  C    6.016487
     5  C    5.991242
     6  N    6.996200
     7  C    6.020619
     8  C    5.989966
     9  C    6.007258
    10  C    5.978714
    11  C    6.001193
    12  C    5.999018
    13  C    5.997208
    14  H    1.006885
    15  N    7.004046
    16  C    5.968334
    17  C    5.978209
    18  C    5.989366
    19  C    5.972608
    20  C    6.002911
    21  C    5.991714
    22  O    7.977184
    23  C    6.005563
    24  N    7.001643
    25  C    5.970232
    26  C    6.012146
    27  C    5.989621
    28  C    6.024478
    29  C    6.002289
    30  C    5.995142
    31  C    6.000490
    32  N    6.998545
    33  C    6.032038
    34  C    6.021515
    35  C    6.004939
    36  C    6.022127
    37  C    5.998412
    38  C    6.011872
    39  O    8.026268
    40  C    5.999907
    41  C    6.000584
    42  O    8.006138
    43  O    7.999608
    44  C    5.998063
    45  H    0.993740
    46  H    0.994933
    47  H    1.007758
    48  H    1.002340
    49  H    0.999805
    50  H    1.002179
    51  H    0.999736
    52  H    0.989525
    53  H    1.007694
    54  H    0.997765
    55  H    0.997638
    56  H    0.998334
    57  H    0.983785
    58  H    0.988052
    59  H    0.984007
    60  H    0.988978
    61  H    0.992083
    62  H    0.993821
    63  H    0.996926
    64  H    1.002528
    65  H    0.990788
    66  H    1.000809
    67  H    1.000848
    68  H    1.000386
    69  H    1.009350
    70  H    0.995750
    71  H    1.004083
    72  H    1.000019
    73  H    1.014964
    74  H    1.015227
    75  H    1.011118
    76  H    1.008836
    77  H    1.001704
    78  H    1.004889
    79  H    1.003778
    80  Mg  11.997120
    81  C    6.018487
    82  C    5.995752
    83  C    5.977717
    84  C    6.007226
    85  N    7.010961
    86  C    5.976671
    87  C    6.006873
    88  C    5.991750
    89  C    6.020566
    90  C    5.998104
    91  C    6.001224
    92  C    6.001417
    93  H    0.995169
    94  N    6.995580
    95  C    6.025842
    96  C    6.015873
    97  C    6.009454
    98  C    6.021035
    99  C    5.996789
   100  C    6.007462
   101  O    8.020769
   102  C    5.997138
   103  N    6.994772
   104  C    6.026241
   105  C    5.993106
   106  C    6.008033
   107  C    5.979336
   108  C    5.999454
   109  C    6.003338
   110  C    6.000608
   111  N    7.003127
   112  C    5.969776
   113  C    5.980225
   114  C    5.996925
   115  C    5.978169
   116  C    5.999810
   117  C    5.993759
   118  O    7.979688
   119  C    5.996919
   120  C    5.995520
   121  O    7.999920
   122  O    7.998735
   123  C    6.001402
   124  H    1.008828
   125  H    1.000692
   126  H    0.991654
   127  H    1.001554
   128  H    1.000795
   129  H    0.999759
   130  H    1.002595
   131  H    1.009362
   132  H    0.993924
   133  H    1.003218
   134  H    1.001935
   135  H    1.001303
   136  H    1.010932
   137  H    1.013332
   138  H    1.010845
   139  H    1.005150
   140  H    1.009788
   141  H    1.003429
   142  H    0.999250
   143  H    0.997438
   144  H    0.998456
   145  H    0.996578
   146  H    1.006584
   147  H    1.000629
   148  H    0.991652
   149  H    0.997402
   150  H    1.001852
   151  H    0.995716
   152  H    0.989654
   153  H    0.988883
   154  H    0.988627
   155  H    0.996855
   156  H    0.997034
   157  H    0.996566
   158  H    0.999888
 Sum of Mulliken charges = 624.00000

 Dipole moment (field-independent basis, Debye):
    X=              8.5282    Y=              0.3665    Z=              3.2262  Tot=              9.1254
 Quadrupole moment (field-independent basis, Debye-Ang):
   XX=            249.3258   YY=             -0.8925   ZZ=              2.3905
   XY=             85.2415   XZ=           -195.1298   YZ=             -1.8933

 Normal termination of Gaussian 16 at Thu Sep 23 09:52:54 2021.
