 Gaussian 16, Revision A.03,
 Gaussian 16:  ES64L-G16RevA.03 25-Dec-2016

 ----------------------------------------------------------
 #p cam-b3lyp/Def2SVP td=(nstates=5) density=(transition=1)
 ----------------------------------------------------------

 --------------------------------
 TDDFT excited states in gaussian
 --------------------------------
 Symbolic Z-matrix:
 Charge =  0 Multiplicity = 1

                         Standard orientation:
 ---------------------------------------------------------------------
 Center     Atomic      Atomic             Coordinates (Angstroms)
 Number     Number       Type             X           Y           Z
 ---------------------------------------------------------------------
      1         12           0      -28.109921   -0.049620   -0.259983
      2          6           0      -24.798833    0.436803    0.909126
      3          6           0      -28.035964   -3.125527    1.175616
      4          6           0      -31.484957   -0.156308   -0.656380
      5          6           0      -28.161904    3.289055   -1.189115
      6          7           0      -26.558860   -1.056899    1.038542
      7          6           0      -25.251265   -0.759675    1.317710
      8          6           0      -24.566137   -1.870081    2.023789
      9          6           0      -25.546608   -3.112571    1.783844
     10          6           0      -26.782649   -2.416568    1.326029
     11          6           0      -24.977400   -4.097465    0.775394
     12          6           0      -24.340407   -1.417785    3.475029
     13          6           0      -22.860637   -1.485864    4.043852
     14          1           0      -22.530677   -2.266082    5.351939
     15          7           0      -29.596341   -1.423865    0.130605
     16          6           0      -29.323149   -2.693517    0.658209
     17          6           0      -30.525358   -3.467104    0.573312
     18          6           0      -31.581642   -2.633980    0.071524
     19          6           0      -30.883378   -1.359581   -0.246087
     20          6           0      -30.537016   -4.937304    0.971770
     21          6           0      -33.041660   -2.970255   -0.134685
     22          8           0      -33.311989   -4.188516    0.073256
     23          6           0      -34.225156   -2.013162   -0.452685
     24          7           0      -29.653847    1.370914   -0.856976
     25          6           0      -30.965703    1.067859   -0.971439
     26          6           0      -31.836691    2.276730   -1.404715
     27          6           0      -30.735954    3.357689   -1.683244
     28          6           0      -29.414351    2.627652   -1.150980
     29          6           0      -32.663686    1.900437   -2.621031
     30          6           0      -30.934142    4.670433   -0.988842
     31          6           0      -31.248813    5.809903   -1.919711
     32          7           0      -26.800326    1.495705   -0.353907
     33          6           0      -26.892625    2.820125   -0.800177
     34          6           0      -25.662551    3.426453   -0.873371
     35          6           0      -24.792087    2.513065   -0.244373
     36          6           0      -25.545788    1.399351    0.118948
     37          6           0      -25.406280    4.719233   -1.618620
     38          6           0      -23.363559    2.267705    0.088259
     39          8           0      -22.410915    2.951723   -0.124039
     40          6           0      -23.418507    0.930993    0.920400
     41          6           0      -22.226269    0.100026    0.498853
     42          8           0      -21.201422   -0.042309    1.165843
     43          8           0      -22.480126   -0.529797   -0.743778
     44          6           0      -21.407892   -1.444536   -1.134674
     45          1           0      -27.957277   -4.184442    1.431486
     46          1           0      -32.551312   -0.177275   -0.893227
     47          1           0      -28.159368    4.378834   -1.248719
     48          1           0      -23.596809   -2.051482    1.559290
     49          1           0      -25.670225   -3.634345    2.732454
     50          1           0      -24.443472   -3.615253   -0.042293
     51          1           0      -25.809640   -4.610364    0.292151
     52          1           0      -24.362871   -4.878880    1.222376
     53          1           0      -24.982019   -2.034652    4.104076
     54          1           0      -24.733975   -0.425080    3.693535
     55          1           0      -22.682477   -0.425309    4.223450
     56          1           0      -22.150563   -1.699449    3.245798
     57          1           0      -30.097591   -5.079528    1.959091
     58          1           0      -29.906164   -5.450690    0.246224
     59          1           0      -31.508224   -5.419123    1.092570
     60          1           0      -34.022316   -1.701810   -1.476892
     61          1           0      -34.179521   -1.166342    0.232186
     62          1           0      -35.196436   -2.494340   -0.334815
     63          1           0      -32.542132    2.611724   -0.644719
     64          1           0      -30.570881    3.450791   -2.756335
     65          1           0      -33.178273    0.966577   -2.394114
     66          1           0      -31.983620    1.754558   -3.460887
     67          1           0      -33.357358    2.627126   -3.042236
     68          1           0      -30.054712    5.014350   -0.444389
     69          1           0      -31.702746    4.706110   -0.217033
     70          1           0      -32.171245    6.276496   -1.576212
     71          1           0      -31.470261    5.478103   -2.934093
     72          1           0      -30.442111    6.535798   -2.027165
     73          1           0      -24.329072    4.761591   -1.782835
     74          1           0      -25.722705    5.593983   -1.050975
     75          1           0      -25.983151    4.625856   -2.538459
     76          1           0      -23.140318    1.277911    1.916239
     77          1           0      -21.794785   -2.232475   -1.781009
     78          1           0      -21.040877   -2.014241   -0.282133
     79          1           0      -20.558610   -0.937086   -1.593011
     80         12           0       27.774541    0.706681   -0.669060
     81          6           0       26.305769   -2.525556   -0.938306
     82          6           0       24.671935    2.041573   -0.099283
     83          6           0       29.301397    3.580970    0.617107
     84          6           0       30.945335   -0.808089   -0.671619
     85          7           0       25.708558   -0.313209   -0.290357
     86          6           0       25.322231   -1.539269   -0.679299
     87          6           0       23.822013   -1.543988   -0.909272
     88          6           0       23.259093   -0.080246   -0.572355
     89          6           0       24.701462    0.628925   -0.448991
     90          6           0       22.419427    0.417890   -1.770102
     91          6           0       23.149521   -2.621667   -0.074138
     92          6           0       23.709496   -2.853244    1.349446
     93          1           0       22.840035   -2.351962    2.534787
     94          7           0       27.077238    2.631449    0.081197
     95          6           0       25.737722    2.917960    0.230524
     96          6           0       25.673709    4.304597    0.571279
     97          6           0       26.994861    4.800240    0.891483
     98          6           0       27.895542    3.688200    0.495356
     99          6           0       24.367214    5.023399    0.816433
    100          6           0       27.362349    6.098381    1.612023
    101          8           0       26.486627    6.837248    2.019081
    102          6           0       28.711954    6.507907    1.861500
    103          7           0       29.811578    1.280449   -0.007072
    104          6           0       30.162822    2.516032    0.317222
    105          6           0       31.644260    2.660647    0.625357
    106          6           0       32.079456    1.133790    0.555206
    107          6           0       30.930717    0.487890   -0.131746
    108          6           0       32.436463    3.594576   -0.414094
    109          6           0       32.427077    0.583722    2.014588
    110          6           0       33.840023    0.224488    2.377976
    111          7           0       28.498958   -1.136424   -1.011986
    112          6           0       29.831326   -1.587063   -1.107966
    113          6           0       29.873480   -2.999091   -1.531567
    114          6           0       28.522582   -3.343136   -1.486128
    115          6           0       27.695827   -2.249213   -1.050699
    116          6           0       31.088477   -3.859687   -2.022606
    117          6           0       27.624194   -4.484331   -1.688489
    118          8           0       27.810896   -5.659667   -2.044345
    119          6           0       26.166246   -4.017326   -1.366770
    120          6           0       25.868539   -4.905664   -0.208472
    121          8           0       26.501872   -4.950687    0.814884
    122          8           0       24.877262   -5.737607   -0.514998
    123          6           0       24.346606   -6.673083    0.537248
    124          1           0       23.695134    2.515345   -0.215720
    125          1           0       29.913099    4.426918    0.936895
    126          1           0       31.958592   -1.195148   -0.541189
    127          1           0       23.826937   -1.815174   -1.965013
    128          1           0       22.688273   -0.054820    0.356261
    129          1           0       21.406341    0.609421   -1.417011
    130          1           0       22.323041   -0.299780   -2.585225
    131          1           0       22.873499    1.359069   -2.078942
    132          1           0       23.209831   -3.576842   -0.595847
    133          1           0       22.100567   -2.375989    0.094047
    134          1           0       24.623745   -2.328531    1.626455
    135          1           0       23.851428   -3.932272    1.410982
    136          1           0       23.513021    4.350268    0.738959
    137          1           0       24.335846    5.885009    0.148659
    138          1           0       24.434140    5.487191    1.799943
    139          1           0       29.281893    5.860534    2.528315
    140          1           0       28.708887    7.499360    2.313991
    141          1           0       29.159687    6.470927    0.867799
    142          1           0       31.857099    2.969955    1.648337
    143          1           0       33.047331    1.215857    0.060326
    144          1           0       31.732591    4.019154   -1.130511
    145          1           0       33.121752    2.950733   -0.965734
    146          1           0       33.056595    4.378695    0.023027
    147          1           0       31.952799   -0.380857    2.195924
    148          1           0       32.090436    1.277471    2.783747
    149          1           0       34.043071   -0.846235    2.355889
    150          1           0       33.858868    0.592801    3.404219
    151          1           0       34.605632    0.843747    1.910285
    152          1           0       31.676047   -4.130872   -1.145923
    153          1           0       31.622553   -3.264305   -2.763316
    154          1           0       30.703413   -4.793195   -2.432560
    155          1           0       25.589659   -4.189870   -2.276290
    156          1           0       24.921760   -7.596315    0.611136
    157          1           0       23.309477   -6.944442    0.336045
    158          1           0       24.388251   -6.098638    1.462639
 ---------------------------------------------------------------------

 SCF Done:  E(RCAM-B3LYP) =  -4069.76924496     A.U. after   19 cycles

 Excitation energies and oscillator strengths:

 Excited State   1:      Singlet-A      1.6837 eV  736.38 nm  f=0.3463  <S**2>=0.000
     309 -> 316       -0.17377
     311 -> 313        0.68627
     309 <- 316       -0.10786
 This state for optimization and/or second-order correction.
 Total Energy, E(TD-HF/TD-DFT) =  -4069.70737049
 Copying the excited state density for this state as the 1-particle RhoCI density.

 Excited State   2:      Singlet-A      1.6890 eV  734.07 nm  f=0.3681  <S**2>=0.000
     310 -> 315        0.20059
     312 -> 314        0.67990
     310 <- 315        0.11482

 Excited State   3:      Singlet-A      2.1999 eV  563.59 nm  f=0.0727  <S**2>=0.000
     310 -> 314        0.61855
     312 -> 315       -0.32993

 Excited State   4:      Singlet-A      2.2196 eV  558.59 nm  f=0.1593  <S**2>=0.000
     309 -> 313        0.64871
     311 -> 316        0.26684

 Excited State   5:      Singlet-A      3.0873 eV  401.60 nm  f=0.0000  <S**2>=0.000
     312 -> 313        0.70710

 The electronic state is 1-A.
 Alpha  occ. eigenvalues --  -46.90211 -46.89030 -19.25651 -19.25077 -19.21032
 Alpha  occ. eigenvalues --  -19.19876 -19.18857 -19.18853 -19.18325 -19.18067
 Alpha  occ. eigenvalues --  -14.42430 -14.42392 -14.42252 -14.41974 -14.40138
 Alpha  occ. eigenvalues --  -14.40110 -14.39538 -14.39020 -10.40377 -10.38727
 Alpha  occ. eigenvalues --  -10.35684 -10.35502 -10.34969 -10.34320 -10.32459
 Alpha  occ. eigenvalues --  -10.32008 -10.32006 -10.31686 -10.31389 -10.31145
 Alpha  occ. eigenvalues --  -10.30978 -10.30928 -10.30877 -10.30737 -10.30704
 Alpha  occ. eigenvalues --  -10.30689 -10.30657 -10.30573 -10.29954 -10.29849
 Alpha  occ. eigenvalues --  -10.29082 -10.28885 -10.28854 -10.28818 -10.28726
 Alpha  occ. eigenvalues --  -10.28591 -10.28563 -10.28559 -10.28426 -10.28401
 Alpha  occ. eigenvalues --  -10.28383 -10.28350 -10.28342 -10.28226 -10.28153
 Alpha  occ. eigenvalues --  -10.28097 -10.28063 -10.28008 -10.27849 -10.27749
 Alpha  occ. eigenvalues --  -10.27669 -10.27501 -10.27439 -10.27393 -10.27322
 Alpha  occ. eigenvalues --  -10.27056 -10.27013 -10.26992 -10.26989 -10.26910
 Alpha  occ. eigenvalues --  -10.26797 -10.26780 -10.26608 -10.26592 -10.26513
 Alpha  occ. eigenvalues --  -10.26414 -10.26316 -10.26189 -10.25974 -10.25785
 Alpha  occ. eigenvalues --  -10.25635 -10.25518 -10.25389 -10.25223 -10.25106
 Alpha  occ. eigenvalues --  -10.25047  -3.18517  -3.17593  -1.93381  -1.93005
 Alpha  occ. eigenvalues --   -1.92795  -1.92474  -1.92054  -1.91899  -1.17063
 Alpha  occ. eigenvalues --   -1.15613  -1.12064  -1.10213  -1.08817  -1.07975
 Alpha  occ. eigenvalues --   -1.07703  -1.07651  -1.05276  -1.04600  -1.04296
 Alpha  occ. eigenvalues --   -1.03676  -1.03380  -1.02775  -1.02396  -1.01601
 Alpha  occ. eigenvalues --   -0.93341  -0.91945  -0.89957  -0.89345  -0.89085
 Alpha  occ. eigenvalues --   -0.88950  -0.88817  -0.88252  -0.87888  -0.87086
 Alpha  occ. eigenvalues --   -0.87036  -0.86118  -0.85977  -0.85355  -0.84862
 Alpha  occ. eigenvalues --   -0.84685  -0.84303  -0.84043  -0.82851  -0.82658
 Alpha  occ. eigenvalues --   -0.82617  -0.81974  -0.81093  -0.80728  -0.80521
 Alpha  occ. eigenvalues --   -0.80252  -0.77899  -0.77838  -0.77486  -0.77347
 Alpha  occ. eigenvalues --   -0.76923  -0.76524  -0.76387  -0.76297  -0.75534
 Alpha  occ. eigenvalues --   -0.74963  -0.73552  -0.72854  -0.72252  -0.71720
 Alpha  occ. eigenvalues --   -0.69438  -0.69014  -0.68898  -0.68525  -0.68118
 Alpha  occ. eigenvalues --   -0.67740  -0.67263  -0.66680  -0.66377  -0.65722
 Alpha  occ. eigenvalues --   -0.65582  -0.65379  -0.65191  -0.64960  -0.64754
 Alpha  occ. eigenvalues --   -0.64028  -0.63149  -0.62417  -0.60558  -0.60283
 Alpha  occ. eigenvalues --   -0.60122  -0.59623  -0.59270  -0.58988  -0.58977
 Alpha  occ. eigenvalues --   -0.58690  -0.58085  -0.57800  -0.57260  -0.56917
 Alpha  occ. eigenvalues --   -0.56315  -0.56256  -0.55856  -0.55839  -0.55657
 Alpha  occ. eigenvalues --   -0.55033  -0.54976  -0.54905  -0.54507  -0.54377
 Alpha  occ. eigenvalues --   -0.53928  -0.53862  -0.53617  -0.53531  -0.53234
 Alpha  occ. eigenvalues --   -0.53054  -0.52727  -0.52614  -0.52489  -0.52313
 Alpha  occ. eigenvalues --   -0.52073  -0.52017  -0.51748  -0.51742  -0.51524
 Alpha  occ. eigenvalues --   -0.51148  -0.50904  -0.50669  -0.50572  -0.50318
 Alpha  occ. eigenvalues --   -0.50156  -0.50070  -0.49895  -0.49800  -0.49686
 Alpha  occ. eigenvalues --   -0.49684  -0.49480  -0.49211  -0.48946  -0.48939
 Alpha  occ. eigenvalues --   -0.48676  -0.48504  -0.48369  -0.48255  -0.48023
 Alpha  occ. eigenvalues --   -0.47795  -0.47757  -0.47299  -0.47241  -0.46948
 Alpha  occ. eigenvalues --   -0.46914  -0.46898  -0.46633  -0.46592  -0.46488
 Alpha  occ. eigenvalues --   -0.46287  -0.46046  -0.45936  -0.45799  -0.45773
 Alpha  occ. eigenvalues --   -0.45596  -0.45521  -0.45334  -0.45304  -0.45179
 Alpha  occ. eigenvalues --   -0.45177  -0.45093  -0.44913  -0.44888  -0.44351
 Alpha  occ. eigenvalues --   -0.44080  -0.43996  -0.43943  -0.43692  -0.43672
 Alpha  occ. eigenvalues --   -0.43570  -0.43295  -0.43208  -0.42883  -0.42679
 Alpha  occ. eigenvalues --   -0.42527  -0.42462  -0.42437  -0.42384  -0.42100
 Alpha  occ. eigenvalues --   -0.41991  -0.41761  -0.41606  -0.41489  -0.41420
 Alpha  occ. eigenvalues --   -0.41400  -0.41281  -0.41137  -0.40855  -0.40157
 Alpha  occ. eigenvalues --   -0.40116  -0.40018  -0.39798  -0.39063  -0.38800
 Alpha  occ. eigenvalues --   -0.38638  -0.38248  -0.37985  -0.37835  -0.37414
 Alpha  occ. eigenvalues --   -0.37355  -0.37279  -0.37106  -0.36743  -0.36448
 Alpha  occ. eigenvalues --   -0.36378  -0.35705  -0.35439  -0.34723  -0.34246
 Alpha  occ. eigenvalues --   -0.34099  -0.33343  -0.33213  -0.31772  -0.31377
 Alpha  occ. eigenvalues --   -0.31149  -0.30739  -0.30672  -0.30606  -0.30270
 Alpha  occ. eigenvalues --   -0.30042  -0.29813  -0.28918  -0.24435  -0.24278
 Alpha  occ. eigenvalues --   -0.21667  -0.21312
 Alpha virt. eigenvalues --   -0.09351  -0.08762  -0.02551  -0.01856   0.00206
 Alpha virt. eigenvalues --    0.00270   0.01035   0.01778   0.02382   0.02433
 Alpha virt. eigenvalues --    0.04124   0.04790   0.04997   0.05194   0.05686

 Mulliken charges:
               1
     1  Mg  11.998440
     2  C    6.026765
     3  C    5.998485
     4  C    5.960832
     5  C    5.987020
     6  N    7.027632
     7  C    5.969932
     8  C    6.010141
     9  C    5.983216
    10  C    6.026009
    11  C    5.994869
    12  C    6.005467
    13  C    5.999428
    14  H    0.994402
    15  N    6.989779
    16  C    6.043090
    17  C    6.019659
    18  C    6.008902
    19  C    6.048734
    20  C    5.996072
    21  C    6.010899
    22  O    8.019640
    23  C    6.001858
    24  N    6.981538
    25  C    6.041639
    26  C    5.988196
    27  C    6.006757
    28  C    5.981063
    29  C    5.996080
    30  C    6.005381
    31  C    6.002201
    32  N    7.001195
    33  C    5.970721
    34  C    5.971289
    35  C    5.994990
    36  C    5.961770
    37  C    6.000587
    38  C    5.981941
    39  O    7.973505
    40  C    5.996525
    41  C    5.996573
    42  O    7.993677
    43  O    8.002029
    44  C    6.003353
    45  H    1.015396
    46  H    1.000816
    47  H    0.984214
    48  H    1.001605
    49  H    1.005564
    50  H    1.015499
    51  H    0.995097
    52  H    1.010910
    53  H    0.988812
    54  H    1.003740
    55  H    1.004775
    56  H    1.001578
    57  H    1.018007
    58  H    1.018595
    59  H    1.015640
    60  H    1.009959
    61  H    1.010068
    62  H    1.010762
    63  H    1.001039
    64  H    0.997994
    65  H    0.991883
    66  H    1.005231
    67  H    1.006846
    68  H    1.005410
    69  H    0.988901
    70  H    0.992742
    71  H    0.994596
    72  H    1.002246
    73  H    0.984705
    74  H    0.979014
    75  H    0.983492
    76  H    0.995386
    77  H    0.992983
    78  H    0.994380
    79  H    0.999837
    80  Mg  12.000206
    81  C    6.000743
    82  C    5.998627
    83  C    5.999182
    84  C    6.001091
    85  N    7.000295
    86  C    5.998691
    87  C    6.000076
    88  C    5.999373
    89  C    6.001865
    90  C    5.999934
    91  C    6.000099
    92  C    6.000335
    93  H    0.999440
    94  N    6.999446
    95  C    6.002123
    96  C    6.000639
    97  C    6.000469
    98  C    6.001829
    99  C    5.999772
   100  C    6.000491
   101  O    8.000766
   102  C    5.999801
   103  N    7.000174
   104  C    6.001190
   105  C    5.999438
   106  C    6.000687
   107  C    5.998297
   108  C    5.999885
   109  C    6.000048
   110  C    6.000086
   111  N    7.000307
   112  C    5.997980
   113  C    5.998959
   114  C    5.999896
   115  C    5.998474
   116  C    5.999865
   117  C    5.999356
   118  O    7.998630
   119  C    5.999931
   120  C    5.999736
   121  O    7.999900
   122  O    7.999945
   123  C    6.000098
   124  H    1.000286
   125  H    1.000400
   126  H    0.999583
   127  H    1.000251
   128  H    1.000305
   129  H    1.000240
   130  H    1.000481
   131  H    0.999842
   132  H    1.000201
   133  H    0.999688
   134  H    0.999997
   135  H    1.000146
   136  H    1.000858
   137  H    1.000855
   138  H    1.000731
   139  H    1.000463
   140  H    1.000533
   141  H    1.000276
   142  H    1.000086
   143  H    0.999758
   144  H    0.999860
   145  H    1.000512
   146  H    1.000064
   147  H    1.000141
   148  H    0.999425
   149  H    1.000089
   150  H    0.999773
   151  H    0.999789
   152  H    0.999264
   153  H    0.999349
   154  H    0.999509
   155  H    0.999594
   156  H    0.999900
   157  H    0.999757
   158  H    0.999820
 Sum of Mulliken charges = 624.00000

 Dipole moment (field-independent basis, Debye):
    X=             -6.1735    Y=             -8.1999    Z=              1.7689  Tot=             10.4153
 Quadrupole moment (field-independent basis, Debye-Ang):
   XX=            329.0620   YY=              0.3932   ZZ=             -1.1292
   XY=            253.9972   XZ=            -43.6033   YZ=              1.5414

 Normal termination of Gaussian 16 at Wed Sep 22 17:04:58 2021.
