 Gaussian 16, Revision A.03,
 Gaussian 16:  ES64L-G16RevA.03 25-Dec-2016

 -----------------------------------
 #p cam-b3lyp/Def2SVP td=(nstates=5)
 -----------------------------------

 --------------------------------
 TDDFT excited states in gaussian
 --------------------------------
 Symbolic Z-matrix:
 Charge =  0 Multiplicity = 1

                         Standard orientation:
 ---------------------------------------------------------------------
 Center     Atomic      Atomic             Coordinates (Angstroms)
 Number     Number       Type             X           Y           Z
 ---------------------------------------------------------------------
      1         12           0      -21.915060   -0.691922   -0.337958
      2          6           0      -23.828946    1.857398    1.289992
      3          6           0      -20.818929    1.715573   -2.493307
      4          6           0      -20.580523   -2.995576   -2.060982
      5          6           0      -24.000659   -3.027892    1.191481
      6          7           0      -22.339913    1.476024   -0.479934
      7          6           0      -23.044069    2.342523    0.241533
      8          6           0      -22.810633    3.825886   -0.173818
      9          6           0      -22.329092    3.593903   -1.675916
     10          6           0      -21.762969    2.191843   -1.535712
     11          6           0      -23.472877    3.563185   -2.684536
     12          6           0      -21.697437    4.515524    0.684625
     13          6           0      -21.634060    6.041256    0.568525
     14          1           0      -21.283221    6.819275    1.747061
     15          7           0      -20.494266   -0.607762   -1.708035
     16          6           0      -20.175417    0.459160   -2.479590
     17          6           0      -19.054027    0.020748   -3.338054
     18          6           0      -18.872249   -1.443643   -3.136535
     19          6           0      -20.006568   -1.749711   -2.302856
     20          6           0      -18.255048    0.958189   -4.190454
     21          6           0      -17.845933   -2.415183   -3.627371
     22          8           0      -18.003181   -3.679917   -3.525914
     23          6           0      -16.676796   -1.842390   -4.318798
     24          7           0      -22.371239   -2.711406   -0.604831
     25          6           0      -21.597681   -3.499740   -1.359231
     26          6           0      -21.950268   -4.946286   -1.177222
     27          6           0      -22.971000   -5.001533    0.049484
     28          6           0      -23.096396   -3.482008    0.320760
     29          6           0      -22.576950   -5.640639   -2.394248
     30          6           0      -22.601187   -5.933575    1.230566
     31          6           0      -21.376688   -5.401062    1.940588
     32          7           0      -23.503153   -0.642953    1.140760
     33          6           0      -24.249061   -1.732434    1.613334
     34          6           0      -25.278210   -1.190744    2.519696
     35          6           0      -25.068683    0.186750    2.498373
     36          6           0      -23.994674    0.488819    1.613189
     37          6           0      -26.282015   -1.946477    3.187287
     38          6           0      -25.518206    1.475813    2.998473
     39          8           0      -26.330738    1.840316    3.849604
     40          6           0      -24.813088    2.618809    2.142789
     41          6           0      -24.267820    3.637183    3.106587
     42          8           0      -23.331173    3.349363    3.879386
     43          8           0      -24.766862    4.845884    2.805689
     44          6           0      -24.242737    5.907286    3.706173
     45          1           0      -20.594160    2.333081   -3.365146
     46          1           0      -20.077799   -3.831754   -2.551401
     47          1           0      -24.632597   -3.704006    1.770253
     48          1           0      -23.706074    4.447548   -0.161736
     49          1           0      -21.543865    4.292564   -1.964035
     50          1           0      -24.442790    3.576914   -2.187544
     51          1           0      -23.344101    2.635489   -3.242470
     52          1           0      -23.368747    4.367808   -3.412902
     53          1           0      -20.719225    4.257783    0.278754
     54          1           0      -21.792443    4.237510    1.734867
     55          1           0      -22.532573    6.442935    0.099231
     56          1           0      -20.830148    6.298189   -0.121337
     57          1           0      -18.726968    1.937506   -4.259559
     58          1           0      -18.286864    0.568933   -5.207890
     59          1           0      -17.219636    1.033762   -3.857974
     60          1           0      -17.014222   -1.274076   -5.185810
     61          1           0      -16.007168   -2.677891   -4.519761
     62          1           0      -16.188965   -1.128064   -3.654940
     63          1           0      -21.067548   -5.536372   -0.934260
     64          1           0      -23.960816   -5.340657   -0.257000
     65          1           0      -22.029253   -6.523510   -2.724811
     66          1           0      -22.657429   -4.907366   -3.196199
     67          1           0      -23.617805   -5.936565   -2.265929
     68          1           0      -22.352133   -6.928998    0.864438
     69          1           0      -23.402420   -6.040072    1.961958
     70          1           0      -20.557077   -5.791426    1.338355
     71          1           0      -21.330285   -5.786334    2.959717
     72          1           0      -21.328814   -4.313112    1.889985
     73          1           0      -26.326515   -1.561685    4.206072
     74          1           0      -26.049440   -3.011080    3.175756
     75          1           0      -27.154542   -1.703088    2.581223
     76          1           0      -25.578314    3.040079    1.491572
     77          1           0      -25.104323    6.402177    4.154489
     78          1           0      -23.565158    6.515501    3.106702
     79          1           0      -23.714725    5.566010    4.597281
     80         12           0       22.115780   -0.494365    0.468904
     81          6           0       21.748319    2.232276   -1.572164
     82          6           0       22.487747    1.519050    3.116010
     83          6           0       22.701475   -3.263457    2.299819
     84          6           0       22.226433   -2.584531   -2.504013
     85          7           0       22.382846    1.696679    0.668608
     86          6           0       22.081874    2.616782   -0.255723
     87          6           0       22.139229    4.100543    0.377410
     88          6           0       22.373912    3.738623    1.891649
     89          6           0       22.468673    2.200047    1.931602
     90          6           0       23.552502    4.495657    2.534123
     91          6           0       20.853366    4.939150    0.129202
     92          6           0       20.635547    6.232321    0.980776
     93          1           0       20.912608    7.620299    0.287923
     94          7           0       22.589008   -0.822570    2.449636
     95          6           0       22.596377    0.097527    3.391622
     96          6           0       22.849572   -0.549009    4.670319
     97          6           0       23.032340   -1.951502    4.478278
     98          6           0       22.768097   -2.067729    3.027269
     99          6           0       23.067787    0.166762    5.993083
    100          6           0       23.436780   -3.046941    5.459359
    101          8           0       23.828043   -4.140404    5.061514
    102          6           0       23.353767   -2.766505    6.919016
    103          7           0       22.466017   -2.623465   -0.049375
    104          6           0       22.631989   -3.545302    0.891630
    105          6           0       22.605978   -4.970681    0.315331
    106          6           0       22.246279   -4.683773   -1.140144
    107          6           0       22.355287   -3.207549   -1.232947
    108          6           0       23.852245   -5.848223    0.504528
    109          6           0       20.992191   -5.374550   -1.612841
    110          6           0       21.172099   -6.427924   -2.763522
    111          7           0       21.964367   -0.279238   -1.558493
    112          6           0       21.939815   -1.204621   -2.655329
    113          6           0       21.639364   -0.531798   -3.899955
    114          6           0       21.549057    0.817888   -3.459279
    115          6           0       21.759907    0.901583   -2.077210
    116          6           0       21.323585   -1.056573   -5.256126
    117          6           0       21.123314    2.096269   -3.970552
    118          8           0       20.604096    2.474485   -5.031316
    119          6           0       21.335704    3.107343   -2.871699
    120          6           0       22.550310    3.985284   -3.245647
    121          8           0       23.630074    3.616355   -3.732501
    122          8           0       22.235648    5.274955   -2.935352
    123          6           0       23.250103    6.332564   -3.242418
    124          1           0       22.500944    2.052864    4.068557
    125          1           0       23.077755   -4.173878    2.770996
    126          1           0       22.134676   -3.288903   -3.332729
    127          1           0       23.030530    4.537606   -0.071303
    128          1           0       21.460066    3.986434    2.431581
    129          1           0       23.220465    4.817156    3.520687
    130          1           0       23.806932    5.399684    1.980752
    131          1           0       24.430337    3.854280    2.613444
    132          1           0       20.034679    4.307886    0.474646
    133          1           0       20.804080    5.244438   -0.915949
    134          1           0       21.383981    6.215741    1.773700
    135          1           0       19.600443    6.255678    1.319785
    136          1           0       22.976107    1.247035    5.880586
    137          1           0       24.065550   -0.057737    6.369354
    138          1           0       22.356894   -0.157274    6.752111
    139          1           0       22.358630   -2.347648    7.071155
    140          1           0       24.039887   -2.095646    7.435122
    141          1           0       23.461660   -3.663388    7.528031
    142          1           0       21.783149   -5.502195    0.792178
    143          1           0       23.043848   -5.099766   -1.755465
    144          1           0       23.446694   -6.838621    0.709786
    145          1           0       24.495708   -5.439029    1.283248
    146          1           0       24.539016   -5.842912   -0.341828
    147          1           0       20.410919   -4.569243   -2.060829
    148          1           0       20.449895   -5.887634   -0.819160
    149          1           0       22.218631   -6.474065   -3.065935
    150          1           0       20.589088   -6.076487   -3.615363
    151          1           0       20.767968   -7.419313   -2.558258
    152          1           0       21.198368   -2.138430   -5.219905
    153          1           0       22.230378   -0.899840   -5.839164
    154          1           0       20.413210   -0.532675   -5.550976
    155          1           0       20.408341    3.680217   -2.855185
    156          1           0       24.269837    6.100852   -2.933952
    157          1           0       22.993276    7.323935   -2.870620
    158          1           0       23.301241    6.373831   -4.330303
 ---------------------------------------------------------------------

 SCF Done:  E(RCAM-B3LYP) =  -4069.81586694     A.U. after   19 cycles

 Excitation energies and oscillator strengths:

 Excited State   1:      Singlet-A      1.6799 eV  738.06 nm  f=0.3835  <S**2>=0.000
     309 -> 316        0.17553
     311 -> 313        0.68566
     309 <- 316        0.10512
 This state for optimization and/or second-order correction.
 Total Energy, E(TD-HF/TD-DFT) =  -4069.75413297
 Copying the excited state density for this state as the 1-particle RhoCI density.

 Excited State   2:      Singlet-A      1.7216 eV  720.18 nm  f=0.4067  <S**2>=0.000
     310 -> 315       -0.17580
     312 -> 314        0.68381
     310 <- 315       -0.10320

 Excited State   3:      Singlet-A      2.1926 eV  565.48 nm  f=0.0982  <S**2>=0.000
     309 -> 313        0.64072
     311 -> 316       -0.27826

 Excited State   4:      Singlet-A      2.2691 eV  546.41 nm  f=0.1128  <S**2>=0.000
     310 -> 314        0.63910
     312 -> 315        0.28653

 Excited State   5:      Singlet-A      3.1506 eV  393.53 nm  f=0.0000  <S**2>=0.000
     312 -> 313        0.70710

 The electronic state is 1-A.
 Alpha  occ. eigenvalues --  -46.89193 -46.87782 -19.26271 -19.25630 -19.19542
 Alpha  occ. eigenvalues --  -19.19457 -19.19006 -19.18800 -19.18156 -19.17682
 Alpha  occ. eigenvalues --  -14.42436 -14.42073 -14.41735 -14.41436 -14.40092
 Alpha  occ. eigenvalues --  -14.39389 -14.39282 -14.38573 -10.39560 -10.39066
 Alpha  occ. eigenvalues --  -10.36100 -10.35433 -10.34376 -10.33348 -10.32187
 Alpha  occ. eigenvalues --  -10.31686 -10.31666 -10.31391 -10.30973 -10.30894
 Alpha  occ. eigenvalues --  -10.30556 -10.30494 -10.30494 -10.30388 -10.30315
 Alpha  occ. eigenvalues --  -10.30193 -10.30025 -10.29989 -10.29907 -10.29617
 Alpha  occ. eigenvalues --  -10.29357 -10.29240 -10.28809 -10.28734 -10.28586
 Alpha  occ. eigenvalues --  -10.28523 -10.28391 -10.28351 -10.28103 -10.28102
 Alpha  occ. eigenvalues --  -10.28070 -10.27994 -10.27779 -10.27776 -10.27713
 Alpha  occ. eigenvalues --  -10.27570 -10.27543 -10.27497 -10.27488 -10.27465
 Alpha  occ. eigenvalues --  -10.27436 -10.27389 -10.27145 -10.27030 -10.27028
 Alpha  occ. eigenvalues --  -10.26759 -10.26712 -10.26689 -10.26529 -10.26498
 Alpha  occ. eigenvalues --  -10.26394 -10.26262 -10.26249 -10.26230 -10.26220
 Alpha  occ. eigenvalues --  -10.26186 -10.26171 -10.26006 -10.25831 -10.25717
 Alpha  occ. eigenvalues --  -10.25666 -10.25423 -10.24819 -10.24774 -10.24675
 Alpha  occ. eigenvalues --  -10.24403  -3.17718  -3.16525  -1.92609  -1.92166
 Alpha  occ. eigenvalues --   -1.92031  -1.91407  -1.90993  -1.90836  -1.16619
 Alpha  occ. eigenvalues --   -1.15564  -1.10391  -1.08614  -1.07972  -1.07201
 Alpha  occ. eigenvalues --   -1.06629  -1.06543  -1.05733  -1.04567  -1.04389
 Alpha  occ. eigenvalues --   -1.03880  -1.03746  -1.03220  -1.02960  -1.02397
 Alpha  occ. eigenvalues --   -0.91958  -0.91274  -0.89923  -0.89506  -0.89173
 Alpha  occ. eigenvalues --   -0.88734  -0.88273  -0.88175  -0.87857  -0.87659
 Alpha  occ. eigenvalues --   -0.87556  -0.87259  -0.87160  -0.87006  -0.84967
 Alpha  occ. eigenvalues --   -0.84194  -0.83923  -0.83337  -0.82952  -0.82634
 Alpha  occ. eigenvalues --   -0.82362  -0.82171  -0.81572  -0.81113  -0.80582
 Alpha  occ. eigenvalues --   -0.80044  -0.78783  -0.78539  -0.77560  -0.77204
 Alpha  occ. eigenvalues --   -0.76920  -0.76744  -0.76102  -0.75909  -0.75355
 Alpha  occ. eigenvalues --   -0.74885  -0.72760  -0.72638  -0.71689  -0.71658
 Alpha  occ. eigenvalues --   -0.69894  -0.69447  -0.69115  -0.68859  -0.67715
 Alpha  occ. eigenvalues --   -0.67627  -0.67580  -0.67205  -0.65849  -0.65272
 Alpha  occ. eigenvalues --   -0.64893  -0.64840  -0.64607  -0.64466  -0.64256
 Alpha  occ. eigenvalues --   -0.63949  -0.62641  -0.62284  -0.60734  -0.60428
 Alpha  occ. eigenvalues --   -0.59790  -0.59661  -0.58974  -0.58886  -0.58642
 Alpha  occ. eigenvalues --   -0.58490  -0.57992  -0.57571  -0.57443  -0.57295
 Alpha  occ. eigenvalues --   -0.56314  -0.56296  -0.55965  -0.55664  -0.55506
 Alpha  occ. eigenvalues --   -0.55326  -0.55149  -0.54544  -0.54510  -0.54198
 Alpha  occ. eigenvalues --   -0.53880  -0.53747  -0.53405  -0.53285  -0.53207
 Alpha  occ. eigenvalues --   -0.52901  -0.52804  -0.52741  -0.52577  -0.52425
 Alpha  occ. eigenvalues --   -0.52170  -0.51902  -0.51688  -0.51602  -0.51193
 Alpha  occ. eigenvalues --   -0.51182  -0.51119  -0.50711  -0.50557  -0.50486
 Alpha  occ. eigenvalues --   -0.50018  -0.49974  -0.49904  -0.49794  -0.49698
 Alpha  occ. eigenvalues --   -0.49500  -0.49371  -0.49200  -0.49082  -0.49046
 Alpha  occ. eigenvalues --   -0.48973  -0.48579  -0.48574  -0.48448  -0.48431
 Alpha  occ. eigenvalues --   -0.48171  -0.47798  -0.47680  -0.47663  -0.47306
 Alpha  occ. eigenvalues --   -0.47283  -0.46792  -0.46783  -0.46541  -0.46388
 Alpha  occ. eigenvalues --   -0.46345  -0.46149  -0.46145  -0.45974  -0.45808
 Alpha  occ. eigenvalues --   -0.45188  -0.44989  -0.44701  -0.44564  -0.44523
 Alpha  occ. eigenvalues --   -0.44492  -0.44412  -0.44134  -0.44131  -0.44074
 Alpha  occ. eigenvalues --   -0.44013  -0.44005  -0.43868  -0.43599  -0.43481
 Alpha  occ. eigenvalues --   -0.43371  -0.43013  -0.42926  -0.42764  -0.42685
 Alpha  occ. eigenvalues --   -0.42641  -0.42213  -0.42023  -0.41996  -0.41992
 Alpha  occ. eigenvalues --   -0.41842  -0.41690  -0.41534  -0.41519  -0.41127
 Alpha  occ. eigenvalues --   -0.41102  -0.40855  -0.40844  -0.40808  -0.40558
 Alpha  occ. eigenvalues --   -0.40432  -0.40219  -0.39428  -0.39282  -0.39096
 Alpha  occ. eigenvalues --   -0.38455  -0.38272  -0.37874  -0.37733  -0.37307
 Alpha  occ. eigenvalues --   -0.37249  -0.37058  -0.36700  -0.36686  -0.36211
 Alpha  occ. eigenvalues --   -0.36179  -0.35962  -0.34293  -0.34272  -0.34009
 Alpha  occ. eigenvalues --   -0.33757  -0.33364  -0.33172  -0.31972  -0.31330
 Alpha  occ. eigenvalues --   -0.31113  -0.31021  -0.30596  -0.30016  -0.29976
 Alpha  occ. eigenvalues --   -0.29675  -0.29435  -0.29308  -0.24066  -0.23920
 Alpha  occ. eigenvalues --   -0.21114  -0.21111
 Alpha virt. eigenvalues --   -0.08760  -0.08558  -0.01777  -0.01736  -0.00043
 Alpha virt. eigenvalues --    0.00569   0.01887   0.02214   0.02545   0.03137
 Alpha virt. eigenvalues --    0.04732   0.04893   0.05112   0.05671   0.06192

 Mulliken charges:
               1
     1  Mg   0.838748
     2  C   -0.002997
     3  C   -0.094092
     4  C   -0.045899
     5  C   -0.063972
     6  N   -0.256781
     7  C   -0.052431
     8  C   -0.014027
     9  C   -0.086994
    10  C    0.046311
    11  C    0.104811
    12  C    0.053459
    13  C   -0.071810
    14  H    0.036139
    15  N   -0.433147
    16  C    0.168423
    17  C   -0.177136
    18  C   -0.004005
    19  C    0.148742
    20  C    0.110169
    21  C    0.012295
    22  O   -0.249627
    23  C    0.062470
    24  N   -0.341139
    25  C    0.041243
    26  C   -0.028157
    27  C   -0.023998
    28  C    0.074852
    29  C    0.076174
    30  C    0.035141
    31  C   -0.004499
    32  N   -0.310473
    33  C    0.080409
    34  C   -0.169727
    35  C    0.008349
    36  C    0.082997
    37  C    0.127314
    38  C    0.046101
    39  O   -0.188468
    40  C   -0.005310
    41  C    0.212856
    42  O   -0.257098
    43  O   -0.304795
    44  C    0.157691
    45  H   -0.017584
    46  H   -0.016838
    47  H   -0.041513
    48  H    0.000931
    49  H   -0.004013
    50  H    0.025463
    51  H    0.016444
    52  H    0.016670
    53  H    0.011221
    54  H    0.044125
    55  H    0.017861
    56  H    0.017970
    57  H    0.005890
    58  H    0.026842
    59  H    0.039588
    60  H    0.037360
    61  H    0.035663
    62  H    0.031522
    63  H    0.016554
    64  H    0.009444
    65  H    0.023207
    66  H    0.012552
    67  H    0.004740
    68  H    0.006350
    69  H    0.004711
    70  H    0.008781
    71  H    0.018130
    72  H    0.028995
    73  H    0.047552
    74  H    0.009096
    75  H    0.045992
    76  H    0.035143
    77  H    0.042930
    78  H    0.046414
    79  H    0.053688
    80  Mg   0.832093
    81  C   -0.058934
    82  C   -0.068379
    83  C   -0.048470
    84  C   -0.064230
    85  N   -0.282665
    86  C   -0.070747
    87  C    0.037223
    88  C   -0.103361
    89  C    0.096689
    90  C    0.074359
    91  C    0.030372
    92  C   -0.078899
    93  H   -0.000480
    94  N   -0.351754
    95  C    0.093652
    96  C   -0.163039
    97  C   -0.023579
    98  C    0.114225
    99  C    0.115764
   100  C    0.042827
   101  O   -0.195741
   102  C    0.027061
   103  N   -0.202756
   104  C   -0.029770
   105  C   -0.063766
   106  C   -0.010496
   107  C   -0.014917
   108  C    0.083987
   109  C    0.049326
   110  C   -0.014701
   111  N   -0.364363
   112  C    0.117929
   113  C   -0.165066
   114  C   -0.033232
   115  C    0.166905
   116  C    0.154754
   117  C    0.031393
   118  O   -0.204173
   119  C    0.011465
   120  C    0.227317
   121  O   -0.237185
   122  O   -0.334651
   123  C    0.179440
   124  H   -0.045394
   125  H    0.005831
   126  H   -0.021657
   127  H    0.012731
   128  H    0.012070
   129  H    0.012180
   130  H    0.020272
   131  H    0.026683
   132  H    0.007755
   133  H    0.051189
   134  H    0.027703
   135  H    0.042469
   136  H    0.007541
   137  H    0.029967
   138  H    0.019393
   139  H    0.028804
   140  H    0.042005
   141  H    0.025843
   142  H    0.012611
   143  H   -0.000581
   144  H    0.024238
   145  H    0.022916
   146  H    0.008037
   147  H    0.006244
   148  H    0.012169
   149  H    0.013276
   150  H    0.012255
   151  H    0.019511
   152  H   -0.002868
   153  H    0.041551
   154  H    0.058640
   155  H    0.040240
   156  H    0.041168
   157  H    0.045310
   158  H    0.038473
 Sum of Mulliken charges =  -0.00000

 Dipole moment (field-independent basis, Debye):
    X=              0.3380    Y=              1.5936    Z=              0.9073  Tot=              1.8647
 Quadrupole moment (field-independent basis, Debye-Ang):
   XX=           -634.6845   YY=           -464.5201   ZZ=           -528.7068
   XY=             -6.1573   XZ=            200.6672   YZ=              7.6158

 Normal termination of Gaussian 16 at Wed Sep  1 14:15:03 2021.
