 Gaussian 16, Revision A.03,
 Gaussian 16:  ES64L-G16RevA.03 25-Dec-2016

 -----------------------------------
 #p cam-b3lyp/Def2SVP td=(nstates=5)
 -----------------------------------

 --------------------------------
 TDDFT excited states in gaussian
 --------------------------------
 Symbolic Z-matrix:
 Charge =  0 Multiplicity = 1

                         Standard orientation:
 ---------------------------------------------------------------------
 Center     Atomic      Atomic             Coordinates (Angstroms)
 Number     Number       Type             X           Y           Z
 ---------------------------------------------------------------------
      1         12           0       -9.250600   -1.013027    0.357528
      2          6           0      -10.455144    1.933055   -0.967475
      3          6           0       -7.596741    1.008242    2.808470
      4          6           0       -7.768352   -3.681839    1.512323
      5          6           0      -10.624696   -2.808065   -2.260659
      6          7           0       -8.903964    1.293885    0.707491
      7          6           0       -9.682885    2.217079    0.169072
      8          6           0       -9.673901    3.518691    1.019554
      9          6           0       -8.344013    3.302204    1.822970
     10          6           0       -8.222557    1.769945    1.816165
     11          6           0       -7.113634    4.002623    1.144135
     12          6           0      -10.952442    3.472977    1.885610
     13          6           0      -11.260222    4.724073    2.719552
     14          1           0      -10.219859    5.815991    2.868425
     15          7           0       -7.981142   -1.397249    1.958394
     16          6           0       -7.449773   -0.415777    2.864099
     17          6           0       -6.791220   -1.166186    3.924593
     18          6           0       -6.936279   -2.552234    3.604315
     19          6           0       -7.558754   -2.612646    2.282610
     20          6           0       -6.116043   -0.523968    5.193401
     21          6           0       -6.537845   -3.773245    4.497585
     22          8           0       -6.620378   -4.871801    4.020527
     23          6           0       -6.033113   -3.565227    5.888530
     24          7           0       -9.280168   -3.007148   -0.242007
     25          6           0       -8.578209   -3.967621    0.400643
     26          6           0       -8.676455   -5.337477   -0.269681
     27          6           0       -9.704282   -5.068844   -1.393268
     28          6           0       -9.886616   -3.499794   -1.293936
     29          6           0       -7.322193   -5.933066   -0.803723
     30          6           0      -10.959908   -5.902951   -1.398450
     31          6           0      -11.783204   -6.125469   -0.106847
     32          7           0      -10.312337   -0.615684   -1.311871
     33          6           0      -10.820612   -1.424037   -2.288044
     34          6           0      -11.628402   -0.590884   -3.153596
     35          6           0      -11.567882    0.766296   -2.684210
     36          6           0      -10.720694    0.673329   -1.546170
     37          6           0      -12.379699   -1.100627   -4.343700
     38          6           0      -11.940156    2.121697   -2.914432
     39          8           0      -12.616505    2.679164   -3.806123
     40          6           0      -10.963084    2.946574   -1.911939
     41          6           0      -11.780990    4.126336   -1.383936
     42          8           0      -12.830955    4.052630   -0.869732
     43          8           0      -11.091147    5.272462   -1.659858
     44          6           0      -11.468456    6.479912   -0.954352
     45          1           0       -7.043209    1.634728    3.510369
     46          1           0       -7.258792   -4.595679    1.824947
     47          1           0      -11.068871   -3.312251   -3.120577
     48          1           0       -9.561628    4.412234    0.405663
     49          1           0       -8.583124    3.688683    2.814001
     50          1           0       -6.859230    4.903915    1.700495
     51          1           0       -7.387235    4.229517    0.113538
     52          1           0       -6.204825    3.401094    1.164396
     53          1           0      -10.817673    2.677474    2.618032
     54          1           0      -11.819711    3.135931    1.318684
     55          1           0      -11.787087    4.501889    3.647803
     56          1           0      -12.103759    5.184343    2.204721
     57          1           0       -5.102123   -0.891321    5.354642
     58          1           0       -6.790546   -0.738843    6.022085
     59          1           0       -6.132066    0.562772    5.102304
     60          1           0       -6.338503   -4.491489    6.375737
     61          1           0       -6.570762   -2.779524    6.418056
     62          1           0       -5.027393   -3.182729    6.062454
     63          1           0       -9.081390   -5.996187    0.498259
     64          1           0       -9.275669   -5.155915   -2.391647
     65          1           0       -7.581475   -6.473624   -1.713647
     66          1           0       -7.037307   -6.612419   -0.000073
     67          1           0       -6.566395   -5.151597   -0.881692
     68          1           0      -10.524465   -6.893357   -1.526745
     69          1           0      -11.699950   -5.697888   -2.172732
     70          1           0      -11.892060   -7.142869    0.266508
     71          1           0      -12.834775   -5.882774   -0.259634
     72          1           0      -11.338067   -5.549036    0.704259
     73          1           0      -12.826547   -0.220307   -4.804842
     74          1           0      -13.202335   -1.739557   -4.019751
     75          1           0      -11.807912   -1.736046   -5.019375
     76          1           0      -10.107155    3.225175   -2.526996
     77          1           0      -11.579040    7.023197   -1.892924
     78          1           0      -10.736640    6.804111   -0.214153
     79          1           0      -12.443240    6.432276   -0.468239
     80         12           0        9.803653   -0.420659   -0.158725
     81          6           0        7.809907    2.471975   -0.360253
     82          6           0       12.425165    1.621362    0.865196
     83          6           0       11.726673   -3.124351   -0.298770
     84          6           0        7.304878   -2.203058   -2.021429
     85          7           0       10.087769    1.763949    0.181279
     86          6           0        9.069099    2.726578    0.147647
     87          6           0        9.515136    3.949990    0.926808
     88          6           0       11.055922    3.795676    1.071293
     89          6           0       11.203502    2.292751    0.686225
     90          6           0       11.933190    4.806609    0.268079
     91          6           0        8.759625    4.173845    2.282494
     92          6           0        8.607991    5.702884    2.699353
     93          1           0        9.244015    6.758082    1.790485
     94          7           0       11.702010   -0.717340    0.337285
     95          6           0       12.602331    0.221783    0.810169
     96          6           0       13.839005   -0.402381    1.182707
     97          6           0       13.719193   -1.758647    0.740242
     98          6           0       12.350909   -1.909077    0.278092
     99          6           0       15.059240    0.375184    1.763758
    100          6           0       14.752767   -2.837104    0.738270
    101          8           0       14.549990   -3.938307    0.173283
    102          6           0       16.204159   -2.808454    1.301457
    103          7           0        9.683733   -2.304341   -1.262980
    104          6           0       10.573372   -3.293419   -1.055249
    105          6           0       10.017943   -4.641365   -1.579847
    106          6           0        8.623918   -4.355322   -2.149619
    107          6           0        8.505298   -2.823263   -1.732700
    108          6           0       11.004280   -5.347703   -2.459158
    109          6           0        7.459705   -5.228670   -1.634637
    110          6           0        7.219930   -5.177864   -0.105550
    111          7           0        7.932546    0.001739   -1.103220
    112          6           0        7.022177   -0.840069   -1.645780
    113          6           0        5.782756   -0.078526   -1.792705
    114          6           0        5.984340    1.236560   -1.287867
    115          6           0        7.349828    1.263381   -0.913524
    116          6           0        4.445347   -0.637933   -2.270514
    117          6           0        5.379262    2.508234   -1.050880
    118          8           0        4.230436    2.934490   -1.133764
    119          6           0        6.626728    3.439924   -0.461633
    120          6           0        6.751383    4.695708   -1.303717
    121          8           0        7.313283    4.729996   -2.380890
    122          8           0        6.238548    5.785475   -0.637475
    123          6           0        5.912515    6.988156   -1.396958
    124          1           0       13.132321    2.331876    1.297844
    125          1           0       12.373222   -4.001315   -0.229512
    126          1           0        6.543865   -2.847459   -2.465803
    127          1           0        9.310362    4.844893    0.339352
    128          1           0       11.286403    3.903755    2.130758
    129          1           0       12.564054    4.145575   -0.325233
    130          1           0       12.604926    5.347942    0.935370
    131          1           0       11.458113    5.516787   -0.408674
    132          1           0        9.308665    3.744237    3.119830
    133          1           0        7.795079    3.670636    2.228801
    134          1           0        9.161367    5.840814    3.628381
    135          1           0        7.542753    5.900809    2.815977
    136          1           0       15.960906   -0.059326    1.330408
    137          1           0       15.146317    0.271023    2.844745
    138          1           0       15.149290    1.455479    1.650933
    139          1           0       16.201635   -2.533014    2.356458
    140          1           0       16.863446   -2.160545    0.723890
    141          1           0       16.638829   -3.792796    1.471255
    142          1           0       10.020671   -5.308658   -0.718936
    143          1           0        8.771596   -4.312108   -3.229281
    144          1           0       11.518609   -6.162387   -1.949054
    145          1           0       11.712532   -4.630081   -2.873594
    146          1           0       10.568629   -5.784683   -3.358379
    147          1           0        7.777036   -6.239214   -1.892747
    148          1           0        6.541145   -4.983615   -2.168656
    149          1           0        6.200495   -4.810453    0.010436
    150          1           0        7.954103   -4.484071    0.304110
    151          1           0        7.414016   -6.117746    0.411454
    152          1           0        3.606219   -0.289100   -1.669288
    153          1           0        4.393233   -1.717821   -2.134848
    154          1           0        4.356485   -0.434411   -3.338005
    155          1           0        6.285150    3.744923    0.527838
    156          1           0        6.709258    7.115851   -2.130232
    157          1           0        5.861740    7.902983   -0.806421
    158          1           0        4.918305    6.811078   -1.807263
 ---------------------------------------------------------------------

 SCF Done:  E(RCAM-B3LYP) =  -4069.81203430     A.U. after   18 cycles

 Excitation energies and oscillator strengths:

 Excited State   1:      Singlet-A      1.6589 eV  747.37 nm  f=0.4340  <S**2>=0.000
     309 -> 316        0.16711
     311 -> 313        0.68781
     309 <- 316        0.10526
 This state for optimization and/or second-order correction.
 Total Energy, E(TD-HF/TD-DFT) =  -4069.75106925
 Copying the excited state density for this state as the 1-particle RhoCI density.

 Excited State   2:      Singlet-A      1.7337 eV  715.16 nm  f=0.3521  <S**2>=0.000
     310 -> 315       -0.19600
     312 -> 314        0.68041
     310 <- 315       -0.11058

 Excited State   3:      Singlet-A      2.1917 eV  565.70 nm  f=0.1395  <S**2>=0.000
     309 -> 313        0.65649
     311 -> 316       -0.24490

 Excited State   4:      Singlet-A      2.2191 eV  558.70 nm  f=0.1001  <S**2>=0.000
     310 -> 314        0.63448
     312 -> 315        0.29870

 Excited State   5:      Singlet-A      2.6965 eV  459.80 nm  f=0.0000  <S**2>=0.000
     312 -> 313        0.70695

 The electronic state is 1-A.
 Alpha  occ. eigenvalues --  -46.88946 -46.88168 -19.24309 -19.24284 -19.20164
 Alpha  occ. eigenvalues --  -19.19405 -19.19305 -19.19020 -19.18918 -19.18396
 Alpha  occ. eigenvalues --  -14.42589 -14.41635 -14.41627 -14.41468 -14.40309
 Alpha  occ. eigenvalues --  -14.39417 -14.39207 -14.39174 -10.39166 -10.38817
 Alpha  occ. eigenvalues --  -10.35635 -10.35509 -10.35200 -10.34958 -10.31578
 Alpha  occ. eigenvalues --  -10.31469 -10.31364 -10.30977 -10.30840 -10.30766
 Alpha  occ. eigenvalues --  -10.30607 -10.30526 -10.30507 -10.30498 -10.30384
 Alpha  occ. eigenvalues --  -10.30320 -10.30183 -10.29888 -10.29553 -10.29526
 Alpha  occ. eigenvalues --  -10.29354 -10.29212 -10.29077 -10.28912 -10.28681
 Alpha  occ. eigenvalues --  -10.28501 -10.28363 -10.28293 -10.28242 -10.28197
 Alpha  occ. eigenvalues --  -10.28012 -10.27983 -10.27965 -10.27886 -10.27702
 Alpha  occ. eigenvalues --  -10.27679 -10.27593 -10.27570 -10.27557 -10.27549
 Alpha  occ. eigenvalues --  -10.27533 -10.27529 -10.27500 -10.27483 -10.27482
 Alpha  occ. eigenvalues --  -10.26913 -10.26749 -10.26644 -10.26625 -10.26462
 Alpha  occ. eigenvalues --  -10.26392 -10.26374 -10.26362 -10.26298 -10.26201
 Alpha  occ. eigenvalues --  -10.26145 -10.26110 -10.26108 -10.25699 -10.25646
 Alpha  occ. eigenvalues --  -10.25642 -10.25630 -10.25332 -10.25207 -10.24932
 Alpha  occ. eigenvalues --  -10.24852  -3.17516  -3.16805  -1.92387  -1.91972
 Alpha  occ. eigenvalues --   -1.91830  -1.91704  -1.91276  -1.91095  -1.17512
 Alpha  occ. eigenvalues --   -1.15499  -1.11449  -1.09701  -1.09496  -1.08445
 Alpha  occ. eigenvalues --   -1.07910  -1.07505  -1.05142  -1.04367  -1.03976
 Alpha  occ. eigenvalues --   -1.03506  -1.03252  -1.02951  -1.02152  -1.01978
 Alpha  occ. eigenvalues --   -0.92919  -0.92230  -0.89301  -0.89238  -0.88598
 Alpha  occ. eigenvalues --   -0.88573  -0.88429  -0.88185  -0.87404  -0.87207
 Alpha  occ. eigenvalues --   -0.86837  -0.86338  -0.85588  -0.85352  -0.83965
 Alpha  occ. eigenvalues --   -0.83857  -0.83651  -0.83375  -0.82331  -0.82230
 Alpha  occ. eigenvalues --   -0.81686  -0.81329  -0.81106  -0.80669  -0.80186
 Alpha  occ. eigenvalues --   -0.80074  -0.78744  -0.77904  -0.77276  -0.76986
 Alpha  occ. eigenvalues --   -0.76817  -0.76713  -0.75880  -0.75769  -0.75419
 Alpha  occ. eigenvalues --   -0.75022  -0.72588  -0.72579  -0.71907  -0.71121
 Alpha  occ. eigenvalues --   -0.70190  -0.69957  -0.69176  -0.68783  -0.68380
 Alpha  occ. eigenvalues --   -0.68007  -0.67571  -0.66112  -0.65261  -0.65088
 Alpha  occ. eigenvalues --   -0.64957  -0.64836  -0.64202  -0.64184  -0.64172
 Alpha  occ. eigenvalues --   -0.64061  -0.62275  -0.61683  -0.60943  -0.60422
 Alpha  occ. eigenvalues --   -0.59555  -0.59531  -0.59060  -0.58835  -0.58724
 Alpha  occ. eigenvalues --   -0.58109  -0.58053  -0.57827  -0.57463  -0.56994
 Alpha  occ. eigenvalues --   -0.56127  -0.56055  -0.55935  -0.55799  -0.55559
 Alpha  occ. eigenvalues --   -0.55266  -0.54968  -0.54782  -0.54136  -0.53992
 Alpha  occ. eigenvalues --   -0.53545  -0.53523  -0.53413  -0.53090  -0.52870
 Alpha  occ. eigenvalues --   -0.52812  -0.52587  -0.52388  -0.52302  -0.52219
 Alpha  occ. eigenvalues --   -0.52030  -0.52003  -0.51716  -0.51360  -0.51065
 Alpha  occ. eigenvalues --   -0.50759  -0.50668  -0.50625  -0.50065  -0.50053
 Alpha  occ. eigenvalues --   -0.49901  -0.49612  -0.49557  -0.49474  -0.49323
 Alpha  occ. eigenvalues --   -0.49241  -0.49239  -0.49217  -0.49062  -0.48803
 Alpha  occ. eigenvalues --   -0.48679  -0.48648  -0.48230  -0.48138  -0.48055
 Alpha  occ. eigenvalues --   -0.47910  -0.47874  -0.47791  -0.47544  -0.47453
 Alpha  occ. eigenvalues --   -0.46759  -0.46721  -0.46528  -0.46437  -0.46420
 Alpha  occ. eigenvalues --   -0.46332  -0.45870  -0.45869  -0.45748  -0.45503
 Alpha  occ. eigenvalues --   -0.45494  -0.45240  -0.45113  -0.44912  -0.44767
 Alpha  occ. eigenvalues --   -0.44656  -0.44582  -0.44284  -0.44113  -0.44033
 Alpha  occ. eigenvalues --   -0.43757  -0.43448  -0.43268  -0.43180  -0.43172
 Alpha  occ. eigenvalues --   -0.43079  -0.42887  -0.42771  -0.42671  -0.42605
 Alpha  occ. eigenvalues --   -0.42453  -0.42215  -0.41993  -0.41959  -0.41917
 Alpha  occ. eigenvalues --   -0.41886  -0.41800  -0.41637  -0.41566  -0.41477
 Alpha  occ. eigenvalues --   -0.41330  -0.40905  -0.40774  -0.40654  -0.40142
 Alpha  occ. eigenvalues --   -0.40115  -0.39663  -0.39460  -0.39369  -0.39295
 Alpha  occ. eigenvalues --   -0.38711  -0.38317  -0.37854  -0.37851  -0.37678
 Alpha  occ. eigenvalues --   -0.37414  -0.37034  -0.36863  -0.36350  -0.36290
 Alpha  occ. eigenvalues --   -0.36020  -0.35759  -0.35039  -0.34056  -0.33866
 Alpha  occ. eigenvalues --   -0.33781  -0.33248  -0.33099  -0.31506  -0.31496
 Alpha  occ. eigenvalues --   -0.30924  -0.30838  -0.30778  -0.30328  -0.30325
 Alpha  occ. eigenvalues --   -0.29725  -0.29530  -0.29269  -0.24160  -0.23711
 Alpha  occ. eigenvalues --   -0.21421  -0.20999
 Alpha virt. eigenvalues --   -0.09282  -0.08340  -0.01791  -0.01449  -0.00090
 Alpha virt. eigenvalues --    0.00282   0.01316   0.02127   0.02698   0.03113
 Alpha virt. eigenvalues --    0.05158   0.05337   0.05433   0.05961   0.06027

 Mulliken charges:
               1
     1  Mg   0.826283
     2  C   -0.012334
     3  C   -0.069325
     4  C   -0.074880
     5  C   -0.110847
     6  N   -0.226768
     7  C   -0.083065
     8  C   -0.038316
     9  C   -0.040850
    10  C    0.001843
    11  C    0.086607
    12  C    0.038308
    13  C   -0.033742
    14  H    0.030155
    15  N   -0.395512
    16  C    0.163941
    17  C   -0.170817
    18  C   -0.041769
    19  C    0.169009
    20  C    0.109776
    21  C    0.017327
    22  O   -0.181579
    23  C    0.052914
    24  N   -0.265995
    25  C   -0.012125
    26  C   -0.046915
    27  C   -0.006132
    28  C    0.066988
    29  C    0.084000
    30  C    0.038752
    31  C   -0.018377
    32  N   -0.393945
    33  C    0.127146
    34  C   -0.170492
    35  C    0.015107
    36  C    0.149508
    37  C    0.114136
    38  C    0.076097
    39  O   -0.199824
    40  C   -0.076614
    41  C    0.177449
    42  O   -0.154691
    43  O   -0.337982
    44  C    0.149863
    45  H   -0.021494
    46  H   -0.018457
    47  H   -0.032932
    48  H   -0.002134
    49  H   -0.002251
    50  H    0.017301
    51  H    0.023710
    52  H    0.019041
    53  H    0.001130
    54  H    0.041952
    55  H    0.018449
    56  H    0.015549
    57  H    0.037241
    58  H    0.036028
    59  H    0.006608
    60  H    0.032360
    61  H   -0.000114
    62  H    0.047031
    63  H    0.021573
    64  H    0.003803
    65  H    0.024624
    66  H    0.025691
    67  H    0.032147
    68  H    0.004229
    69  H    0.015834
    70  H    0.010386
    71  H    0.010112
    72  H    0.020259
    73  H    0.037271
    74  H    0.019172
    75  H    0.024901
    76  H    0.055339
    77  H    0.050929
    78  H    0.046214
    79  H    0.046183
    80  Mg   0.835510
    81  C    0.031153
    82  C   -0.057073
    83  C   -0.053444
    84  C   -0.058807
    85  N   -0.269270
    86  C   -0.044985
    87  C    0.002034
    88  C   -0.047204
    89  C   -0.014807
    90  C    0.074603
    91  C    0.034801
    92  C   -0.076634
    93  H    0.020801
    94  N   -0.405726
    95  C    0.178223
    96  C   -0.125146
    97  C   -0.000795
    98  C    0.109723
    99  C    0.101746
   100  C   -0.004306
   101  O   -0.243956
   102  C    0.051033
   103  N   -0.270201
   104  C    0.053268
   105  C   -0.078204
   106  C    0.027901
   107  C   -0.007874
   108  C    0.069514
   109  C    0.031217
   110  C    0.009325
   111  N   -0.344252
   112  C    0.135616
   113  C   -0.189155
   114  C    0.048144
   115  C    0.088906
   116  C    0.113954
   117  C    0.042948
   118  O   -0.171234
   119  C   -0.068781
   120  C    0.209068
   121  O   -0.207369
   122  O   -0.347517
   123  C    0.172005
   124  H   -0.027417
   125  H   -0.003981
   126  H   -0.028158
   127  H    0.008149
   128  H    0.006914
   129  H    0.010217
   130  H    0.012684
   131  H    0.036593
   132  H    0.005551
   133  H    0.014324
   134  H    0.032397
   135  H    0.046439
   136  H    0.016096
   137  H    0.027822
   138  H    0.023642
   139  H    0.009441
   140  H    0.052570
   141  H    0.023057
   142  H    0.010428
   143  H    0.010088
   144  H    0.021316
   145  H    0.019838
   146  H   -0.000199
   147  H    0.007377
   148  H    0.015466
   149  H    0.024436
   150  H    0.019798
   151  H    0.019922
   152  H    0.034681
   153  H   -0.002028
   154  H    0.036147
   155  H    0.035785
   156  H    0.043831
   157  H    0.035748
   158  H    0.046278
 Sum of Mulliken charges =  -0.00000

 Dipole moment (field-independent basis, Debye):
    X=              5.3058    Y=             -0.1508    Z=              7.7781  Tot=              9.4166
 Quadrupole moment (field-independent basis, Debye-Ang):
   XX=           -532.1148   YY=           -479.3191   ZZ=           -507.3516
   XY=             52.1594   XZ=             10.7789   YZ=             42.1790

 Normal termination of Gaussian 16 at Wed Sep  1 03:46:08 2021.
