 Gaussian 16, Revision A.03,
 Gaussian 16:  ES64L-G16RevA.03 25-Dec-2016

 -----------------------------------
 #p cam-b3lyp/Def2SVP td=(nstates=5)
 -----------------------------------

 --------------------------------
 TDDFT excited states in gaussian
 --------------------------------
 Symbolic Z-matrix:
 Charge =  0 Multiplicity = 1

                         Standard orientation:
 ---------------------------------------------------------------------
 Center     Atomic      Atomic             Coordinates (Angstroms)
 Number     Number       Type             X           Y           Z
 ---------------------------------------------------------------------
      1         12           0       27.249122   -0.624688    0.287935
      2          6           0       25.848412    2.564221    0.607012
      3          6           0       29.131684    0.678613   -2.318857
      4          6           0       28.240070   -3.664859   -0.300832
      5          6           0       25.045688   -1.741563    2.825875
      6          7           0       27.174515    1.335753   -1.024302
      7          6           0       26.655701    2.483919   -0.577125
      8          6           0       27.089445    3.569971   -1.503952
      9          6           0       27.783072    2.841721   -2.681281
     10          6           0       28.092693    1.531804   -1.984102
     11          6           0       27.043052    2.660920   -4.007797
     12          6           0       28.046976    4.586226   -0.804508
     13          6           0       27.757478    6.116166   -0.938878
     14          1           0       27.050223    6.646656   -2.224869
     15          7           0       28.655049   -1.380081   -1.052405
     16          6           0       29.437900   -0.611761   -1.903868
     17          6           0       30.356996   -1.506998   -2.527880
     18          6           0       30.039610   -2.842274   -2.052644
     19          6           0       28.957227   -2.699819   -1.090334
     20          6           0       31.382644   -1.099755   -3.608295
     21          6           0       30.629638   -4.217595   -2.477948
     22          8           0       30.281813   -5.266165   -2.035305
     23          6           0       31.766727   -4.170701   -3.479554
     24          7           0       26.706616   -2.408565    1.166677
     25          6           0       27.225003   -3.562241    0.689509
     26          6           0       26.719094   -4.833035    1.426200
     27          6           0       25.898265   -4.154764    2.605653
     28          6           0       25.882482   -2.678570    2.226914
     29          6           0       25.862192   -5.786575    0.409778
     30          6           0       26.429443   -4.514412    4.028786
     31          6           0       27.347094   -3.519448    4.716472
     32          7           0       25.745192    0.191756    1.552470
     33          6           0       25.018328   -0.357525    2.573996
     34          6           0       24.166434    0.726572    3.177595
     35          6           0       24.478298    1.879694    2.422439
     36          6           0       25.419811    1.519471    1.402242
     37          6           0       23.083874    0.579554    4.212121
     38          6           0       24.194842    3.302768    2.253397
     39          8           0       23.407954    4.001996    2.897959
     40          6           0       25.182282    3.796850    1.200353
     41          6           0       24.360952    4.554383    0.196745
     42          8           0       23.672430    4.049216   -0.670870
     43          8           0       24.399171    5.819486    0.581560
     44          6           0       23.385654    6.726360    0.065909
     45          1           0       29.617504    1.042546   -3.226078
     46          1           0       28.688659   -4.658535   -0.357463
     47          1           0       24.377405   -2.084363    3.618948
     48          1           0       26.207296    4.118541   -1.832555
     49          1           0       28.651254    3.448701   -2.938389
     50          1           0       26.050228    3.106367   -4.073341
     51          1           0       26.945702    1.600788   -4.243433
     52          1           0       27.674439    3.120265   -4.768036
     53          1           0       29.100364    4.413224   -1.023842
     54          1           0       27.899269    4.274781    0.229462
     55          1           0       28.749804    6.565288   -0.881673
     56          1           0       27.166104    6.433491   -0.080373
     57          1           0       31.315630   -1.701672   -4.514608
     58          1           0       32.409850   -1.288033   -3.295661
     59          1           0       31.343474   -0.048024   -3.894960
     60          1           0       32.562104   -3.485881   -3.184722
     61          1           0       31.344218   -3.930777   -4.455350
     62          1           0       32.150596   -5.174106   -3.663647
     63          1           0       27.533712   -5.438521    1.823170
     64          1           0       24.867292   -4.503537    2.663571
     65          1           0       24.830212   -5.674130    0.742428
     66          1           0       26.053700   -6.850977    0.547489
     67          1           0       25.873685   -5.453740   -0.628714
     68          1           0       27.070954   -5.378225    3.853891
     69          1           0       25.632276   -4.812826    4.709344
     70          1           0       28.032832   -3.206914    3.928010
     71          1           0       27.806666   -4.148897    5.478141
     72          1           0       26.960616   -2.576243    5.101750
     73          1           0       22.808370   -0.421994    4.542566
     74          1           0       22.163669    1.023219    3.831744
     75          1           0       23.395463    1.218084    5.038136
     76          1           0       25.873462    4.565459    1.546764
     77          1           0       22.565683    6.342037   -0.539914
     78          1           0       23.959064    7.358579   -0.612726
     79          1           0       23.224965    7.510416    0.805968
     80         12           0      -26.467016   -0.835481   -0.087735
     81          6           0      -27.639800    2.526728    0.288455
     82          6           0      -25.657263   -0.137465   -3.351319
     83          6           0      -25.773883   -4.088720   -0.674099
     84          6           0      -28.218120   -1.606463    2.875469
     85          7           0      -26.630252    0.991235   -1.346003
     86          6           0      -27.066074    2.279259   -0.997255
     87          6           0      -26.850205    3.206093   -2.166044
     88          6           0      -26.725804    2.194516   -3.382313
     89          6           0      -26.360739    0.874855   -2.641054
     90          6           0      -28.122590    2.124303   -4.096400
     91          6           0      -25.679281    4.231809   -1.965592
     92          6           0      -26.077946    5.547675   -2.411521
     93          1           0      -25.113081    6.747577   -1.938239
     94          7           0      -25.640623   -1.847085   -1.775739
     95          6           0      -25.349584   -1.375553   -2.994037
     96          6           0      -24.715116   -2.403943   -3.759984
     97          6           0      -24.746100   -3.571404   -3.026535
     98          6           0      -25.379869   -3.203706   -1.677064
     99          6           0      -24.307994   -2.197049   -5.253486
    100          6           0      -24.167711   -4.956924   -3.380379
    101          8           0      -24.327855   -5.871380   -2.612208
    102          6           0      -23.332907   -5.151565   -4.624130
    103          7           0      -27.187084   -2.622444    0.846786
    104          6           0      -26.615789   -3.830751    0.463092
    105          6           0      -26.880264   -4.890065    1.483058
    106          6           0      -27.650960   -4.092516    2.644921
    107          6           0      -27.640894   -2.669046    2.139525
    108          6           0      -27.590922   -6.076817    0.925515
    109          6           0      -27.065881   -4.219315    4.157086
    110          6           0      -27.940029   -4.803809    5.195148
    111          7           0      -27.650024    0.199589    1.360902
    112          6           0      -28.277098   -0.282832    2.487526
    113          6           0      -28.916700    0.902463    3.207819
    114          6           0      -28.595495    2.041486    2.442516
    115          6           0      -27.868436    1.552953    1.300900
    116          6           0      -29.753070    0.792861    4.490006
    117          6           0      -28.874900    3.441770    2.339520
    118          8           0      -29.505754    4.201477    3.108724
    119          6           0      -28.420773    3.796072    0.864217
    120          6           0      -27.636057    5.136889    0.985617
    121          8           0      -26.391461    5.148809    0.976463
    122          8           0      -28.503949    6.178177    1.001365
    123          6           0      -27.743204    7.434209    1.323469
    124          1           0      -25.194518    0.125772   -4.305134
    125          1           0      -25.542199   -5.144698   -0.832295
    126          1           0      -28.699814   -1.727063    3.847899
    127          1           0      -27.797676    3.725254   -2.308727
    128          1           0      -25.978087    2.520841   -4.104304
    129          1           0      -28.870633    1.562772   -3.537293
    130          1           0      -27.983734    1.718433   -5.097541
    131          1           0      -28.495910    3.139285   -4.234545
    132          1           0      -24.905883    3.953011   -2.681690
    133          1           0      -25.277582    4.201054   -0.952499
    134          1           0      -27.009333    5.858009   -1.937602
    135          1           0      -26.130210    5.520914   -3.500218
    136          1           0      -23.250020   -2.459182   -5.253686
    137          1           0      -24.397580   -1.173313   -5.616547
    138          1           0      -24.931238   -2.818524   -5.896339
    139          1           0      -23.082105   -6.204173   -4.755809
    140          1           0      -22.495963   -4.529659   -4.306697
    141          1           0      -23.892158   -4.756124   -5.471999
    142          1           0      -25.875433   -5.155780    1.811937
    143          1           0      -28.667702   -4.484009    2.666104
    144          1           0      -26.843170   -6.868782    0.938002
    145          1           0      -27.847523   -5.964030   -0.127720
    146          1           0      -28.499012   -6.371706    1.451860
    147          1           0      -26.935570   -3.173346    4.434566
    148          1           0      -26.083030   -4.684169    4.091997
    149          1           0      -28.167563   -4.076567    5.974104
    150          1           0      -27.203471   -5.498694    5.597081
    151          1           0      -28.779810   -5.366488    4.785118
    152          1           0      -30.788152    0.718030    4.158562
    153          1           0      -29.640118    1.661754    5.138295
    154          1           0      -29.409478   -0.067905    5.063751
    155          1           0      -29.367596    3.915205    0.339272
    156          1           0      -27.434135    7.529396    2.364261
    157          1           0      -28.254133    8.358445    1.055543
    158          1           0      -26.876545    7.425505    0.662159
 ---------------------------------------------------------------------

 SCF Done:  E(RCAM-B3LYP) =  -4069.77717519     A.U. after   16 cycles

 Excitation energies and oscillator strengths:

 Excited State   1:      Singlet-A      1.7187 eV  721.36 nm  f=0.3529  <S**2>=0.000
     309 -> 315       -0.18754
     312 -> 314        0.68234
     309 <- 315       -0.10714
 This state for optimization and/or second-order correction.
 Total Energy, E(TD-HF/TD-DFT) =  -4069.71401240
 Copying the excited state density for this state as the 1-particle RhoCI density.

 Excited State   2:      Singlet-A      1.7293 eV  716.98 nm  f=0.3997  <S**2>=0.000
     310 -> 316       -0.18718
     311 -> 313        0.68375
     310 <- 316       -0.10975

 Excited State   3:      Singlet-A      2.2139 eV  560.03 nm  f=0.1004  <S**2>=0.000
     310 -> 313        0.64250
     311 -> 316        0.28232

 Excited State   4:      Singlet-A      2.2689 eV  546.46 nm  f=0.0058  <S**2>=0.000
     309 -> 314        0.54882
     312 -> 315        0.43684

 Excited State   5:      Singlet-A      3.0089 eV  412.06 nm  f=0.0000  <S**2>=0.000
     312 -> 313        0.70711

 The electronic state is 1-A.
 Alpha  occ. eigenvalues --  -46.89416 -46.88802 -19.26270 -19.26143 -19.19742
 Alpha  occ. eigenvalues --  -19.19655 -19.19472 -19.19424 -19.18732 -19.18634
 Alpha  occ. eigenvalues --  -14.42253 -14.41898 -14.41793 -14.41608 -14.39350
 Alpha  occ. eigenvalues --  -14.39325 -14.39137 -14.38749 -10.39704 -10.39164
 Alpha  occ. eigenvalues --  -10.35661 -10.35475 -10.34891 -10.34506 -10.32066
 Alpha  occ. eigenvalues --  -10.31519 -10.31357 -10.31292 -10.31275 -10.31190
 Alpha  occ. eigenvalues --  -10.31082 -10.30913 -10.30800 -10.30651 -10.30465
 Alpha  occ. eigenvalues --  -10.29748 -10.29571 -10.29493 -10.29393 -10.29268
 Alpha  occ. eigenvalues --  -10.29158 -10.28988 -10.28987 -10.28953 -10.28753
 Alpha  occ. eigenvalues --  -10.28646 -10.28601 -10.28386 -10.28291 -10.28217
 Alpha  occ. eigenvalues --  -10.28138 -10.28097 -10.28091 -10.28062 -10.28026
 Alpha  occ. eigenvalues --  -10.27790 -10.27573 -10.27353 -10.27336 -10.27157
 Alpha  occ. eigenvalues --  -10.27133 -10.27023 -10.27000 -10.26919 -10.26704
 Alpha  occ. eigenvalues --  -10.26699 -10.26616 -10.26500 -10.26405 -10.26372
 Alpha  occ. eigenvalues --  -10.26351 -10.26316 -10.26276 -10.26234 -10.25958
 Alpha  occ. eigenvalues --  -10.25936 -10.25916 -10.25863 -10.25806 -10.25397
 Alpha  occ. eigenvalues --  -10.25345 -10.25220 -10.25086 -10.25086 -10.25010
 Alpha  occ. eigenvalues --  -10.24914  -3.17753  -3.17259  -1.92649  -1.92195
 Alpha  occ. eigenvalues --   -1.92167  -1.92054  -1.91749  -1.91519  -1.18346
 Alpha  occ. eigenvalues --   -1.16028  -1.11722  -1.11377  -1.09623  -1.08682
 Alpha  occ. eigenvalues --   -1.07832  -1.07111  -1.05028  -1.04066  -1.03787
 Alpha  occ. eigenvalues --   -1.03016  -1.02685  -1.02613  -1.01873  -1.01418
 Alpha  occ. eigenvalues --   -0.93364  -0.91203  -0.88920  -0.88731  -0.88671
 Alpha  occ. eigenvalues --   -0.88627  -0.88174  -0.88034  -0.87487  -0.87232
 Alpha  occ. eigenvalues --   -0.87109  -0.86247  -0.85545  -0.85454  -0.84454
 Alpha  occ. eigenvalues --   -0.84393  -0.83766  -0.83740  -0.82630  -0.82592
 Alpha  occ. eigenvalues --   -0.82497  -0.81423  -0.80796  -0.80658  -0.80439
 Alpha  occ. eigenvalues --   -0.80035  -0.78198  -0.77921  -0.77524  -0.77353
 Alpha  occ. eigenvalues --   -0.77018  -0.76518  -0.76320  -0.75453  -0.75127
 Alpha  occ. eigenvalues --   -0.74906  -0.72688  -0.72151  -0.71721  -0.71420
 Alpha  occ. eigenvalues --   -0.69539  -0.68905  -0.68781  -0.68054  -0.67848
 Alpha  occ. eigenvalues --   -0.67395  -0.66353  -0.66112  -0.65279  -0.65090
 Alpha  occ. eigenvalues --   -0.64979  -0.64941  -0.64660  -0.64415  -0.64351
 Alpha  occ. eigenvalues --   -0.64279  -0.62820  -0.62020  -0.59902  -0.59863
 Alpha  occ. eigenvalues --   -0.59669  -0.59217  -0.59096  -0.58473  -0.58414
 Alpha  occ. eigenvalues --   -0.58217  -0.58113  -0.57399  -0.57321  -0.57075
 Alpha  occ. eigenvalues --   -0.56877  -0.56016  -0.55963  -0.55536  -0.55039
 Alpha  occ. eigenvalues --   -0.54972  -0.54804  -0.54688  -0.54303  -0.53988
 Alpha  occ. eigenvalues --   -0.53956  -0.53604  -0.53530  -0.53269  -0.52949
 Alpha  occ. eigenvalues --   -0.52948  -0.52724  -0.52571  -0.52532  -0.52434
 Alpha  occ. eigenvalues --   -0.52036  -0.51892  -0.51710  -0.51354  -0.51248
 Alpha  occ. eigenvalues --   -0.51234  -0.51055  -0.50534  -0.50399  -0.50195
 Alpha  occ. eigenvalues --   -0.50142  -0.50104  -0.49692  -0.49494  -0.49414
 Alpha  occ. eigenvalues --   -0.49210  -0.49097  -0.48913  -0.48856  -0.48680
 Alpha  occ. eigenvalues --   -0.48630  -0.48380  -0.48180  -0.48126  -0.47980
 Alpha  occ. eigenvalues --   -0.47974  -0.47825  -0.47412  -0.47313  -0.46906
 Alpha  occ. eigenvalues --   -0.46598  -0.46526  -0.46417  -0.46213  -0.46073
 Alpha  occ. eigenvalues --   -0.46027  -0.45912  -0.45876  -0.45829  -0.45666
 Alpha  occ. eigenvalues --   -0.45602  -0.45366  -0.45365  -0.45015  -0.44834
 Alpha  occ. eigenvalues --   -0.44615  -0.44522  -0.44462  -0.44330  -0.44066
 Alpha  occ. eigenvalues --   -0.43763  -0.43727  -0.43437  -0.43341  -0.43267
 Alpha  occ. eigenvalues --   -0.43137  -0.43073  -0.43006  -0.42956  -0.42821
 Alpha  occ. eigenvalues --   -0.42723  -0.42346  -0.42175  -0.41982  -0.41896
 Alpha  occ. eigenvalues --   -0.41764  -0.41660  -0.41446  -0.41213  -0.41109
 Alpha  occ. eigenvalues --   -0.41012  -0.40762  -0.40733  -0.40288  -0.40206
 Alpha  occ. eigenvalues --   -0.39822  -0.39628  -0.39302  -0.38825  -0.38531
 Alpha  occ. eigenvalues --   -0.38402  -0.37850  -0.37249  -0.37165  -0.37115
 Alpha  occ. eigenvalues --   -0.37066  -0.36936  -0.36727  -0.36403  -0.36225
 Alpha  occ. eigenvalues --   -0.36128  -0.34769  -0.34408  -0.34069  -0.33977
 Alpha  occ. eigenvalues --   -0.33806  -0.33161  -0.33080  -0.31715  -0.31415
 Alpha  occ. eigenvalues --   -0.31382  -0.30787  -0.30611  -0.30389  -0.30060
 Alpha  occ. eigenvalues --   -0.29930  -0.29316  -0.28959  -0.24236  -0.23799
 Alpha  occ. eigenvalues --   -0.21080  -0.20187
 Alpha virt. eigenvalues --   -0.08492  -0.07558  -0.02494  -0.01525   0.00023
 Alpha virt. eigenvalues --    0.00187   0.01832   0.02416   0.02812   0.02869
 Alpha virt. eigenvalues --    0.04879   0.05060   0.05473   0.05599   0.05890

 Mulliken charges:
               1
     1  Mg   0.807173
     2  C    0.010119
     3  C   -0.042608
     4  C   -0.040221
     5  C   -0.078423
     6  N   -0.217012
     7  C   -0.014055
     8  C   -0.051647
     9  C   -0.035688
    10  C   -0.041060
    11  C    0.091908
    12  C    0.029473
    13  C   -0.055150
    14  H    0.020723
    15  N   -0.403171
    16  C    0.176105
    17  C   -0.142581
    18  C   -0.065082
    19  C    0.100917
    20  C    0.112263
    21  C    0.006144
    22  O   -0.163606
    23  C    0.038892
    24  N   -0.314197
    25  C    0.051143
    26  C   -0.056846
    27  C   -0.004291
    28  C    0.059396
    29  C    0.060126
    30  C    0.013070
    31  C    0.020695
    32  N   -0.344803
    33  C    0.108670
    34  C   -0.166509
    35  C    0.012400
    36  C    0.108753
    37  C    0.113984
    38  C    0.067787
    39  O   -0.178330
    40  C   -0.028012
    41  C    0.157533
    42  O   -0.218710
    43  O   -0.295389
    44  C    0.187438
    45  H   -0.031087
    46  H   -0.001830
    47  H   -0.034050
    48  H    0.016153
    49  H   -0.005337
    50  H    0.024652
    51  H    0.019622
    52  H    0.008000
    53  H    0.014575
    54  H    0.002814
    55  H    0.029692
    56  H    0.038929
    57  H    0.016319
    58  H    0.018576
    59  H    0.011115
    60  H    0.037293
    61  H    0.030744
    62  H    0.013031
    63  H    0.024816
    64  H    0.004414
    65  H   -0.001486
    66  H    0.023655
    67  H    0.037591
    68  H   -0.001790
    69  H    0.004086
    70  H    0.009621
    71  H    0.020968
    72  H    0.019961
    73  H    0.016242
    74  H    0.039022
    75  H    0.036335
    76  H    0.044870
    77  H    0.067408
    78  H    0.009513
    79  H    0.038240
    80  Mg   0.811252
    81  C    0.053188
    82  C   -0.123014
    83  C   -0.063834
    84  C   -0.065430
    85  N   -0.267887
    86  C   -0.054917
    87  C   -0.044079
    88  C   -0.099864
    89  C    0.112755
    90  C    0.068894
    91  C    0.138586
    92  C   -0.083143
    93  H   -0.006570
    94  N   -0.362803
    95  C    0.148163
    96  C   -0.139279
    97  C   -0.064759
    98  C    0.139367
    99  C    0.103300
   100  C   -0.015274
   101  O   -0.185045
   102  C    0.069077
   103  N   -0.322265
   104  C    0.034112
   105  C   -0.048993
   106  C   -0.011813
   107  C    0.064137
   108  C    0.078933
   109  C    0.007248
   110  C    0.029986
   111  N   -0.332875
   112  C    0.080383
   113  C   -0.182283
   114  C    0.030895
   115  C    0.076666
   116  C    0.117219
   117  C    0.052329
   118  O   -0.200672
   119  C   -0.080764
   120  C    0.223760
   121  O   -0.248582
   122  O   -0.309996
   123  C    0.170751
   124  H   -0.035029
   125  H    0.002009
   126  H   -0.033076
   127  H   -0.004799
   128  H   -0.000967
   129  H    0.028221
   130  H    0.011848
   131  H    0.014438
   132  H   -0.009244
   133  H    0.049589
   134  H    0.031247
   135  H    0.021229
   136  H    0.030227
   137  H    0.013479
   138  H    0.050656
   139  H    0.035180
   140  H    0.045114
   141  H    0.034453
   142  H    0.016507
   143  H    0.007026
   144  H    0.017634
   145  H    0.024258
   146  H    0.016130
   147  H    0.003794
   148  H    0.003982
   149  H    0.022780
   150  H    0.008367
   151  H    0.020791
   152  H    0.040148
   153  H    0.033952
   154  H    0.013513
   155  H    0.060428
   156  H    0.051642
   157  H    0.033603
   158  H    0.044007
 Sum of Mulliken charges =  -0.00000

 Dipole moment (field-independent basis, Debye):
    X=              3.5796    Y=             -0.4831    Z=             -3.7423  Tot=              5.2011
 Quadrupole moment (field-independent basis, Debye-Ang):
   XX=           -486.7357   YY=           -508.3444   ZZ=           -479.2178
   XY=            123.9057   XZ=             87.0378   YZ=            -38.1096

 Normal termination of Gaussian 16 at Thu Sep 16 14:32:14 2021.
