 Gaussian 16, Revision A.03,
 Gaussian 16:  ES64L-G16RevA.03 25-Dec-2016

 ----------------------------------------------------------
 #p cam-b3lyp/Def2SVP td=(nstates=5) density=(transition=1)
 ----------------------------------------------------------

 --------------------------------
 TDDFT excited states in gaussian
 --------------------------------
 Symbolic Z-matrix:
 Charge =  0 Multiplicity = 1

                         Standard orientation:
 ---------------------------------------------------------------------
 Center     Atomic      Atomic             Coordinates (Angstroms)
 Number     Number       Type             X           Y           Z
 ---------------------------------------------------------------------
      1         12           0       -8.823888    0.186790   -0.018724
      2          6           0       -6.092748   -1.933073    0.333986
      3          6           0       -6.775998    2.608850   -1.154189
      4          6           0      -11.312945    2.441001    0.384092
      5          6           0      -10.731174   -2.075155    1.930536
      6          7           0       -6.732795    0.200541   -0.414389
      7          6           0       -5.770107   -0.784237   -0.369997
      8          6           0       -4.395553   -0.222383   -0.826520
      9          6           0       -4.647889    1.313778   -0.727993
     10          6           0       -6.159287    1.398011   -0.882681
     11          6           0       -4.194869    1.968504    0.624304
     12          6           0       -4.031016   -0.896776   -2.161775
     13          6           0       -2.611383   -1.305802   -2.269907
     14          1           0       -2.338203   -2.323735   -3.282479
     15          7           0       -9.049587    2.164491   -0.555344
     16          6           0       -8.083773    2.967493   -1.071947
     17          6           0       -8.712569    4.147712   -1.609697
     18          6           0      -10.078014    4.094479   -1.150501
     19          6           0      -10.173204    2.888328   -0.322968
     20          6           0       -7.978846    5.210058   -2.346913
     21          6           0      -11.248194    5.123934   -1.274716
     22          8           0      -12.375616    4.912532   -0.823368
     23          6           0      -11.098054    6.380589   -2.085792
     24          7           0      -10.614489    0.265913    1.323272
     25          6           0      -11.558101    1.316534    1.159624
     26          6           0      -12.860268    1.057178    1.842192
     27          6           0      -12.675022   -0.471402    2.112499
     28          6           0      -11.246411   -0.812215    1.696746
     29          6           0      -13.104187    1.934220    3.116769
     30          6           0      -13.691159   -1.373898    1.321607
     31          6           0      -13.775658   -1.112675   -0.203844
     32          7           0       -8.555919   -1.676013    0.858454
     33          6           0       -9.435856   -2.499687    1.577472
     34          6           0       -8.714608   -3.672720    1.903078
     35          6           0       -7.429066   -3.489293    1.409143
     36          6           0       -7.391135   -2.275142    0.806711
     37          6           0       -9.277441   -4.874265    2.593122
     38          6           0       -6.165710   -4.061954    1.376158
     39          8           0       -5.775107   -5.143906    1.851189
     40          6           0       -5.160183   -3.112911    0.657092
     41          6           0       -4.668052   -3.961006   -0.557037
     42          8           0       -5.358661   -4.281890   -1.540595
     43          8           0       -3.335235   -4.291976   -0.337860
     44          6           0       -2.700285   -5.312714   -1.230881
     45          1           0       -6.003259    3.334644   -1.416310
     46          1           0      -12.260870    2.973785    0.491148
     47          1           0      -11.325536   -2.891783    2.345772
     48          1           0       -3.607189   -0.559422   -0.154317
     49          1           0       -4.197600    1.804708   -1.590229
     50          1           0       -3.680597    1.312817    1.327523
     51          1           0       -5.060749    2.281270    1.206453
     52          1           0       -3.485760    2.766414    0.404793
     53          1           0       -4.152035   -0.124386   -2.920005
     54          1           0       -4.709481   -1.738683   -2.302176
     55          1           0       -2.362838   -1.756359   -1.308867
     56          1           0       -2.001181   -0.409431   -2.378929
     57          1           0       -7.025280    4.845111   -2.728049
     58          1           0       -7.985793    6.113495   -1.736187
     59          1           0       -8.535538    5.470558   -3.247166
     60          1           0      -11.826473    7.067876   -1.654909
     61          1           0      -11.376415    6.207065   -3.125521
     62          1           0      -10.105345    6.819576   -1.981466
     63          1           0      -13.730718    1.184135    1.197006
     64          1           0      -12.787673   -0.652660    3.181890
     65          1           0      -12.144973    2.305534    3.478521
     66          1           0      -13.580842    1.444324    3.965976
     67          1           0      -13.730003    2.816076    2.976719
     68          1           0      -14.646087   -1.264027    1.835836
     69          1           0      -13.361168   -2.385779    1.556536
     70          1           0      -13.528548   -1.994558   -0.795214
     71          1           0      -13.089304   -0.292924   -0.417862
     72          1           0      -14.770756   -0.804156   -0.522908
     73          1           0       -8.647803   -5.032710    3.468606
     74          1           0       -9.260988   -5.701443    1.883486
     75          1           0      -10.286924   -4.758238    2.987757
     76          1           0       -4.320093   -2.937655    1.328604
     77          1           0       -3.279930   -6.226615   -1.102885
     78          1           0       -1.653011   -5.558653   -1.055561
     79          1           0       -2.881632   -4.792406   -2.171398
     80         12           0        8.739480    0.407677    0.316849
     81          6           0        7.047310   -1.354394   -2.158039
     82          6           0        8.094401    3.312160   -1.464032
     83          6           0        9.823740    2.255928    2.833506
     84          6           0        8.880495   -2.470972    2.233101
     85          7           0        7.563183    0.944941   -1.490904
     86          6           0        7.077548    0.044950   -2.417225
     87          6           0        6.605077    0.705291   -3.678583
     88          6           0        7.302542    2.132760   -3.572902
     89          6           0        7.648567    2.180322   -2.090585
     90          6           0        8.431866    2.606120   -4.606174
     91          6           0        5.021239    0.712509   -3.896336
     92          6           0        4.116173    0.790472   -2.630943
     93          1           0        2.922979    1.704118   -2.776342
     94          7           0        8.830122    2.508973    0.701381
     95          6           0        8.523905    3.549515   -0.184466
     96          6           0        8.688165    4.835660    0.435606
     97          6           0        9.183128    4.558245    1.732191
     98          6           0        9.283787    3.072584    1.844597
     99          6           0        8.598320    6.112435   -0.401776
    100          6           0        9.544584    5.687142    2.724195
    101          8           0        9.329152    6.876673    2.470485
    102          6           0       10.212174    5.264549    3.964708
    103          7           0        9.146381   -0.087626    2.282183
    104          6           0        9.848309    0.836499    3.037676
    105          6           0       10.412693    0.240902    4.346280
    106          6           0        9.858327   -1.233623    4.183070
    107          6           0        9.219804   -1.272135    2.866325
    108          6           0       11.886331    0.288330    4.600415
    109          6           0        8.775490   -1.625876    5.310913
    110          6           0        9.062216   -2.987590    5.887979
    111          7           0        8.281051   -1.607857    0.052792
    112          6           0        8.396958   -2.668725    0.931782
    113          6           0        7.882088   -3.905127    0.300091
    114          6           0        7.335180   -3.426198   -0.941006
    115          6           0        7.606483   -2.054852   -1.012453
    116          6           0        7.659573   -5.248400    0.866618
    117          6           0        6.557825   -3.745741   -2.157303
    118          8           0        6.028306   -4.784735   -2.477441
    119          6           0        6.380693   -2.441214   -2.999128
    120          6           0        6.902743   -2.635064   -4.352419
    121          8           0        6.324529   -2.588715   -5.438483
    122          8           0        8.201224   -3.191980   -4.214547
    123          6           0        8.934036   -3.413813   -5.479491
    124          1           0        8.097732    4.151733   -2.163023
    125          1           0       10.376921    2.735162    3.643779
    126          1           0        9.042235   -3.331288    2.884993
    127          1           0        6.976101    0.164469   -4.549118
    128          1           0        6.439924    2.781705   -3.726181
    129          1           0        8.625644    1.931029   -5.439534
    130          1           0        9.420157    2.711685   -4.158884
    131          1           0        8.080167    3.488766   -5.141059
    132          1           0        4.717425   -0.123994   -4.524811
    133          1           0        4.810094    1.574952   -4.528516
    134          1           0        4.699329    1.084872   -1.757850
    135          1           0        3.707629   -0.195034   -2.409106
    136          1           0        8.234690    6.978031    0.152857
    137          1           0        7.846482    5.977152   -1.178856
    138          1           0        9.612748    6.308600   -0.749788
    139          1           0       11.218502    4.927472    3.717934
    140          1           0        9.620857    4.491179    4.455960
    141          1           0       10.262001    6.165025    4.576818
    142          1           0        9.822295    0.646570    5.168174
    143          1           0       10.774000   -1.815012    4.075406
    144          1           0       12.059874   -0.364611    5.455940
    145          1           0       12.115276    1.292655    4.956860
    146          1           0       12.438627    0.019750    3.699115
    147          1           0        7.798249   -1.559231    4.832904
    148          1           0        8.628599   -0.916577    6.126401
    149          1           0        8.273177   -3.662287    5.556730
    150          1           0        8.888644   -3.027590    6.963841
    151          1           0        9.990408   -3.377424    5.470638
    152          1           0        7.958437   -5.381036    1.907484
    153          1           0        8.290067   -5.922580    0.287952
    154          1           0        6.570181   -5.278493    0.870509
    155          1           0        5.304715   -2.268803   -3.008994
    156          1           0        9.922773   -3.022784   -5.236777
    157          1           0        8.604762   -2.950197   -6.409447
    158          1           0        9.099361   -4.490967   -5.508650
 ---------------------------------------------------------------------

 SCF Done:  E(RCAM-B3LYP) =  -4069.81529000     A.U. after   19 cycles

 Excitation energies and oscillator strengths:

 Excited State   1:      Singlet-A      1.6601 eV  746.85 nm  f=0.3023  <S**2>=0.000
     310 -> 316        0.16103
     312 -> 313        0.68537
     310 <- 316        0.10336
 This state for optimization and/or second-order correction.
 Total Energy, E(TD-HF/TD-DFT) =  -4069.75428243
 Copying the excited state density for this state as the 1-particle RhoCI density.

 Excited State   2:      Singlet-A      1.7180 eV  721.67 nm  f=0.4261  <S**2>=0.000
     309 -> 315       -0.18096
     311 -> 314        0.68002
     309 <- 315       -0.10454

 Excited State   3:      Singlet-A      2.2042 eV  562.48 nm  f=0.0923  <S**2>=0.000
     309 -> 314        0.62613
     311 -> 315        0.30301

 Excited State   4:      Singlet-A      2.2184 eV  558.89 nm  f=0.1287  <S**2>=0.000
     310 -> 313        0.63968
     312 -> 316       -0.27018

 Excited State   5:      Singlet-A      2.8014 eV  442.59 nm  f=0.0000  <S**2>=0.000
     312 -> 314        0.70699

 The electronic state is 1-A.
 Alpha  occ. eigenvalues --  -46.89215 -46.88173 -19.24468 -19.24450 -19.20654
 Alpha  occ. eigenvalues --  -19.19767 -19.19127 -19.18938 -19.18611 -19.17489
 Alpha  occ. eigenvalues --  -14.42350 -14.42311 -14.41786 -14.41339 -14.39753
 Alpha  occ. eigenvalues --  -14.39293 -14.39202 -14.38353 -10.39847 -10.39789
 Alpha  occ. eigenvalues --  -10.35236 -10.35208 -10.35161 -10.33466 -10.31722
 Alpha  occ. eigenvalues --  -10.31635 -10.31392 -10.31304 -10.30791 -10.30784
 Alpha  occ. eigenvalues --  -10.30750 -10.30395 -10.30293 -10.30185 -10.30182
 Alpha  occ. eigenvalues --  -10.30097 -10.30089 -10.29463 -10.29167 -10.29072
 Alpha  occ. eigenvalues --  -10.29055 -10.28786 -10.28677 -10.28656 -10.28528
 Alpha  occ. eigenvalues --  -10.28465 -10.28353 -10.28268 -10.28157 -10.28132
 Alpha  occ. eigenvalues --  -10.28121 -10.28104 -10.28060 -10.27751 -10.27703
 Alpha  occ. eigenvalues --  -10.27573 -10.27509 -10.27434 -10.27407 -10.27308
 Alpha  occ. eigenvalues --  -10.27252 -10.27242 -10.27228 -10.27086 -10.27040
 Alpha  occ. eigenvalues --  -10.27033 -10.26894 -10.26880 -10.26831 -10.26587
 Alpha  occ. eigenvalues --  -10.26377 -10.26299 -10.26263 -10.26223 -10.26169
 Alpha  occ. eigenvalues --  -10.26115 -10.26079 -10.25831 -10.25801 -10.25798
 Alpha  occ. eigenvalues --  -10.25723 -10.25608 -10.25504 -10.25495 -10.25456
 Alpha  occ. eigenvalues --  -10.23632  -3.17740  -3.16769  -1.92624  -1.92211
 Alpha  occ. eigenvalues --   -1.92033  -1.91649  -1.91227  -1.91071  -1.14930
 Alpha  occ. eigenvalues --   -1.14154  -1.10479  -1.09475  -1.09352  -1.07776
 Alpha  occ. eigenvalues --   -1.07012  -1.06396  -1.05172  -1.04661  -1.03832
 Alpha  occ. eigenvalues --   -1.03758  -1.03374  -1.03295  -1.02455  -1.02066
 Alpha  occ. eigenvalues --   -0.92581  -0.92367  -0.89735  -0.89327  -0.88934
 Alpha  occ. eigenvalues --   -0.88845  -0.88459  -0.88113  -0.87792  -0.87654
 Alpha  occ. eigenvalues --   -0.86986  -0.86982  -0.86394  -0.86292  -0.84931
 Alpha  occ. eigenvalues --   -0.84550  -0.84417  -0.83348  -0.82821  -0.82520
 Alpha  occ. eigenvalues --   -0.82011  -0.81500  -0.80952  -0.80788  -0.80273
 Alpha  occ. eigenvalues --   -0.80210  -0.78403  -0.78069  -0.77611  -0.76984
 Alpha  occ. eigenvalues --   -0.76925  -0.76736  -0.76323  -0.75856  -0.75836
 Alpha  occ. eigenvalues --   -0.75320  -0.73101  -0.72750  -0.72253  -0.71896
 Alpha  occ. eigenvalues --   -0.69654  -0.69573  -0.69432  -0.68600  -0.68208
 Alpha  occ. eigenvalues --   -0.67352  -0.66946  -0.66504  -0.66357  -0.65177
 Alpha  occ. eigenvalues --   -0.65019  -0.64623  -0.64477  -0.64297  -0.64120
 Alpha  occ. eigenvalues --   -0.63907  -0.62652  -0.61339  -0.60375  -0.59751
 Alpha  occ. eigenvalues --   -0.59619  -0.59487  -0.59048  -0.58978  -0.58401
 Alpha  occ. eigenvalues --   -0.58282  -0.57645  -0.57415  -0.57360  -0.56785
 Alpha  occ. eigenvalues --   -0.56425  -0.55916  -0.55846  -0.55459  -0.55443
 Alpha  occ. eigenvalues --   -0.55209  -0.55186  -0.54851  -0.54747  -0.54536
 Alpha  occ. eigenvalues --   -0.53999  -0.53321  -0.53000  -0.52884  -0.52813
 Alpha  occ. eigenvalues --   -0.52766  -0.52722  -0.52617  -0.52293  -0.52275
 Alpha  occ. eigenvalues --   -0.52075  -0.51782  -0.51718  -0.51498  -0.51314
 Alpha  occ. eigenvalues --   -0.51211  -0.50950  -0.50606  -0.50381  -0.50356
 Alpha  occ. eigenvalues --   -0.50208  -0.49740  -0.49656  -0.49414  -0.49383
 Alpha  occ. eigenvalues --   -0.49248  -0.49057  -0.48947  -0.48744  -0.48672
 Alpha  occ. eigenvalues --   -0.48601  -0.48381  -0.48350  -0.48276  -0.47924
 Alpha  occ. eigenvalues --   -0.47860  -0.47840  -0.47535  -0.47364  -0.47208
 Alpha  occ. eigenvalues --   -0.47020  -0.46877  -0.46612  -0.46429  -0.46395
 Alpha  occ. eigenvalues --   -0.46330  -0.46117  -0.45852  -0.45822  -0.45563
 Alpha  occ. eigenvalues --   -0.45502  -0.45321  -0.45221  -0.45106  -0.45073
 Alpha  occ. eigenvalues --   -0.44794  -0.44760  -0.44447  -0.44335  -0.44035
 Alpha  occ. eigenvalues --   -0.44034  -0.43572  -0.43518  -0.43330  -0.43330
 Alpha  occ. eigenvalues --   -0.43271  -0.43223  -0.43003  -0.42885  -0.42859
 Alpha  occ. eigenvalues --   -0.42592  -0.42552  -0.42246  -0.42198  -0.42070
 Alpha  occ. eigenvalues --   -0.41819  -0.41795  -0.41787  -0.41617  -0.41435
 Alpha  occ. eigenvalues --   -0.41353  -0.40909  -0.40707  -0.40604  -0.40405
 Alpha  occ. eigenvalues --   -0.40136  -0.40072  -0.39749  -0.39246  -0.38945
 Alpha  occ. eigenvalues --   -0.38634  -0.38096  -0.38061  -0.37820  -0.37544
 Alpha  occ. eigenvalues --   -0.37224  -0.36996  -0.36723  -0.36664  -0.36414
 Alpha  occ. eigenvalues --   -0.35814  -0.35763  -0.35268  -0.34913  -0.33961
 Alpha  occ. eigenvalues --   -0.33933  -0.33429  -0.33074  -0.31385  -0.31309
 Alpha  occ. eigenvalues --   -0.31164  -0.30931  -0.30701  -0.30067  -0.29886
 Alpha  occ. eigenvalues --   -0.29763  -0.29572  -0.29261  -0.24207  -0.24089
 Alpha  occ. eigenvalues --   -0.21323  -0.21046
 Alpha virt. eigenvalues --   -0.08857  -0.08776  -0.02353  -0.01368   0.00518
 Alpha virt. eigenvalues --    0.00680   0.01614   0.02342   0.02419   0.02579
 Alpha virt. eigenvalues --    0.03967   0.04829   0.05135   0.05279   0.05730

 Mulliken charges:
               1
     1  Mg  12.002487
     2  C    5.968382
     3  C    6.009653
     4  C    6.038141
     5  C    6.010983
     6  N    6.977531
     7  C    6.036660
     8  C    5.997398
     9  C    6.006741
    10  C    5.975748
    11  C    6.004125
    12  C    5.992968
    13  C    6.000281
    14  H    0.999190
    15  N    7.010756
    16  C    5.957534
    17  C    5.979748
    18  C    5.986539
    19  C    5.954535
    20  C    6.005418
    21  C    5.987115
    22  O    7.970435
    23  C    6.005855
    24  N    7.017854
    25  C    5.953388
    26  C    6.016929
    27  C    5.992494
    28  C    6.017842
    29  C    5.999948
    30  C    5.991386
    31  C    5.993263
    32  N    6.995123
    33  C    6.034932
    34  C    6.030860
    35  C    6.001770
    36  C    6.033116
    37  C    5.994890
    38  C    6.013279
    39  O    8.031301
    40  C    6.005359
    41  C    6.002734
    42  O    8.003226
    43  O    8.001629
    44  C    5.999053
    45  H    0.984855
    46  H    0.996243
    47  H    1.017699
    48  H    0.999019
    49  H    0.998354
    50  H    0.982761
    51  H    1.000550
    52  H    0.996252
    53  H    1.013390
    54  H    0.993959
    55  H    0.996312
    56  H    1.006011
    57  H    0.983310
    58  H    0.978992
    59  H    0.980124
    60  H    0.985815
    61  H    0.988690
    62  H    0.996081
    63  H    0.998223
    64  H    1.003129
    65  H    1.000172
    66  H    0.989276
    67  H    1.003137
    68  H    1.010619
    69  H    0.992939
    70  H    0.996879
    71  H    1.015151
    72  H    1.007307
    73  H    1.019841
    74  H    1.021201
    75  H    1.018514
    76  H    1.008256
    77  H    0.998878
    78  H    1.004967
    79  H    1.004495
    80  Mg  11.999828
    81  C    6.002739
    82  C    5.998816
    83  C    5.996389
    84  C    6.000768
    85  N    7.000673
    86  C    5.996567
    87  C    6.001075
    88  C    5.998496
    89  C    6.003550
    90  C    5.999441
    91  C    6.000216
    92  C    5.999914
    93  H    1.001273
    94  N    6.998953
    95  C    6.004628
    96  C    6.002254
    97  C    6.001301
    98  C    6.004790
    99  C    5.999475
   100  C    6.001465
   101  O    8.002386
   102  C    5.999422
   103  N    6.999650
   104  C    6.004628
   105  C    5.998074
   106  C    6.001350
   107  C    5.996521
   108  C    5.999717
   109  C    6.000590
   110  C    6.000202
   111  N    7.000504
   112  C    5.996004
   113  C    5.996632
   114  C    5.999219
   115  C    5.996560
   116  C    6.000388
   117  C    5.998165
   118  O    7.996276
   119  C    5.999989
   120  C    5.999231
   121  O    7.999157
   122  O    8.000595
   123  C    6.000222
   124  H    1.001820
   125  H    1.000538
   126  H    0.998306
   127  H    0.999982
   128  H    1.001294
   129  H    1.001474
   130  H    0.999896
   131  H    1.000885
   132  H    1.000097
   133  H    0.999841
   134  H    0.999086
   135  H    0.999649
   136  H    1.002208
   137  H    1.002167
   138  H    1.001955
   139  H    1.000833
   140  H    1.000945
   141  H    1.001524
   142  H    1.000287
   143  H    0.999803
   144  H    1.000820
   145  H    0.999661
   146  H    1.000531
   147  H    0.999775
   148  H    0.998634
   149  H    0.999868
   150  H    0.999176
   151  H    1.000023
   152  H    0.997726
   153  H    0.997944
   154  H    0.997329
   155  H    0.998981
   156  H    0.999643
   157  H    0.999524
   158  H    0.999680
 Sum of Mulliken charges = 624.00000

 Dipole moment (field-independent basis, Debye):
    X=              0.7423    Y=             -8.9893    Z=              3.8315  Tot=              9.8000
 Quadrupole moment (field-independent basis, Debye-Ang):
   XX=             -5.5380   YY=             -4.2608   ZZ=              1.4320
   XY=             99.8253   XZ=            -34.0576   YZ=             -0.2638

 Normal termination of Gaussian 16 at Wed Sep 22 11:32:28 2021.
