 Gaussian 16, Revision A.03,
 Gaussian 16:  ES64L-G16RevA.03 25-Dec-2016

 -----------------------------------
 #p cam-b3lyp/Def2SVP td=(nstates=5)
 -----------------------------------

 --------------------------------
 TDDFT excited states in gaussian
 --------------------------------
 Symbolic Z-matrix:
 Charge =  0 Multiplicity = 1

                         Standard orientation:
 ---------------------------------------------------------------------
 Center     Atomic      Atomic             Coordinates (Angstroms)
 Number     Number       Type             X           Y           Z
 ---------------------------------------------------------------------
      1         12           0      -10.082725    0.195676    0.817249
      2          6           0       -9.150805   -1.898765   -2.048141
      3          6           0       -7.196934   -1.035050    2.279167
      4          6           0      -10.239741    2.689253    2.798988
      5          6           0      -12.686885    1.467154   -1.307243
      6          7           0       -8.253622   -1.258292    0.045800
      7          6           0       -8.104970   -1.984055   -1.115850
      8          6           0       -6.707087   -2.704168   -1.104404
      9          6           0       -6.252473   -2.640831    0.364105
     10          6           0       -7.281278   -1.592189    0.934879
     11          6           0       -6.308998   -3.965450    1.233056
     12          6           0       -5.683942   -2.110803   -2.132499
     13          6           0       -4.803644   -3.106593   -2.856577
     14          1           0       -3.334714   -3.245243   -2.347085
     15          7           0       -8.984421    0.690975    2.387508
     16          6           0       -7.908964    0.033248    2.919779
     17          6           0       -7.428888    0.750018    4.132858
     18          6           0       -8.311784    1.853719    4.261703
     19          6           0       -9.199913    1.800599    3.103106
     20          6           0       -6.198134    0.406902    4.987978
     21          6           0       -8.225869    3.035031    5.232399
     22          8           0       -7.347438    2.994388    6.089614
     23          6           0       -9.096628    4.143617    5.234301
     24          7           0      -11.156428    2.009015    0.576668
     25          6           0      -11.192197    2.745162    1.744279
     26          6           0      -12.317350    3.841244    1.596134
     27          6           0      -12.865412    3.613153    0.141820
     28          6           0      -12.267846    2.220383   -0.171250
     29          6           0      -13.426054    3.819829    2.683948
     30          6           0      -12.554801    4.694123   -0.970543
     31          6           0      -13.412794    5.970974   -0.998071
     32          7           0      -10.876188   -0.114379   -1.228284
     33          6           0      -11.997117    0.386600   -1.859564
     34          6           0      -12.265085   -0.296041   -3.102144
     35          6           0      -11.164932   -1.226827   -3.210228
     36          6           0      -10.275785   -1.081056   -2.088711
     37          6           0      -13.395906    0.044955   -4.022982
     38          6           0      -10.591545   -2.173339   -4.058550
     39          8           0      -10.854764   -2.483053   -5.212653
     40          6           0       -9.217986   -2.561912   -3.438825
     41          6           0       -9.276752   -4.065306   -3.300523
     42          8           0       -8.380416   -4.818822   -3.688317
     43          8           0      -10.392501   -4.578049   -2.523853
     44          6           0      -10.200481   -5.971258   -2.124327
     45          1           0       -6.333393   -1.460148    2.794003
     46          1           0      -10.528322    3.485341    3.488489
     47          1           0      -13.563356    1.899838   -1.793931
     48          1           0       -6.869758   -3.773454   -1.246896
     49          1           0       -5.275890   -2.167558    0.466028
     50          1           0       -5.267569   -4.269618    1.335834
     51          1           0       -6.821686   -4.765127    0.699269
     52          1           0       -6.825846   -3.880255    2.188882
     53          1           0       -4.912602   -1.477880   -1.692955
     54          1           0       -6.209000   -1.567808   -2.918650
     55          1           0       -4.867187   -2.870813   -3.918888
     56          1           0       -5.250308   -4.092896   -2.726911
     57          1           0       -6.429783    0.553735    6.043244
     58          1           0       -5.420941    1.065357    4.600196
     59          1           0       -5.934122   -0.645123    4.889007
     60          1           0      -10.088487    3.791866    5.519969
     61          1           0       -9.100688    4.725173    4.312361
     62          1           0       -8.595499    4.793308    5.952665
     63          1           0      -11.940128    4.862975    1.623477
     64          1           0      -13.941445    3.440958    0.145881
     65          1           0      -14.360103    3.700654    2.134729
     66          1           0      -13.415703    4.779247    3.200223
     67          1           0      -13.144957    2.975789    3.314964
     68          1           0      -12.702615    4.144806   -1.900902
     69          1           0      -11.544616    5.088734   -0.859447
     70          1           0      -14.132565    5.744885   -0.210836
     71          1           0      -14.005610    6.029068   -1.912038
     72          1           0      -12.905394    6.915184   -0.801787
     73          1           0      -13.264292    1.100107   -4.259011
     74          1           0      -14.374152    0.003950   -3.544305
     75          1           0      -13.314087   -0.442294   -4.994650
     76          1           0       -8.457560   -2.315202   -4.179511
     77          1           0      -10.844870   -5.919103   -1.245931
     78          1           0       -9.146132   -6.232021   -2.032641
     79          1           0      -10.729960   -6.574993   -2.861490
     80         12           0       10.102710    0.745971   -0.069362
     81          6           0        8.296790   -2.105747    1.138664
     82          6           0        7.066692    2.293604   -0.597530
     83          6           0       11.732845    3.042363   -1.725998
     84          6           0       12.997053   -1.112039    0.356086
     85          7           0        7.852243    0.026547   -0.013538
     86          6           0        7.449913   -1.115605    0.624222
     87          6           0        5.925130   -1.041727    0.905256
     88          6           0        5.501451    0.357545    0.290565
     89          6           0        6.869502    0.974990   -0.177587
     90          6           0        4.462275    0.356991   -0.908312
     91          6           0        5.522979   -1.151952    2.400226
     92          6           0        4.379564   -2.037371    2.747631
     93          1           0        3.301449   -2.517221    1.702355
     94          7           0        9.498560    2.488761   -1.075933
     95          6           0        8.223752    3.054295   -1.081837
     96          6           0        8.255635    4.290706   -1.886429
     97          6           0        9.658322    4.564388   -2.117911
     98          6           0       10.363980    3.349622   -1.647948
     99          6           0        7.068850    5.114038   -2.286279
    100          6           0       10.363862    5.789089   -2.746531
    101          8           0       11.577690    6.057161   -2.623854
    102          6           0        9.512728    6.804223   -3.397030
    103          7           0       12.014647    0.877977   -0.629923
    104          6           0       12.427346    1.946791   -1.394821
    105          6           0       13.976495    1.991512   -1.506945
    106          6           0       14.381219    0.826509   -0.499045
    107          6           0       13.051809    0.149099   -0.214943
    108          6           0       14.627508    1.841500   -2.942197
    109          6           0       15.071071    1.237590    0.792063
    110          6           0       16.530852    0.762869    0.949377
    111          7           0       10.612856   -1.122726    0.777147
    112          6           0       11.833813   -1.750640    0.848739
    113          6           0       11.672182   -3.100500    1.404639
    114          6           0       10.305404   -3.230144    1.576351
    115          6           0        9.700885   -2.015031    1.183982
    116          6           0       12.707888   -4.145654    1.658163
    117          6           0        9.333721   -4.147098    2.053563
    118          8           0        9.435505   -5.271807    2.621184
    119          6           0        8.040105   -3.496840    1.799610
    120          6           0        7.140235   -4.418081    1.021181
    121          8           0        7.282279   -4.716428   -0.115237
    122          8           0        6.113032   -4.797912    1.780819
    123          6           0        5.308403   -5.898099    1.370131
    124          1           0        6.151575    2.851413   -0.807740
    125          1           0       12.411478    3.746975   -2.213026
    126          1           0       13.904099   -1.716100    0.412694
    127          1           0        5.481981   -1.873325    0.356131
    128          1           0        5.094929    0.998071    1.072654
    129          1           0        3.997016   -0.604824   -1.122239
    130          1           0        5.026137    0.599556   -1.810225
    131          1           0        3.705114    1.126828   -0.756395
    132          1           0        5.234560   -0.193335    2.833047
    133          1           0        6.327829   -1.536803    3.025829
    134          1           0        3.736959   -1.539039    3.474091
    135          1           0        4.794698   -2.932791    3.209389
    136          1           0        7.068020    5.245271   -3.368132
    137          1           0        7.201085    6.087969   -1.815023
    138          1           0        6.150116    4.740748   -1.832678
    139          1           0        9.022320    6.325507   -4.244691
    140          1           0       10.204812    7.541135   -3.803840
    141          1           0        8.880484    7.329156   -2.681436
    142          1           0       14.269741    2.944337   -1.065072
    143          1           0       15.057579    0.165635   -1.041065
    144          1           0       13.849534    1.731605   -3.696849
    145          1           0       15.390569    1.063517   -2.987494
    146          1           0       15.198321    2.750919   -3.130572
    147          1           0       14.525187    1.054554    1.717703
    148          1           0       15.140008    2.324758    0.774553
    149          1           0       16.818240    0.361637    1.921036
    150          1           0       17.150129    1.660253    0.944888
    151          1           0       16.864952    0.024436    0.221798
    152          1           0       13.718371   -3.736869    1.685426
    153          1           0       12.770787   -4.822692    0.806368
    154          1           0       12.364599   -4.715878    2.521265
    155          1           0        7.609008   -3.301711    2.781186
    156          1           0        5.906583   -6.793303    1.545862
    157          1           0        5.147861   -5.883052    0.292021
    158          1           0        4.409098   -5.978610    1.981339
 ---------------------------------------------------------------------

 SCF Done:  E(RCAM-B3LYP) =  -4069.75629711     A.U. after   17 cycles

 Excitation energies and oscillator strengths:

 Excited State   1:      Singlet-A      1.7199 eV  720.88 nm  f=0.4006  <S**2>=0.000
     310 -> 316       -0.17602
     312 -> 313        0.68553
     310 <- 316       -0.10576
 This state for optimization and/or second-order correction.
 Total Energy, E(TD-HF/TD-DFT) =  -4069.69309225
 Copying the excited state density for this state as the 1-particle RhoCI density.

 Excited State   2:      Singlet-A      1.7219 eV  720.05 nm  f=0.3693  <S**2>=0.000
     309 -> 315       -0.19647
     311 -> 314        0.67787
     309 <- 315       -0.11014

 Excited State   3:      Singlet-A      2.2102 eV  560.97 nm  f=0.1346  <S**2>=0.000
     310 -> 313        0.64974
     312 -> 316        0.26610

 Excited State   4:      Singlet-A      2.2415 eV  553.14 nm  f=0.0682  <S**2>=0.000
     309 -> 314        0.61565
     311 -> 315        0.33035

 Excited State   5:      Singlet-A      2.8982 eV  427.80 nm  f=0.0000  <S**2>=0.000
     312 -> 314        0.70698

 The electronic state is 1-A.
 Alpha  occ. eigenvalues --  -46.90855 -46.88911 -19.25016 -19.23787 -19.20162
 Alpha  occ. eigenvalues --  -19.19661 -19.19029 -19.18893 -19.18544 -19.17952
 Alpha  occ. eigenvalues --  -14.42810 -14.42108 -14.42058 -14.41619 -14.40906
 Alpha  occ. eigenvalues --  -14.39696 -14.39558 -14.39231 -10.39464 -10.39056
 Alpha  occ. eigenvalues --  -10.35037 -10.34956 -10.34712 -10.33591 -10.32401
 Alpha  occ. eigenvalues --  -10.31978 -10.31704 -10.31683 -10.31621 -10.31527
 Alpha  occ. eigenvalues --  -10.31458 -10.31103 -10.31026 -10.30960 -10.30845
 Alpha  occ. eigenvalues --  -10.30548 -10.30159 -10.29752 -10.29698 -10.29549
 Alpha  occ. eigenvalues --  -10.29490 -10.29331 -10.29298 -10.29016 -10.29005
 Alpha  occ. eigenvalues --  -10.28933 -10.28757 -10.28750 -10.28623 -10.28489
 Alpha  occ. eigenvalues --  -10.28437 -10.28424 -10.28408 -10.28371 -10.28308
 Alpha  occ. eigenvalues --  -10.28277 -10.28204 -10.28149 -10.28114 -10.27567
 Alpha  occ. eigenvalues --  -10.27560 -10.27511 -10.27434 -10.27184 -10.27077
 Alpha  occ. eigenvalues --  -10.27053 -10.26992 -10.26944 -10.26935 -10.26911
 Alpha  occ. eigenvalues --  -10.26796 -10.26773 -10.26731 -10.26727 -10.26469
 Alpha  occ. eigenvalues --  -10.26339 -10.26262 -10.26204 -10.25926 -10.25924
 Alpha  occ. eigenvalues --  -10.25887 -10.25574 -10.25446 -10.25326 -10.25192
 Alpha  occ. eigenvalues --  -10.25182  -3.19266  -3.17489  -1.94111  -1.93773
 Alpha  occ. eigenvalues --   -1.93531  -1.92371  -1.91959  -1.91788  -1.18632
 Alpha  occ. eigenvalues --   -1.14018  -1.10563  -1.09719  -1.09065  -1.08304
 Alpha  occ. eigenvalues --   -1.08087  -1.06420  -1.05127  -1.04832  -1.03770
 Alpha  occ. eigenvalues --   -1.03460  -1.03438  -1.02534  -1.01786  -1.01176
 Alpha  occ. eigenvalues --   -0.93576  -0.92978  -0.89128  -0.89104  -0.89039
 Alpha  occ. eigenvalues --   -0.88600  -0.88568  -0.88369  -0.87741  -0.87093
 Alpha  occ. eigenvalues --   -0.87027  -0.86881  -0.86289  -0.86023  -0.85118
 Alpha  occ. eigenvalues --   -0.84562  -0.83965  -0.83793  -0.83534  -0.82631
 Alpha  occ. eigenvalues --   -0.82628  -0.82063  -0.81722  -0.81247  -0.80509
 Alpha  occ. eigenvalues --   -0.79968  -0.78359  -0.78304  -0.77715  -0.77449
 Alpha  occ. eigenvalues --   -0.77165  -0.77141  -0.76366  -0.75915  -0.75365
 Alpha  occ. eigenvalues --   -0.75205  -0.73177  -0.72934  -0.72020  -0.71495
 Alpha  occ. eigenvalues --   -0.69403  -0.69236  -0.68976  -0.68693  -0.67814
 Alpha  occ. eigenvalues --   -0.67514  -0.67116  -0.66258  -0.65923  -0.65672
 Alpha  occ. eigenvalues --   -0.65473  -0.65146  -0.64935  -0.64853  -0.64480
 Alpha  occ. eigenvalues --   -0.64121  -0.63041  -0.61983  -0.60485  -0.60338
 Alpha  occ. eigenvalues --   -0.59908  -0.59865  -0.59370  -0.59338  -0.59145
 Alpha  occ. eigenvalues --   -0.59018  -0.58215  -0.57761  -0.57260  -0.57099
 Alpha  occ. eigenvalues --   -0.56848  -0.56505  -0.56112  -0.55705  -0.55190
 Alpha  occ. eigenvalues --   -0.54917  -0.54875  -0.54435  -0.54029  -0.53876
 Alpha  occ. eigenvalues --   -0.53755  -0.53649  -0.53456  -0.53387  -0.53257
 Alpha  occ. eigenvalues --   -0.53022  -0.52989  -0.52797  -0.52583  -0.52415
 Alpha  occ. eigenvalues --   -0.52091  -0.51837  -0.51658  -0.51580  -0.51542
 Alpha  occ. eigenvalues --   -0.51491  -0.51119  -0.51115  -0.50711  -0.50079
 Alpha  occ. eigenvalues --   -0.50038  -0.49981  -0.49959  -0.49882  -0.49625
 Alpha  occ. eigenvalues --   -0.49261  -0.49217  -0.49095  -0.49048  -0.48761
 Alpha  occ. eigenvalues --   -0.48735  -0.48580  -0.48486  -0.48334  -0.48252
 Alpha  occ. eigenvalues --   -0.48242  -0.48056  -0.47829  -0.47708  -0.47414
 Alpha  occ. eigenvalues --   -0.47380  -0.46916  -0.46830  -0.46778  -0.46629
 Alpha  occ. eigenvalues --   -0.46237  -0.46230  -0.46116  -0.46055  -0.46002
 Alpha  occ. eigenvalues --   -0.45812  -0.45460  -0.45282  -0.45068  -0.44791
 Alpha  occ. eigenvalues --   -0.44780  -0.44567  -0.44545  -0.44452  -0.44429
 Alpha  occ. eigenvalues --   -0.44209  -0.43894  -0.43689  -0.43654  -0.43439
 Alpha  occ. eigenvalues --   -0.43287  -0.43037  -0.42685  -0.42662  -0.42618
 Alpha  occ. eigenvalues --   -0.42543  -0.42404  -0.42164  -0.42164  -0.42020
 Alpha  occ. eigenvalues --   -0.41872  -0.41625  -0.41588  -0.41444  -0.41442
 Alpha  occ. eigenvalues --   -0.41176  -0.40968  -0.40357  -0.40316  -0.40269
 Alpha  occ. eigenvalues --   -0.40089  -0.40051  -0.39685  -0.39409  -0.39150
 Alpha  occ. eigenvalues --   -0.38954  -0.38186  -0.37957  -0.37911  -0.37622
 Alpha  occ. eigenvalues --   -0.37266  -0.36952  -0.36545  -0.36441  -0.36305
 Alpha  occ. eigenvalues --   -0.35852  -0.35440  -0.34687  -0.34567  -0.34129
 Alpha  occ. eigenvalues --   -0.33954  -0.33286  -0.32906  -0.31855  -0.31601
 Alpha  occ. eigenvalues --   -0.31498  -0.31443  -0.31140  -0.30758  -0.30599
 Alpha  occ. eigenvalues --   -0.30241  -0.29481  -0.28833  -0.24564  -0.24115
 Alpha  occ. eigenvalues --   -0.21552  -0.21306
 Alpha virt. eigenvalues --   -0.08937  -0.08885  -0.02797  -0.01474  -0.00459
 Alpha virt. eigenvalues --   -0.00191   0.00493   0.01929   0.02073   0.02362
 Alpha virt. eigenvalues --    0.04280   0.04740   0.05218   0.05371   0.06114

 Mulliken charges:
               1
     1  Mg   0.834509
     2  C   -0.008340
     3  C   -0.051169
     4  C   -0.074912
     5  C   -0.087814
     6  N   -0.224634
     7  C   -0.070902
     8  C    0.059387
     9  C   -0.071565
    10  C   -0.036689
    11  C    0.062154
    12  C    0.059813
    13  C   -0.072119
    14  H    0.007312
    15  N   -0.409428
    16  C    0.147850
    17  C   -0.174612
    18  C   -0.015288
    19  C    0.192030
    20  C    0.144545
    21  C   -0.033390
    22  O   -0.215909
    23  C    0.089287
    24  N   -0.319240
    25  C    0.023036
    26  C   -0.073004
    27  C   -0.047489
    28  C    0.019221
    29  C    0.084305
    30  C    0.042795
    31  C    0.012914
    32  N   -0.344615
    33  C    0.143232
    34  C   -0.150900
    35  C    0.030943
    36  C    0.129309
    37  C    0.139479
    38  C   -0.006391
    39  O   -0.179545
    40  C   -0.020631
    41  C    0.217735
    42  O   -0.226294
    43  O   -0.390007
    44  C    0.179587
    45  H   -0.026637
    46  H   -0.046879
    47  H   -0.027630
    48  H    0.012375
    49  H    0.017372
    50  H    0.026035
    51  H    0.015510
    52  H    0.028985
    53  H    0.024702
    54  H    0.019100
    55  H    0.034595
    56  H    0.030519
    57  H    0.044889
    58  H    0.044845
    59  H    0.008976
    60  H    0.054206
    61  H    0.041860
    62  H    0.027995
    63  H    0.008419
    64  H   -0.003770
    65  H    0.016996
    66  H    0.020106
    67  H    0.021317
    68  H    0.004922
    69  H    0.011077
    70  H   -0.004413
    71  H    0.017601
    72  H    0.028203
    73  H    0.012512
    74  H    0.025202
    75  H    0.037789
    76  H    0.040563
    77  H    0.031564
    78  H    0.052771
    79  H    0.033763
    80  Mg   0.831179
    81  C   -0.003484
    82  C   -0.022618
    83  C   -0.061373
    84  C   -0.094120
    85  N   -0.252756
    86  C   -0.054119
    87  C    0.020954
    88  C   -0.061115
    89  C    0.018288
    90  C    0.057319
    91  C    0.048899
    92  C   -0.081084
    93  H   -0.000202
    94  N   -0.364193
    95  C    0.090967
    96  C   -0.170448
    97  C   -0.041440
    98  C    0.129321
    99  C    0.140614
   100  C    0.009667
   101  O   -0.229727
   102  C    0.054867
   103  N   -0.351658
   104  C    0.076964
   105  C   -0.074964
   106  C   -0.035835
   107  C    0.084636
   108  C    0.075268
   109  C    0.058339
   110  C   -0.010527
   111  N   -0.321537
   112  C    0.100457
   113  C   -0.161295
   114  C   -0.007616
   115  C    0.104567
   116  C    0.130293
   117  C    0.045006
   118  O   -0.216307
   119  C    0.039273
   120  C    0.154784
   121  O   -0.173418
   122  O   -0.300205
   123  C    0.179715
   124  H   -0.038459
   125  H   -0.005550
   126  H   -0.029149
   127  H    0.021662
   128  H    0.016200
   129  H    0.019281
   130  H    0.019695
   131  H    0.018142
   132  H    0.008957
   133  H    0.007909
   134  H    0.021903
   135  H    0.037245
   136  H    0.036521
   137  H    0.019914
   138  H    0.011607
   139  H    0.032410
   140  H    0.020493
   141  H    0.044997
   142  H    0.021375
   143  H    0.000830
   144  H    0.029784
   145  H    0.014128
   146  H    0.016460
   147  H    0.016380
   148  H   -0.002382
   149  H    0.007259
   150  H    0.010574
   151  H    0.017289
   152  H    0.008820
   153  H    0.034238
   154  H    0.049434
   155  H    0.040092
   156  H    0.029178
   157  H    0.039025
   158  H    0.042403
 Sum of Mulliken charges =  -0.00000

 Dipole moment (field-independent basis, Debye):
    X=             -3.6616    Y=              4.7759    Z=              5.2556  Tot=              7.9898
 Quadrupole moment (field-independent basis, Debye-Ang):
   XX=           -455.1712   YY=           -523.0697   ZZ=           -560.0657
   XY=            -32.7043   XZ=            -41.3012   YZ=            -22.5899

 Normal termination of Gaussian 16 at Thu Sep  2 15:18:15 2021.
