 Gaussian 16, Revision A.03,
 Gaussian 16:  ES64L-G16RevA.03 25-Dec-2016

 -----------------------------------
 #p cam-b3lyp/Def2SVP td=(nstates=5)
 -----------------------------------

 --------------------------------
 TDDFT excited states in gaussian
 --------------------------------
 Symbolic Z-matrix:
 Charge =  0 Multiplicity = 1

                         Standard orientation:
 ---------------------------------------------------------------------
 Center     Atomic      Atomic             Coordinates (Angstroms)
 Number     Number       Type             X           Y           Z
 ---------------------------------------------------------------------
      1         12           0      -23.417147    0.508359    0.231405
      2          6           0      -22.475730   -2.334552   -1.545987
      3          6           0      -22.177356    2.474584   -2.304680
      4          6           0      -24.137886    3.157017    2.198001
      5          6           0      -24.300344   -1.625132    2.958653
      6          7           0      -22.356463    0.081487   -1.619061
      7          6           0      -22.099301   -1.134003   -2.173928
      8          6           0      -21.502145   -0.992856   -3.580046
      9          6           0      -21.304470    0.583970   -3.684351
     10          6           0      -22.023669    1.079032   -2.425165
     11          6           0      -19.832510    0.978556   -3.682793
     12          6           0      -22.432536   -1.427244   -4.768039
     13          6           0      -21.764804   -1.912770   -6.028324
     14          1           0      -20.340446   -1.652387   -6.238403
     15          7           0      -23.271948    2.496718   -0.059566
     16          6           0      -22.712852    3.117281   -1.194595
     17          6           0      -22.968558    4.526352   -1.049082
     18          6           0      -23.578346    4.771177    0.207303
     19          6           0      -23.688948    3.441306    0.855764
     20          6           0      -22.425831    5.569142   -2.002722
     21          6           0      -24.073118    6.013194    0.821369
     22          8           0      -24.393396    6.097808    1.987828
     23          6           0      -24.056483    7.361495    0.013708
     24          7           0      -24.298786    0.780754    2.274746
     25          6           0      -24.453827    1.950207    2.819767
     26          6           0      -24.984925    1.832496    4.280117
     27          6           0      -25.115106    0.338935    4.517389
     28          6           0      -24.492953   -0.265959    3.207636
     29          6           0      -24.049529    2.657936    5.283561
     30          6           0      -26.563101   -0.103596    4.816331
     31          6           0      -26.971718   -0.254915    6.329284
     32          7           0      -23.654877   -1.473258    0.575637
     33          6           0      -24.018619   -2.212208    1.728733
     34          6           0      -23.993258   -3.602367    1.475496
     35          6           0      -23.297358   -3.669976    0.194352
     36          6           0      -23.172339   -2.331390   -0.275755
     37          6           0      -24.227284   -4.699779    2.497526
     38          6           0      -22.743545   -4.625125   -0.692879
     39          8           0      -22.710591   -5.849049   -0.668501
     40          6           0      -22.226003   -3.720686   -1.994838
     41          6           0      -20.794938   -4.120488   -2.204068
     42          8           0      -19.905156   -4.005792   -1.354607
     43          8           0      -20.585066   -4.780351   -3.451222
     44          6           0      -19.181419   -5.220157   -3.726192
     45          1           0      -21.762492    3.035601   -3.145540
     46          1           0      -24.166121    4.048015    2.828126
     47          1           0      -24.604341   -2.324082    3.740191
     48          1           0      -20.549742   -1.523020   -3.558786
     49          1           0      -21.728353    1.005669   -4.595627
     50          1           0      -19.192874    0.117603   -3.875133
     51          1           0      -19.540977    1.517427   -2.780869
     52          1           0      -19.539834    1.589831   -4.536513
     53          1           0      -23.083706   -0.584461   -4.997340
     54          1           0      -23.124798   -2.165605   -4.362853
     55          1           0      -22.234018   -1.383427   -6.857329
     56          1           0      -21.907766   -2.990017   -6.113566
     57          1           0      -21.671352    6.212965   -1.550794
     58          1           0      -23.269048    6.145032   -2.386376
     59          1           0      -21.903914    5.190585   -2.881436
     60          1           0      -23.036977    7.740005    0.091882
     61          1           0      -24.648950    8.115853    0.531601
     62          1           0      -24.286822    7.188957   -1.036907
     63          1           0      -25.952383    2.332105    4.226580
     64          1           0      -24.423767   -0.011090    5.282415
     65          1           0      -23.672579    2.011348    6.075863
     66          1           0      -24.581988    3.428760    5.841063
     67          1           0      -23.228569    3.011938    4.658656
     68          1           0      -26.685322   -1.073404    4.332723
     69          1           0      -27.215446    0.604594    4.305219
     70          1           0      -26.683838   -1.256997    6.649134
     71          1           0      -27.998006   -0.034811    6.623824
     72          1           0      -26.254940    0.422002    6.792937
     73          1           0      -25.311666   -4.807146    2.499694
     74          1           0      -23.891617   -4.398658    3.489169
     75          1           0      -23.620596   -5.599982    2.391139
     76          1           0      -22.868121   -3.938045   -2.849283
     77          1           0      -18.846355   -5.966232   -3.006533
     78          1           0      -18.398624   -4.462285   -3.767065
     79          1           0      -19.344394   -5.711364   -4.685490
     80         12           0       23.463086    0.496251   -0.727633
     81          6           0       22.422928   -2.827745    0.011462
     82          6           0       20.277961    1.240048   -1.744735
     83          6           0       24.215483    3.900945   -0.429275
     84          6           0       26.519586   -0.177011    0.870176
     85          7           0       21.477324   -0.722638   -0.576193
     86          6           0       21.345134   -2.056305   -0.488973
     87          6           0       20.033433   -2.474069   -1.128096
     88          6           0       19.284901   -1.152832   -1.644785
     89          6           0       20.531499   -0.155919   -1.419561
     90          6           0       18.901235   -1.346462   -3.129065
     91          6           0       19.182801   -3.267735   -0.149522
     92          6           0       19.206023   -2.808933    1.327892
     93          1           0       17.934214   -2.093432    1.859720
     94          7           0       22.407804    2.360611   -1.133083
     95          6           0       21.088040    2.384486   -1.528484
     96          6           0       20.807504    3.746187   -1.860214
     97          6           0       21.885423    4.600470   -1.410853
     98          6           0       22.944552    3.645622   -0.996985
     99          6           0       19.453300    4.202085   -2.352145
    100          6           0       21.875304    6.121781   -1.253030
    101          8           0       20.861815    6.751156   -1.488055
    102          6           0       23.011298    6.877821   -0.817939
    103          7           0       25.077810    1.706891    0.191050
    104          6           0       25.200038    3.016735    0.034301
    105          6           0       26.456175    3.585977    0.673524
    106          6           0       26.994104    2.282539    1.406525
    107          6           0       26.219515    1.190268    0.761817
    108          6           0       27.502037    4.198281   -0.380764
    109          6           0       26.829448    2.423010    2.989676
    110          6           0       28.037561    2.546146    3.874444
    111          7           0       24.390777   -1.132885   -0.003260
    112          6           0       25.696239   -1.285249    0.506689
    113          6           0       25.988147   -2.706222    0.772513
    114          6           0       24.739867   -3.290789    0.559354
    115          6           0       23.736575   -2.321118    0.208736
    116          6           0       27.356044   -3.403466    1.089797
    117          6           0       24.058166   -4.587872    0.616248
    118          8           0       24.443305   -5.739013    0.879776
    119          6           0       22.553287   -4.361593    0.253831
    120          6           0       21.921132   -4.780168    1.536252
    121          8           0       22.143852   -4.291241    2.614092
    122          8           0       21.168795   -5.859619    1.342621
    123          6           0       20.361636   -6.411673    2.486151
    124          1           0       19.378181    1.408956   -2.339732
    125          1           0       24.609076    4.915708   -0.343201
    126          1           0       27.442087   -0.254791    1.450227
    127          1           0       20.438266   -3.120869   -1.906500
    128          1           0       18.417101   -0.898152   -1.035793
    129          1           0       17.818179   -1.259012   -3.212977
    130          1           0       19.156564   -2.323980   -3.538981
    131          1           0       19.368433   -0.521160   -3.665708
    132          1           0       19.494716   -4.312135   -0.160216
    133          1           0       18.129308   -3.210270   -0.424840
    134          1           0       19.919101   -2.033362    1.607028
    135          1           0       19.392059   -3.723441    1.891184
    136          1           0       18.734532    3.382702   -2.379294
    137          1           0       19.604276    4.713156   -3.303613
    138          1           0       19.127739    5.009750   -1.697498
    139          1           0       23.346342    6.675580    0.199610
    140          1           0       22.775035    7.940701   -0.864860
    141          1           0       23.788950    6.561136   -1.513815
    142          1           0       26.262969    4.301699    1.472194
    143          1           0       28.066962    2.376640    1.237575
    144          1           0       27.076101    4.152420   -1.383476
    145          1           0       28.383916    3.557540   -0.366528
    146          1           0       27.865487    5.204298   -0.165556
    147          1           0       26.391140    1.523478    3.422068
    148          1           0       26.189731    3.267508    3.242275
    149          1           0       28.310027    1.620323    4.381178
    150          1           0       27.658613    3.274017    4.592628
    151          1           0       28.874549    3.089132    3.435136
    152          1           0       27.605139   -3.183717    2.127591
    153          1           0       28.077970   -3.036718    0.359941
    154          1           0       27.211936   -4.482222    1.032419
    155          1           0       22.357623   -4.989964   -0.615833
    156          1           0       20.935054   -7.087582    3.120941
    157          1           0       19.489021   -6.957379    2.124896
    158          1           0       20.025724   -5.532399    3.035794
 ---------------------------------------------------------------------

 SCF Done:  E(RCAM-B3LYP) =  -4069.80095770     A.U. after   19 cycles

 Excitation energies and oscillator strengths:

 Excited State   1:      Singlet-A      1.6890 eV  734.08 nm  f=0.3474  <S**2>=0.000
     309 -> 315        0.20075
     312 -> 314        0.68046
     309 <- 315        0.11491
 This state for optimization and/or second-order correction.
 Total Energy, E(TD-HF/TD-DFT) =  -4069.73888946
 Copying the excited state density for this state as the 1-particle RhoCI density.

 Excited State   2:      Singlet-A      1.7265 eV  718.13 nm  f=0.3780  <S**2>=0.000
     310 -> 316       -0.17541
     311 -> 313        0.68641
     310 <- 316       -0.10552

 Excited State   3:      Singlet-A      2.1999 eV  563.59 nm  f=0.0721  <S**2>=0.000
     309 -> 314        0.61855
     312 -> 315       -0.32994

 Excited State   4:      Singlet-A      2.2227 eV  557.82 nm  f=0.1464  <S**2>=0.000
     310 -> 313        0.65067
     311 -> 316        0.26116

 Excited State   5:      Singlet-A      3.1366 eV  395.28 nm  f=0.0000  <S**2>=0.000
     312 -> 313        0.70710

 The electronic state is 1-A.
 Alpha  occ. eigenvalues --  -46.90225 -46.87987 -19.25087 -19.24152 -19.19453
 Alpha  occ. eigenvalues --  -19.19271 -19.18868 -19.18864 -19.18221 -19.18083
 Alpha  occ. eigenvalues --  -14.42687 -14.42443 -14.41987 -14.41650 -14.40170
 Alpha  occ. eigenvalues --  -14.40152 -14.39552 -14.39352 -10.39066 -10.38738
 Alpha  occ. eigenvalues --  -10.35472 -10.34981 -10.34339 -10.34336 -10.32468
 Alpha  occ. eigenvalues --  -10.32019 -10.31699 -10.31610 -10.31402 -10.31190
 Alpha  occ. eigenvalues --  -10.31158 -10.30992 -10.30941 -10.30853 -10.30811
 Alpha  occ. eigenvalues --  -10.30751 -10.30717 -10.30693 -10.29967 -10.29862
 Alpha  occ. eigenvalues --  -10.29700 -10.28900 -10.28868 -10.28867 -10.28831
 Alpha  occ. eigenvalues --  -10.28740 -10.28489 -10.28413 -10.28395 -10.28166
 Alpha  occ. eigenvalues --  -10.28111 -10.28105 -10.28077 -10.28049 -10.27936
 Alpha  occ. eigenvalues --  -10.27862 -10.27848 -10.27771 -10.27770 -10.27758
 Alpha  occ. eigenvalues --  -10.27682 -10.27614 -10.27503 -10.27477 -10.27452
 Alpha  occ. eigenvalues --  -10.27027 -10.27000 -10.26924 -10.26882 -10.26811
 Alpha  occ. eigenvalues --  -10.26810 -10.26604 -10.26426 -10.26366 -10.26346
 Alpha  occ. eigenvalues --  -10.26328 -10.26204 -10.25994 -10.25862 -10.25854
 Alpha  occ. eigenvalues --  -10.25804 -10.25798 -10.25651 -10.25529 -10.25063
 Alpha  occ. eigenvalues --  -10.24533  -3.18531  -3.16683  -1.93395  -1.93018
 Alpha  occ. eigenvalues --   -1.92808  -1.91594  -1.91131  -1.91001  -1.17074
 Alpha  occ. eigenvalues --   -1.13448  -1.11127  -1.10228  -1.08829  -1.08627
 Alpha  occ. eigenvalues --   -1.07714  -1.05827  -1.05198  -1.04613  -1.03955
 Alpha  occ. eigenvalues --   -1.03690  -1.03383  -1.02427  -1.02410  -1.01614
 Alpha  occ. eigenvalues --   -0.92107  -0.91957  -0.89298  -0.88981  -0.88963
 Alpha  occ. eigenvalues --   -0.88830  -0.88414  -0.88265  -0.87771  -0.87491
 Alpha  occ. eigenvalues --   -0.87100  -0.86271  -0.86131  -0.85370  -0.84699
 Alpha  occ. eigenvalues --   -0.84337  -0.84056  -0.82993  -0.82865  -0.82630
 Alpha  occ. eigenvalues --   -0.82210  -0.81500  -0.81105  -0.80397  -0.80266
 Alpha  occ. eigenvalues --   -0.80034  -0.78795  -0.77912  -0.77359  -0.77277
 Alpha  occ. eigenvalues --   -0.76871  -0.76400  -0.76311  -0.75871  -0.75068
 Alpha  occ. eigenvalues --   -0.74977  -0.73129  -0.72868  -0.71733  -0.71625
 Alpha  occ. eigenvalues --   -0.69573  -0.68982  -0.68912  -0.68538  -0.68131
 Alpha  occ. eigenvalues --   -0.67992  -0.67297  -0.66693  -0.65795  -0.65595
 Alpha  occ. eigenvalues --   -0.65260  -0.65205  -0.64959  -0.64767  -0.64618
 Alpha  occ. eigenvalues --   -0.64042  -0.62428  -0.61403  -0.60357  -0.60296
 Alpha  occ. eigenvalues --   -0.59649  -0.59326  -0.59283  -0.58990  -0.58702
 Alpha  occ. eigenvalues --   -0.58540  -0.57814  -0.57789  -0.57361  -0.57274
 Alpha  occ. eigenvalues --   -0.56327  -0.56268  -0.55853  -0.55046  -0.54982
 Alpha  occ. eigenvalues --   -0.54917  -0.54636  -0.54520  -0.54012  -0.53875
 Alpha  occ. eigenvalues --   -0.53543  -0.53402  -0.53243  -0.53068  -0.52911
 Alpha  occ. eigenvalues --   -0.52628  -0.52502  -0.52499  -0.52379  -0.52265
 Alpha  occ. eigenvalues --   -0.52057  -0.52030  -0.51761  -0.51602  -0.51537
 Alpha  occ. eigenvalues --   -0.51026  -0.50681  -0.50569  -0.50169  -0.50145
 Alpha  occ. eigenvalues --   -0.49878  -0.49813  -0.49699  -0.49614  -0.49520
 Alpha  occ. eigenvalues --   -0.49493  -0.49295  -0.49225  -0.49092  -0.48960
 Alpha  occ. eigenvalues --   -0.48577  -0.48518  -0.48391  -0.48268  -0.48154
 Alpha  occ. eigenvalues --   -0.47808  -0.47663  -0.47507  -0.47313  -0.47224
 Alpha  occ. eigenvalues --   -0.47150  -0.46961  -0.46941  -0.46911  -0.46717
 Alpha  occ. eigenvalues --   -0.46606  -0.46300  -0.45812  -0.45780  -0.45609
 Alpha  occ. eigenvalues --   -0.45317  -0.45190  -0.45105  -0.45082  -0.45057
 Alpha  occ. eigenvalues --   -0.44902  -0.44697  -0.44544  -0.44364  -0.44263
 Alpha  occ. eigenvalues --   -0.44098  -0.43957  -0.43902  -0.43684  -0.43584
 Alpha  occ. eigenvalues --   -0.43382  -0.43221  -0.43027  -0.42895  -0.42893
 Alpha  occ. eigenvalues --   -0.42623  -0.42483  -0.42398  -0.42008  -0.42005
 Alpha  occ. eigenvalues --   -0.41847  -0.41503  -0.41502  -0.41414  -0.41311
 Alpha  occ. eigenvalues --   -0.41294  -0.40867  -0.40825  -0.40272  -0.40128
 Alpha  occ. eigenvalues --   -0.40031  -0.39873  -0.39811  -0.39436  -0.38651
 Alpha  occ. eigenvalues --   -0.38632  -0.37998  -0.37787  -0.37427  -0.37240
 Alpha  occ. eigenvalues --   -0.37118  -0.36994  -0.36755  -0.36391  -0.36170
 Alpha  occ. eigenvalues --   -0.35791  -0.35717  -0.34382  -0.34257  -0.34112
 Alpha  occ. eigenvalues --   -0.33861  -0.33521  -0.33357  -0.31667  -0.31390
 Alpha  occ. eigenvalues --   -0.31082  -0.30752  -0.30687  -0.30517  -0.30283
 Alpha  occ. eigenvalues --   -0.29784  -0.29491  -0.28932  -0.24291  -0.24196
 Alpha  occ. eigenvalues --   -0.21554  -0.21325
 Alpha virt. eigenvalues --   -0.09064  -0.08776  -0.02564  -0.01662   0.00204
 Alpha virt. eigenvalues --    0.00257   0.01022   0.02390   0.02419   0.03735
 Alpha virt. eigenvalues --    0.04701   0.04777   0.05182   0.05200   0.06121

 Mulliken charges:
               1
     1  Mg   0.837741
     2  C   -0.064367
     3  C   -0.101929
     4  C   -0.064635
     5  C   -0.069213
     6  N   -0.258945
     7  C   -0.042796
     8  C    0.004777
     9  C   -0.089139
    10  C    0.049864
    11  C    0.062948
    12  C    0.057706
    13  C   -0.049645
    14  H    0.021455
    15  N   -0.445150
    16  C    0.218506
    17  C   -0.136259
    18  C    0.001389
    19  C    0.123252
    20  C    0.099293
    21  C   -0.029020
    22  O   -0.193689
    23  C    0.055175
    24  N   -0.251927
    25  C    0.025414
    26  C   -0.042221
    27  C    0.006462
    28  C    0.003626
    29  C    0.061044
    30  C    0.040837
    31  C    0.012898
    32  N   -0.354125
    33  C    0.120118
    34  C   -0.140582
    35  C   -0.036380
    36  C    0.156056
    37  C    0.107124
    38  C    0.042558
    39  O   -0.174829
    40  C   -0.012631
    41  C    0.224450
    42  O   -0.232323
    43  O   -0.374603
    44  C    0.182354
    45  H   -0.020859
    46  H    0.005688
    47  H   -0.023864
    48  H    0.019835
    49  H    0.013825
    50  H    0.012091
    51  H    0.027941
    52  H    0.000687
    53  H    0.000796
    54  H    0.001728
    55  H    0.026174
    56  H    0.043843
    57  H    0.040777
    58  H    0.027837
    59  H    0.006502
    60  H    0.030796
    61  H    0.029469
    62  H    0.018266
    63  H    0.021902
    64  H    0.001257
    65  H    0.008343
    66  H    0.023174
    67  H    0.031272
    68  H    0.001439
    69  H    0.002354
    70  H    0.015184
    71  H    0.031747
    72  H    0.007760
    73  H    0.031012
    74  H    0.017753
    75  H    0.040059
    76  H    0.041917
    77  H    0.040471
    78  H    0.036939
    79  H    0.035245
    80  Mg   0.809052
    81  C   -0.024284
    82  C   -0.063372
    83  C   -0.069243
    84  C   -0.046405
    85  N   -0.259847
    86  C   -0.095452
    87  C    0.047070
    88  C   -0.094971
    89  C    0.038568
    90  C    0.067255
    91  C    0.028228
    92  C   -0.086697
    93  H   -0.003181
    94  N   -0.383454
    95  C    0.151024
    96  C   -0.160424
    97  C   -0.041635
    98  C    0.173068
    99  C    0.133634
   100  C   -0.013008
   101  O   -0.204483
   102  C    0.070711
   103  N   -0.255749
   104  C    0.022677
   105  C   -0.100944
   106  C   -0.016301
   107  C    0.028513
   108  C    0.062471
   109  C    0.013448
   110  C    0.006258
   111  N   -0.412706
   112  C    0.143982
   113  C   -0.181406
   114  C    0.017264
   115  C    0.150132
   116  C    0.132505
   117  C    0.023757
   118  O   -0.196808
   119  C    0.022555
   120  C    0.168900
   121  O   -0.207056
   122  O   -0.315699
   123  C    0.170846
   124  H   -0.008644
   125  H   -0.041497
   126  H   -0.025239
   127  H    0.008617
   128  H    0.035949
   129  H    0.010327
   130  H    0.022948
   131  H    0.020731
   132  H    0.017531
   133  H    0.016123
   134  H    0.065841
   135  H    0.027708
   136  H    0.007253
   137  H    0.023903
   138  H    0.038893
   139  H    0.044561
   140  H    0.029490
   141  H    0.034964
   142  H    0.015068
   143  H   -0.005466
   144  H    0.022365
   145  H    0.010549
   146  H    0.024186
   147  H    0.012536
   148  H    0.009687
   149  H    0.031463
   150  H    0.006067
   151  H    0.005303
   152  H    0.031943
   153  H    0.034995
   154  H    0.039162
   155  H    0.037227
   156  H    0.053547
   157  H    0.040967
   158  H    0.052148
 Sum of Mulliken charges =  -0.00000

 Dipole moment (field-independent basis, Debye):
    X=              1.4021    Y=              5.5053    Z=             -3.9626  Tot=              6.9265
 Quadrupole moment (field-independent basis, Debye-Ang):
   XX=           -405.8777   YY=           -560.3019   ZZ=           -480.1906
   XY=            -50.7164   XZ=             15.3336   YZ=             -2.7608

 Normal termination of Gaussian 16 at Thu Sep 16 05:12:40 2021.
