 Gaussian 16, Revision A.03,
 Gaussian 16:  ES64L-G16RevA.03 25-Dec-2016

 ----------------------------------------------------------
 #p cam-b3lyp/Def2SVP td=(nstates=5) density=(transition=1)
 ----------------------------------------------------------

 --------------------------------
 TDDFT excited states in gaussian
 --------------------------------
 Symbolic Z-matrix:
 Charge =  0 Multiplicity = 1

                         Standard orientation:
 ---------------------------------------------------------------------
 Center     Atomic      Atomic             Coordinates (Angstroms)
 Number     Number       Type             X           Y           Z
 ---------------------------------------------------------------------
      1         12           0        0.786632    0.073427   -0.441471
      2          6           0       -2.803923    0.236664   -0.196400
      3          6           0        0.596712   -3.260881   -0.487476
      4          6           0        4.071019    0.027316    0.222928
      5          6           0        0.798236    3.540143    0.093321
      6          7           0       -0.888493   -1.306878   -0.298210
      7          6           0       -2.266850   -1.052684   -0.400227
      8          6           0       -3.080529   -2.382558   -0.632436
      9          6           0       -1.957809   -3.463631   -0.651057
     10          6           0       -0.654294   -2.630740   -0.526413
     11          6           0       -2.030985   -4.555589    0.385897
     12          6           0       -4.017226   -2.322640   -1.954646
     13          6           0       -5.491355   -2.680183   -1.728251
     14          1           0       -5.996968   -3.889975   -2.598950
     15          7           0        2.175929   -1.422454   -0.306979
     16          6           0        1.927253   -2.735547   -0.340662
     17          6           0        3.151474   -3.520430   -0.172318
     18          6           0        4.150621   -2.532304    0.131417
     19          6           0        3.488607   -1.226631    0.041749
     20          6           0        3.193431   -4.985146   -0.267587
     21          6           0        5.607942   -2.878985    0.570558
     22          8           0        6.448928   -2.015796    0.758152
     23          6           0        6.081898   -4.283690    0.766883
     24          7           0        2.166644    1.535903    0.061702
     25          6           0        3.527978    1.271262    0.166187
     26          6           0        4.341282    2.590848    0.374541
     27          6           0        3.303104    3.705253   -0.023725
     28          6           0        2.009063    2.891781   -0.014571
     29          6           0        5.096082    2.776898    1.731034
     30          6           0        3.559835    4.345997   -1.415204
     31          6           0        3.343785    5.829147   -1.580450
     32          7           0       -0.672435    1.597779   -0.064179
     33          6           0       -0.504495    2.939615    0.128786
     34          6           0       -1.880638    3.603151    0.156644
     35          6           0       -2.796178    2.593619   -0.017601
     36          6           0       -2.020602    1.385187   -0.076246
     37          6           0       -2.063785    5.101392    0.241349
     38          6           0       -4.198564    2.228194   -0.108582
     39          8           0       -5.139744    3.047324   -0.056561
     40          6           0       -4.283859    0.587534   -0.138341
     41          6           0       -4.918321   -0.037546    1.086518
     42          8           0       -4.496610    0.226781    2.229822
     43          8           0       -6.080031   -0.748823    0.783322
     44          6           0       -6.907214   -0.984954    1.960848
     45          1           0        0.608764   -4.345128   -0.615144
     46          1           0        5.147760   -0.077393    0.369390
     47          1           0        0.883044    4.628451    0.135551
     48          1           0       -3.717707   -2.422904    0.250792
     49          1           0       -2.141967   -4.032671   -1.563347
     50          1           0       -2.862166   -4.433420    1.080514
     51          1           0       -1.147727   -4.300813    0.970616
     52          1           0       -2.112497   -5.554371   -0.043986
     53          1           0       -3.522293   -3.021243   -2.628680
     54          1           0       -3.895545   -1.349785   -2.430189
     55          1           0       -6.060492   -1.764041   -1.885937
     56          1           0       -5.630778   -2.979023   -0.688543
     57          1           0        3.587673   -5.576459    0.558274
     58          1           0        3.988166   -5.184658   -0.985500
     59          1           0        2.328465   -5.449950   -0.741266
     60          1           0        5.967361   -4.758311   -0.208389
     61          1           0        5.368509   -4.759798    1.440145
     62          1           0        7.097863   -4.199645    1.150660
     63          1           0        5.106064    2.543931   -0.400744
     64          1           0        3.175343    4.462180    0.749763
     65          1           0        4.984401    1.814882    2.230671
     66          1           0        4.754380    3.626640    2.321341
     67          1           0        6.177464    2.822560    1.596261
     68          1           0        2.821044    3.772663   -1.974854
     69          1           0        4.532540    4.118340   -1.851705
     70          1           0        4.183803    6.180773   -2.179589
     71          1           0        3.375154    6.374669   -0.636754
     72          1           0        2.476341    5.932024   -2.232882
     73          1           0       -1.069637    5.541793    0.315422
     74          1           0       -2.562284    5.327981    1.183559
     75          1           0       -2.668164    5.443829   -0.598387
     76          1           0       -4.784150    0.288726   -1.059499
     77          1           0       -7.847746   -0.436430    1.987237
     78          1           0       -6.397993   -0.802317    2.907232
     79          1           0       -7.147656   -2.047753    1.951564
 ---------------------------------------------------------------------

 SCF Done:  E(RCAM-B3LYP) =  -2034.89328453     A.U. after   19 cycles

 Excitation energies and oscillator strengths:

 Excited State   1:      Singlet-A      1.6980 eV  730.17 nm  f=0.4161  <S**2>=0.000
     155 ->158        -0.17309
     156 ->157         0.68840
     155 <-158        -0.10784
 This state for optimization and/or second-order correction.
 Total Energy, E(TD-HF/TD-DFT) =  -2034.83088376
 Copying the excited state density for this state as the 1-particle RhoCI density.

 Excited State   2:      Singlet-A      2.2865 eV  542.24 nm  f=0.0920  <S**2>=0.000
     155 ->157         0.63011
     156 ->158         0.31280

 Excited State   3:      Singlet-A      3.4982 eV  354.42 nm  f=0.0131  <S**2>=0.000
     150 ->157         0.35585
     150 ->159         0.29985
     151 ->157         0.25184
     151 ->159         0.21873
     153 ->157        -0.29467
     154 ->157         0.16798
     156 ->158         0.10304

 Excited State   4:      Singlet-A      3.5421 eV  350.03 nm  f=0.3425  <S**2>=0.000
     154 ->157        -0.45858
     155 ->157        -0.21858
     156 ->158         0.47635

 Excited State   5:      Singlet-A      3.5737 eV  346.94 nm  f=0.2186  <S**2>=0.000
     150 ->157        -0.17315
     150 ->159        -0.14292
     151 ->157        -0.18029
     153 ->157        -0.23016
     154 ->157         0.44067
     155 ->157        -0.16470
     156 ->158         0.33658

 The electronic state is 1-A.
 Alpha  occ. eigenvalues --  -46.88386 -19.26704 -19.20858 -19.19932 -19.18553
 Alpha  occ. eigenvalues --  -14.42571 -14.41655 -14.39689 -14.39373 -10.40841
 Alpha  occ. eigenvalues --  -10.36510 -10.34932 -10.31749 -10.31597 -10.30965
 Alpha  occ. eigenvalues --  -10.30654 -10.30341 -10.30126 -10.29959 -10.29787
 Alpha  occ. eigenvalues --  -10.29508 -10.29141 -10.29009 -10.28869 -10.28567
 Alpha  occ. eigenvalues --  -10.28243 -10.28052 -10.27722 -10.27471 -10.27368
 Alpha  occ. eigenvalues --  -10.27296 -10.27227 -10.27084 -10.26949 -10.26512
 Alpha  occ. eigenvalues --  -10.26153 -10.26147 -10.25925 -10.25726 -10.25537
 Alpha  occ. eigenvalues --  -10.25503 -10.25434 -10.25223  -3.17038  -1.91920
 Alpha  occ. eigenvalues --   -1.91477  -1.91366  -1.16349  -1.10116  -1.09047
 Alpha  occ. eigenvalues --   -1.07964  -1.03925  -1.03302  -1.02650  -1.01889
 Alpha  occ. eigenvalues --   -0.92639  -0.89122  -0.88751  -0.88039  -0.87335
 Alpha  occ. eigenvalues --   -0.87235  -0.86127  -0.84293  -0.83668  -0.82725
 Alpha  occ. eigenvalues --   -0.81942  -0.81211  -0.80238  -0.78438  -0.77615
 Alpha  occ. eigenvalues --   -0.76936  -0.76230  -0.74712  -0.72455  -0.70977
 Alpha  occ. eigenvalues --   -0.69007  -0.68411  -0.67920  -0.66724  -0.65346
 Alpha  occ. eigenvalues --   -0.64999  -0.64903  -0.64360  -0.62600  -0.60296
 Alpha  occ. eigenvalues --   -0.59780  -0.58925  -0.58531  -0.58340  -0.57326
 Alpha  occ. eigenvalues --   -0.56264  -0.55435  -0.55124  -0.54931  -0.53778
 Alpha  occ. eigenvalues --   -0.53522  -0.53141  -0.52608  -0.52465  -0.51839
 Alpha  occ. eigenvalues --   -0.51625  -0.51494  -0.51281  -0.51141  -0.50832
 Alpha  occ. eigenvalues --   -0.50256  -0.49615  -0.49380  -0.49164  -0.48798
 Alpha  occ. eigenvalues --   -0.48632  -0.48328  -0.48152  -0.47961  -0.47244
 Alpha  occ. eigenvalues --   -0.47030  -0.46762  -0.46491  -0.46028  -0.45954
 Alpha  occ. eigenvalues --   -0.45682  -0.45375  -0.44577  -0.44335  -0.44149
 Alpha  occ. eigenvalues --   -0.44040  -0.43822  -0.43620  -0.43206  -0.43004
 Alpha  occ. eigenvalues --   -0.42856  -0.42675  -0.41731  -0.41713  -0.41129
 Alpha  occ. eigenvalues --   -0.40793  -0.40566  -0.40184  -0.39508  -0.39140
 Alpha  occ. eigenvalues --   -0.38300  -0.37817  -0.37434  -0.37421  -0.36424
 Alpha  occ. eigenvalues --   -0.36114  -0.35159  -0.34443  -0.32892  -0.31558
 Alpha  occ. eigenvalues --   -0.31395  -0.30702  -0.30394  -0.29787  -0.24176
 Alpha  occ. eigenvalues --   -0.20783
 Alpha virt. eigenvalues --   -0.08432  -0.01323  -0.00049   0.01779   0.02321
 Alpha virt. eigenvalues --    0.02798   0.04529   0.05538   0.07597   0.08174
 Alpha virt. eigenvalues --    0.08778   0.09235   0.09595   0.09824   0.10137

 Mulliken charges:
               1
     1  Mg  11.996834
     2  C    5.971045
     3  C    6.022143
     4  C    6.019174
     5  C    5.975095
     6  N    6.993188
     7  C    6.041237
     8  C    5.989289
     9  C    6.013802
    10  C    5.965216
    11  C    6.000934
    12  C    5.995211
    13  C    5.996977
    14  H    1.010547
    15  N    7.007741
    16  C    5.954878
    17  C    5.976108
    18  C    5.988720
    19  C    5.955828
    20  C    6.008241
    21  C    5.986402
    22  O    7.976331
    23  C    6.002394
    24  N    6.999194
    25  C    5.968455
    26  C    6.008235
    27  C    5.989959
    28  C    6.033889
    29  C    5.997993
    30  C    5.998334
    31  C    5.997556
    32  N    6.997738
    33  C    6.048191
    34  C    6.031360
    35  C    6.001876
    36  C    6.039049
    37  C    5.995269
    38  C    6.016682
    39  O    8.029095
    40  C    6.006555
    41  C    6.005423
    42  O    8.003482
    43  O    8.002867
    44  C    5.996198
    45  H    0.991843
    46  H    0.991952
    47  H    1.009103
    48  H    1.001781
    49  H    0.994201
    50  H    0.987104
    51  H    1.006970
    52  H    0.997683
    53  H    1.011953
    54  H    0.995528
    55  H    0.996243
    56  H    1.002009
    57  H    0.975681
    58  H    0.979407
    59  H    0.979558
    60  H    0.994453
    61  H    0.994857
    62  H    0.984928
    63  H    1.000031
    64  H    0.999318
    65  H    1.005765
    66  H    0.987700
    67  H    0.998263
    68  H    0.999229
    69  H    1.012851
    70  H    1.005352
    71  H    1.001225
    72  H    0.995901
    73  H    1.020456
    74  H    1.021312
    75  H    1.019987
    76  H    1.008869
    77  H    1.003069
    78  H    1.003500
    79  H    1.007182
 Sum of Mulliken charges = 312.00000

 Dipole moment (field-independent basis, Debye):
    X=             -8.2940    Y=              7.7743    Z=             -0.0717  Tot=             11.3682
 Quadrupole moment (field-independent basis, Debye-Ang):
   XX=             -7.8401   YY=              0.3669   ZZ=              0.4079
   XY=              7.0671   XZ=             -1.8267   YZ=             -0.2378

 Normal termination of Gaussian 16 at Fri Oct  8 17:12:43 2021.
