 Gaussian 16, Revision A.03,
 Gaussian 16:  ES64L-G16RevA.03 25-Dec-2016

 ----------------------------------------------------------
 #p cam-b3lyp/Def2SVP td=(nstates=5) density=(transition=1)
 ----------------------------------------------------------

 --------------------------------
 TDDFT excited states in gaussian
 --------------------------------
 Symbolic Z-matrix:
 Charge =  0 Multiplicity = 1

                         Standard orientation:
 ---------------------------------------------------------------------
 Center     Atomic      Atomic             Coordinates (Angstroms)
 Number     Number       Type             X           Y           Z
 ---------------------------------------------------------------------
      1         12           0      -11.008937    0.252944   -0.806453
      2          6           0       -8.325631   -2.125747   -0.168764
      3          6           0      -13.218567   -2.302545   -0.192786
      4          6           0      -13.284429    2.536794    0.081566
      5          6           0       -8.679273    2.622208   -1.517503
      6          7           0      -10.755948   -1.938909   -0.045674
      7          6           0       -9.544421   -2.711802    0.067328
      8          6           0       -9.900311   -4.187674    0.267137
      9          6           0      -11.407635   -4.277800   -0.113252
     10          6           0      -11.886113   -2.759962   -0.146723
     11          6           0      -11.671786   -4.978135   -1.529389
     12          6           0       -9.484554   -4.825810    1.560309
     13          6           0       -9.113614   -3.887584    2.733010
     14          1           0       -8.727920   -4.307252    4.163245
     15          7           0      -13.053687    0.137435   -0.270691
     16          6           0      -13.766859   -1.020573   -0.052553
     17          6           0      -15.191758   -0.645842    0.208129
     18          6           0      -15.147327    0.733639    0.393138
     19          6           0      -13.798880    1.229716    0.128234
     20          6           0      -16.244095   -1.688513    0.344468
     21          6           0      -16.361724    1.602188    0.833064
     22          8           0      -17.398396    1.028325    1.116041
     23          6           0      -16.307832    3.073731    1.078190
     24          7           0      -10.872123    2.290726   -0.597296
     25          6           0      -12.042182    3.007011   -0.347709
     26          6           0      -11.808472    4.509682   -0.503425
     27          6           0      -10.453036    4.565151   -1.297140
     28          6           0       -9.994391    3.110024   -1.178048
     29          6           0      -12.910544    5.363531   -1.181708
     30          6           0       -9.401402    5.603997   -0.791245
     31          6           0       -9.195452    6.893774   -1.710147
     32          7           0       -8.918382    0.280768   -0.931321
     33          6           0       -8.108633    1.336758   -1.323445
     34          6           0       -6.758331    0.857938   -1.489523
     35          6           0       -6.831312   -0.441986   -0.970832
     36          6           0       -8.185522   -0.732805   -0.672808
     37          6           0       -5.587898    1.744776   -1.948463
     38          6           0       -6.093848   -1.639412   -0.707158
     39          8           0       -4.879482   -1.801743   -0.942476
     40          6           0       -7.029785   -2.863263   -0.302969
     41          6           0       -6.422961   -3.395000    0.933619
     42          8           0       -6.079771   -2.745003    1.926711
     43          8           0       -6.433180   -4.745512    0.817482
     44          6           0       -5.692471   -5.507471    1.871262
     45          1           0      -13.919381   -3.112023    0.019611
     46          1           0      -14.042741    3.271519    0.361063
     47          1           0       -7.971330    3.374837   -1.869755
     48          1           0       -9.303465   -4.584414   -0.554163
     49          1           0      -12.023083   -4.697827    0.682497
     50          1           0      -12.178058   -5.903212   -1.256531
     51          1           0      -10.722974   -5.114739   -2.048787
     52          1           0      -12.361079   -4.317763   -2.056788
     53          1           0       -8.694108   -5.531718    1.306030
     54          1           0      -10.374818   -5.411645    1.791507
     55          1           0       -9.966259   -3.214123    2.825451
     56          1           0       -8.239572   -3.294817    2.462495
     57          1           0      -16.541169   -1.675862    1.392722
     58          1           0      -15.814706   -2.644686    0.046898
     59          1           0      -17.056945   -1.473987   -0.350215
     60          1           0      -15.689274    3.436992    1.897995
     61          1           0      -17.268732    3.483454    1.388091
     62          1           0      -16.046648    3.429227    0.081540
     63          1           0      -11.721668    4.740600    0.558923
     64          1           0      -10.751318    4.743426   -2.330503
     65          1           0      -13.539046    5.904874   -0.473850
     66          1           0      -13.595741    4.710702   -1.721437
     67          1           0      -12.417973    6.019531   -1.900270
     68          1           0       -8.410202    5.186891   -0.611174
     69          1           0       -9.759894    5.874405    0.202043
     70          1           0       -9.166729    7.692685   -0.969615
     71          1           0       -9.986835    7.071642   -2.438437
     72          1           0       -8.297034    6.716690   -2.300332
     73          1           0       -4.790683    1.225377   -2.480687
     74          1           0       -5.204897    2.085761   -0.987232
     75          1           0       -5.929172    2.461731   -2.694873
     76          1           0       -7.047814   -3.586131   -1.119915
     77          1           0       -5.781383   -6.575784    1.671001
     78          1           0       -6.111877   -5.322220    2.860323
     79          1           0       -4.677752   -5.131637    1.747896
     80         12           0       10.123753    0.834097   -0.102036
     81          6           0       11.338030   -2.476447   -0.244192
     82          6           0        7.079010   -0.394326    1.076181
     83          6           0        9.401883    3.988828    0.966121
     84          6           0       13.475784    1.875259   -0.815989
     85          7           0        9.333756   -1.169633    0.312074
     86          6           0        9.997440   -2.340920    0.212420
     87          6           0        9.130794   -3.525333    0.751191
     88          6           0        7.691966   -2.831561    0.785239
     89          6           0        8.023198   -1.307329    0.684755
     90          6           0        6.641417   -3.131242   -0.308037
     91          6           0        9.679345   -3.956830    2.163683
     92          6           0        9.600185   -5.484995    2.434091
     93          1           0        9.164829   -5.897881    3.898892
     94          7           0        8.348572    1.754295    0.724370
     95          6           0        7.227522    1.047943    1.071246
     96          6           0        6.274520    1.993610    1.513628
     97          6           0        6.891257    3.278411    1.577278
     98          6           0        8.274640    3.082350    1.027965
     99          6           0        4.863869    1.665578    1.942474
    100          6           0        6.332718    4.508674    2.207139
    101          8           0        5.269449    4.501242    2.806430
    102          6           0        6.992232    5.788006    2.241443
    103          7           0       11.364456    2.658620    0.142117
    104          6           0       10.725992    3.867623    0.455655
    105          6           0       11.658751    5.021633    0.259402
    106          6           0       12.998030    4.370766   -0.249166
    107          6           0       12.629828    2.898831   -0.320308
    108          6           0       11.024361    6.014707   -0.722746
    109          6           0       14.272361    4.832571    0.553240
    110          6           0       15.379365    5.461771   -0.237105
    111          7           0       12.071887   -0.080030   -0.506905
    112          6           0       13.280002    0.491482   -0.822775
    113          6           0       14.253587   -0.547921   -1.223408
    114          6           0       13.504161   -1.718041   -0.930084
    115          6           0       12.205811   -1.380358   -0.596953
    116          6           0       15.714572   -0.404746   -1.620150
    117          6           0       13.635097   -3.144782   -0.798036
    118          8           0       14.629815   -3.870620   -0.951508
    119          6           0       12.286213   -3.729922   -0.380559
    120          6           0       11.831953   -4.759883   -1.333415
    121          8           0       11.614848   -5.870893   -1.009212
    122          8           0       11.501685   -4.262748   -2.560917
    123          6           0       10.813147   -5.289076   -3.373368
    124          1           0        6.088427   -0.746369    1.373146
    125          1           0        9.070789    4.991849    1.239791
    126          1           0       14.543514    1.995961   -1.013402
    127          1           0        9.200912   -4.346694    0.037851
    128          1           0        7.225798   -2.775557    1.768797
    129          1           0        7.132416   -3.440292   -1.231513
    130          1           0        5.938551   -2.330368   -0.537779
    131          1           0        6.078084   -3.990115    0.055226
    132          1           0        9.181842   -3.400499    2.958602
    133          1           0       10.722432   -3.640391    2.158131
    134          1           0       10.614347   -5.827861    2.228354
    135          1           0        8.945036   -5.833991    1.635610
    136          1           0        4.144697    2.483950    1.906077
    137          1           0        4.987486    1.314590    2.966631
    138          1           0        4.430040    0.752155    1.535546
    139          1           0        7.124839    6.100417    1.204836
    140          1           0        7.931957    5.732692    2.791700
    141          1           0        6.346565    6.494308    2.763399
    142          1           0       11.931454    5.461568    1.218369
    143          1           0       13.223439    4.444549   -1.313277
    144          1           0        9.959131    5.844031   -0.880367
    145          1           0       11.478720    5.950709   -1.711464
    146          1           0       10.976645    7.000746   -0.261583
    147          1           0       14.623276    3.927406    1.048871
    148          1           0       14.081893    5.640500    1.258748
    149          1           0       16.286943    4.899283   -0.019653
    150          1           0       15.570291    6.488016    0.077245
    151          1           0       15.145341    5.566489   -1.296567
    152          1           0       16.379384   -0.331036   -0.759277
    153          1           0       15.892005    0.410965   -2.322160
    154          1           0       15.906503   -1.388641   -2.048005
    155          1           0       12.403834   -4.299503    0.540415
    156          1           0       10.573112   -4.840518   -4.337711
    157          1           0        9.908919   -5.634523   -2.872422
    158          1           0       11.443629   -6.128176   -3.665454
 ---------------------------------------------------------------------

 SCF Done:  E(RCAM-B3LYP) =  -4069.75088421     A.U. after   19 cycles

 Excitation energies and oscillator strengths:

 Excited State   1:      Singlet-A      1.6541 eV  749.54 nm  f=0.5305  <S**2>=0.000
     309 -> 316        0.15124
     311 -> 313       -0.17200
     312 -> 314        0.66889
 This state for optimization and/or second-order correction.
 Total Energy, E(TD-HF/TD-DFT) =  -4069.69009545
 Copying the excited state density for this state as the 1-particle RhoCI density.

 Excited State   2:      Singlet-A      1.6819 eV  737.17 nm  f=0.2579  <S**2>=0.000
     310 -> 315       -0.16778
     311 -> 313        0.66513
     312 -> 314        0.17227
     310 <- 315       -0.10326

 Excited State   3:      Singlet-A      2.2016 eV  563.17 nm  f=0.1094  <S**2>=0.000
     310 -> 313        0.64189
     311 -> 315        0.28136

 Excited State   4:      Singlet-A      2.2760 eV  544.73 nm  f=0.0764  <S**2>=0.000
     309 -> 314        0.61911
     312 -> 316       -0.32527

 Excited State   5:      Singlet-A      2.6819 eV  462.29 nm  f=0.0000  <S**2>=0.000
     312 -> 313        0.70698

 The electronic state is 1-A.
 Alpha  occ. eigenvalues --  -46.90674 -46.89302 -19.25372 -19.24972 -19.19777
 Alpha  occ. eigenvalues --  -19.19427 -19.19073 -19.18693 -19.17143 -19.17081
 Alpha  occ. eigenvalues --  -14.42817 -14.42537 -14.42465 -14.41544 -14.39740
 Alpha  occ. eigenvalues --  -14.39723 -14.39140 -14.38739 -10.39141 -10.38589
 Alpha  occ. eigenvalues --  -10.35499 -10.34623 -10.33541 -10.33331 -10.32144
 Alpha  occ. eigenvalues --  -10.32069 -10.31933 -10.31822 -10.31715 -10.31686
 Alpha  occ. eigenvalues --  -10.31648 -10.31000 -10.30911 -10.30871 -10.30818
 Alpha  occ. eigenvalues --  -10.30809 -10.30501 -10.30014 -10.29697 -10.29140
 Alpha  occ. eigenvalues --  -10.29004 -10.28914 -10.28856 -10.28832 -10.28749
 Alpha  occ. eigenvalues --  -10.28718 -10.28617 -10.28507 -10.28477 -10.28384
 Alpha  occ. eigenvalues --  -10.28356 -10.28331 -10.28292 -10.28014 -10.27954
 Alpha  occ. eigenvalues --  -10.27883 -10.27859 -10.27670 -10.27638 -10.27607
 Alpha  occ. eigenvalues --  -10.27575 -10.27551 -10.27363 -10.27319 -10.27295
 Alpha  occ. eigenvalues --  -10.27231 -10.27148 -10.27119 -10.26915 -10.26906
 Alpha  occ. eigenvalues --  -10.26898 -10.26851 -10.26782 -10.26644 -10.26489
 Alpha  occ. eigenvalues --  -10.26397 -10.26375 -10.26257 -10.26163 -10.26024
 Alpha  occ. eigenvalues --  -10.25942 -10.25649 -10.25287 -10.25138 -10.24999
 Alpha  occ. eigenvalues --  -10.23975  -3.18822  -3.17790  -1.93735  -1.93257
 Alpha  occ. eigenvalues --   -1.93117  -1.92663  -1.92267  -1.92072  -1.17833
 Alpha  occ. eigenvalues --   -1.16091  -1.10683  -1.09375  -1.08901  -1.08807
 Alpha  occ. eigenvalues --   -1.07487  -1.06685  -1.04950  -1.04835  -1.04018
 Alpha  occ. eigenvalues --   -1.03581  -1.03282  -1.02818  -1.02374  -1.00350
 Alpha  occ. eigenvalues --   -0.92472  -0.91938  -0.89339  -0.89296  -0.88968
 Alpha  occ. eigenvalues --   -0.88862  -0.88605  -0.88060  -0.87897  -0.86857
 Alpha  occ. eigenvalues --   -0.86818  -0.86646  -0.86080  -0.85640  -0.84728
 Alpha  occ. eigenvalues --   -0.84511  -0.84373  -0.83697  -0.82727  -0.82555
 Alpha  occ. eigenvalues --   -0.82346  -0.82345  -0.80968  -0.80775  -0.80395
 Alpha  occ. eigenvalues --   -0.80164  -0.78518  -0.78019  -0.77748  -0.77460
 Alpha  occ. eigenvalues --   -0.76708  -0.76490  -0.76319  -0.75998  -0.75250
 Alpha  occ. eigenvalues --   -0.75247  -0.73027  -0.72981  -0.72357  -0.71679
 Alpha  occ. eigenvalues --   -0.69624  -0.69235  -0.69116  -0.69010  -0.67793
 Alpha  occ. eigenvalues --   -0.67606  -0.66906  -0.66735  -0.66215  -0.66178
 Alpha  occ. eigenvalues --   -0.65544  -0.65365  -0.64836  -0.64663  -0.64485
 Alpha  occ. eigenvalues --   -0.63540  -0.63167  -0.62124  -0.59929  -0.59864
 Alpha  occ. eigenvalues --   -0.59620  -0.59115  -0.59043  -0.58829  -0.58733
 Alpha  occ. eigenvalues --   -0.58148  -0.58030  -0.57496  -0.57194  -0.56922
 Alpha  occ. eigenvalues --   -0.56768  -0.56353  -0.56286  -0.55924  -0.55392
 Alpha  occ. eigenvalues --   -0.55176  -0.55000  -0.54563  -0.54420  -0.54243
 Alpha  occ. eigenvalues --   -0.53667  -0.53452  -0.53354  -0.53239  -0.53064
 Alpha  occ. eigenvalues --   -0.52844  -0.52649  -0.52548  -0.52494  -0.52289
 Alpha  occ. eigenvalues --   -0.52095  -0.51833  -0.51600  -0.51377  -0.51326
 Alpha  occ. eigenvalues --   -0.51202  -0.51182  -0.51041  -0.50748  -0.50651
 Alpha  occ. eigenvalues --   -0.49966  -0.49880  -0.49716  -0.49660  -0.49528
 Alpha  occ. eigenvalues --   -0.49403  -0.49094  -0.48938  -0.48878  -0.48780
 Alpha  occ. eigenvalues --   -0.48462  -0.48351  -0.48226  -0.48111  -0.48053
 Alpha  occ. eigenvalues --   -0.47749  -0.47597  -0.47353  -0.47163  -0.47147
 Alpha  occ. eigenvalues --   -0.46907  -0.46812  -0.46788  -0.46632  -0.46543
 Alpha  occ. eigenvalues --   -0.46508  -0.46236  -0.46185  -0.46159  -0.45708
 Alpha  occ. eigenvalues --   -0.45610  -0.45454  -0.45182  -0.44976  -0.44953
 Alpha  occ. eigenvalues --   -0.44945  -0.44679  -0.44525  -0.44436  -0.44192
 Alpha  occ. eigenvalues --   -0.43987  -0.43941  -0.43850  -0.43473  -0.43409
 Alpha  occ. eigenvalues --   -0.43406  -0.43165  -0.42862  -0.42819  -0.42730
 Alpha  occ. eigenvalues --   -0.42728  -0.42552  -0.42478  -0.42275  -0.42148
 Alpha  occ. eigenvalues --   -0.42113  -0.41925  -0.41748  -0.41615  -0.41109
 Alpha  occ. eigenvalues --   -0.41065  -0.40889  -0.40766  -0.40644  -0.40014
 Alpha  occ. eigenvalues --   -0.39909  -0.39461  -0.39347  -0.39075  -0.39073
 Alpha  occ. eigenvalues --   -0.38530  -0.38504  -0.37736  -0.37492  -0.37401
 Alpha  occ. eigenvalues --   -0.37092  -0.37076  -0.36731  -0.36579  -0.36340
 Alpha  occ. eigenvalues --   -0.36243  -0.35838  -0.34778  -0.34381  -0.33968
 Alpha  occ. eigenvalues --   -0.33822  -0.33329  -0.32687  -0.31522  -0.31333
 Alpha  occ. eigenvalues --   -0.31168  -0.30824  -0.30234  -0.30101  -0.29830
 Alpha  occ. eigenvalues --   -0.29430  -0.29239  -0.29022  -0.24450  -0.24347
 Alpha  occ. eigenvalues --   -0.21410  -0.20750
 Alpha virt. eigenvalues --   -0.09220  -0.08581  -0.02095  -0.01788   0.00446
 Alpha virt. eigenvalues --    0.00926   0.01375   0.01471   0.02499   0.02595
 Alpha virt. eigenvalues --    0.04846   0.04880   0.05413   0.05599   0.06116

 Mulliken charges:
               1
     1  Mg  12.000164
     2  C    5.966912
     3  C    5.994861
     4  C    6.040041
     5  C    6.004955
     6  N    6.974519
     7  C    6.028577
     8  C    5.995811
     9  C    6.002016
    10  C    5.989594
    11  C    6.002395
    12  C    5.998728
    13  C    5.993344
    14  H    1.002142
    15  N    7.012916
    16  C    5.962424
    17  C    5.972522
    18  C    6.000158
    19  C    5.945048
    20  C    6.006456
    21  C    5.988367
    22  O    7.985314
    23  C    6.002261
    24  N    7.011273
    25  C    5.953006
    26  C    6.013183
    27  C    5.987523
    28  C    6.030254
    29  C    5.999341
    30  C    5.993060
    31  C    6.001728
    32  N    6.998094
    33  C    6.035469
    34  C    6.024025
    35  C    6.002402
    36  C    6.040022
    37  C    5.999815
    38  C    6.014230
    39  O    8.033634
    40  C    6.008403
    41  C    6.004044
    42  O    8.001135
    43  O    8.002112
    44  C    5.999716
    45  H    0.985375
    46  H    0.995880
    47  H    1.017750
    48  H    0.994858
    49  H    1.000447
    50  H    0.994400
    51  H    0.985016
    52  H    1.002904
    53  H    0.997150
    54  H    1.008249
    55  H    1.010696
    56  H    0.993028
    57  H    0.980822
    58  H    0.984543
    59  H    0.980197
    60  H    0.989612
    61  H    0.988706
    62  H    0.992546
    63  H    0.998240
    64  H    1.006687
    65  H    1.002344
    66  H    1.004683
    67  H    0.990188
    68  H    0.994011
    69  H    1.009652
    70  H    1.005164
    71  H    1.005937
    72  H    0.997252
    73  H    1.016954
    74  H    1.017387
    75  H    1.014251
    76  H    1.005549
    77  H    1.004552
    78  H    1.004112
    79  H    0.998866
    80  Mg  11.999549
    81  C    5.993690
    82  C    6.004410
    83  C    6.006048
    84  C    5.998186
    85  N    6.999021
    86  C    6.009224
    87  C    5.997940
    88  C    6.000741
    89  C    5.992399
    90  C    6.002342
    91  C    5.999416
    92  C    5.999633
    93  H    1.002320
    94  N    7.003542
    95  C    5.987081
    96  C    5.994773
    97  C    5.998095
    98  C    5.986591
    99  C    6.001477
   100  C    5.997006
   101  O    7.993948
   102  C    6.001329
   103  N    7.000391
   104  C    5.991240
   105  C    6.003339
   106  C    5.997962
   107  C    6.008239
   108  C    6.000742
   109  C    5.999741
   110  C    5.999268
   111  N    6.998672
   112  C    6.010364
   113  C    6.008452
   114  C    6.000382
   115  C    6.008559
   116  C    5.999676
   117  C    6.004177
   118  O    8.008548
   119  C    5.999662
   120  C    6.001247
   121  O    8.002305
   122  O    7.998931
   123  C    5.999183
   124  H    0.996686
   125  H    0.998322
   126  H    1.002511
   127  H    0.999643
   128  H    1.000687
   129  H    0.996534
   130  H    1.000294
   131  H    0.997568
   132  H    1.003048
   133  H    0.998180
   134  H    0.999060
   135  H    1.000631
   136  H    0.994776
   137  H    0.994728
   138  H    0.993196
   139  H    0.997516
   140  H    0.997636
   141  H    0.996664
   142  H    0.999511
   143  H    0.999057
   144  H    1.001576
   145  H    0.997418
   146  H    0.999613
   147  H    0.999397
   148  H    1.003139
   149  H    0.999730
   150  H    1.001879
   151  H    1.000630
   152  H    1.005923
   153  H    1.004984
   154  H    1.003510
   155  H    1.002501
   156  H    1.001020
   157  H    1.001643
   158  H    1.000947
 Sum of Mulliken charges = 624.00000

 Dipole moment (field-independent basis, Debye):
    X=             12.7243    Y=              0.5551    Z=             -2.6312  Tot=             13.0054
 Quadrupole moment (field-independent basis, Debye-Ang):
   XX=           -165.9792   YY=              0.5446   ZZ=              2.3634
   XY=            -28.6434   XZ=              7.6498   YZ=             -5.7629

 Normal termination of Gaussian 16 at Tue Sep 21 19:05:26 2021.
