 Gaussian 16, Revision A.03,
 Gaussian 16:  ES64L-G16RevA.03 25-Dec-2016

 -----------------------------------
 #p cam-b3lyp/Def2SVP td=(nstates=5)
 -----------------------------------

 --------------------------------
 TDDFT excited states in gaussian
 --------------------------------
 Symbolic Z-matrix:
 Charge =  0 Multiplicity = 1

                         Standard orientation:
 ---------------------------------------------------------------------
 Center     Atomic      Atomic             Coordinates (Angstroms)
 Number     Number       Type             X           Y           Z
 ---------------------------------------------------------------------
      1         12           0      -21.271854    0.412267   -0.217466
      2          6           0      -18.674685   -1.942783   -0.403857
      3          6           0      -23.432304   -2.149496    0.341244
      4          6           0      -23.496331    2.737993    0.364849
      5          6           0      -18.644366    2.862559    0.024990
      6          7           0      -21.057351   -1.759803   -0.125376
      7          6           0      -19.917160   -2.508308   -0.206243
      8          6           0      -20.246526   -3.935802    0.255410
      9          6           0      -21.731633   -4.036355   -0.074798
     10          6           0      -22.105443   -2.559486    0.155557
     11          6           0      -21.995531   -4.473139   -1.534323
     12          6           0      -19.960249   -4.123513    1.791211
     13          6           0      -18.777165   -5.118093    2.232025
     14          1           0      -17.586744   -4.556747    3.028176
     15          7           0      -23.184533    0.314289    0.340074
     16          6           0      -23.916298   -0.839937    0.500066
     17          6           0      -25.282959   -0.475496    0.707089
     18          6           0      -25.410658    0.949496    0.607728
     19          6           0      -24.006283    1.421690    0.434975
     20          6           0      -26.424347   -1.520559    0.954039
     21          6           0      -26.770582    1.736148    0.656453
     22          8           0      -27.803931    1.141812    0.688894
     23          6           0      -26.750581    3.167184    0.378884
     24          7           0      -21.066201    2.472245    0.460246
     25          6           0      -22.177469    3.213639    0.237973
     26          6           0      -21.872554    4.662692   -0.102906
     27          6           0      -20.377932    4.772658    0.157160
     28          6           0      -19.975766    3.258572    0.229600
     29          6           0      -22.247309    5.036679   -1.584648
     30          6           0      -19.854895    5.603095    1.422056
     31          6           0      -19.178030    6.939354    1.274272
     32          7           0      -19.152004    0.519830   -0.392320
     33          6           0      -18.226872    1.565110   -0.274914
     34          6           0      -16.864978    1.086603   -0.374385
     35          6           0      -17.006316   -0.277033   -0.453735
     36          6           0      -18.398979   -0.617719   -0.438828
     37          6           0      -15.656465    1.924240   -0.305275
     38          6           0      -16.264876   -1.524804   -0.553890
     39          8           0      -15.049166   -1.710720   -0.688881
     40          6           0      -17.299648   -2.627263   -0.635403
     41          6           0      -17.122768   -3.314605   -1.984966
     42          8           0      -17.217929   -2.680046   -3.033041
     43          8           0      -16.726039   -4.652619   -1.835728
     44          6           0      -16.507364   -5.353429   -3.072806
     45          1           0      -24.117135   -2.999466    0.360845
     46          1           0      -24.301150    3.463861    0.238917
     47          1           0      -17.861013    3.622708   -0.012378
     48          1           0      -19.542355   -4.597701   -0.249329
     49          1           0      -22.186607   -4.733526    0.627698
     50          1           0      -22.707492   -5.273765   -1.336862
     51          1           0      -21.027779   -4.821166   -1.896572
     52          1           0      -22.395705   -3.717326   -2.210231
     53          1           0      -20.862002   -4.542582    2.237499
     54          1           0      -19.843534   -3.132111    2.228217
     55          1           0      -18.334436   -5.466001    1.298416
     56          1           0      -19.108116   -6.014748    2.754671
     57          1           0      -27.090191   -1.360274    1.801450
     58          1           0      -25.918945   -2.476478    1.095277
     59          1           0      -27.080743   -1.637953    0.091609
     60          1           0      -26.120493    3.747769    1.053039
     61          1           0      -27.772057    3.542485    0.440236
     62          1           0      -26.556681    3.341208   -0.678632
     63          1           0      -22.457772    5.365161    0.491462
     64          1           0      -19.869386    5.164975   -0.723519
     65          1           0      -23.208463    5.543021   -1.671887
     66          1           0      -22.133840    4.159314   -2.221384
     67          1           0      -21.497252    5.748760   -1.931807
     68          1           0      -19.323468    5.063507    2.205236
     69          1           0      -20.846576    5.790091    1.834866
     70          1           0      -19.756332    7.767239    1.683264
     71          1           0      -19.017604    7.151763    0.216997
     72          1           0      -18.229642    6.819305    1.797458
     73          1           0      -15.908479    2.823622    0.257256
     74          1           0      -15.449818    2.221327   -1.333838
     75          1           0      -14.805976    1.366006    0.083377
     76          1           0      -16.990209   -3.297635    0.165295
     77          1           0      -17.417958   -5.663190   -3.586305
     78          1           0      -15.912992   -6.254322   -2.923063
     79          1           0      -15.933806   -4.793782   -3.811177
     80         12           0       20.543713    0.666332   -0.338225
     81          6           0       20.595457   -2.736904    0.594342
     82          6           0       17.451736    0.993249    1.243067
     83          6           0       21.026889    4.039849   -0.355808
     84          6           0       23.925311    0.206636   -1.426037
     85          7           0       19.212750   -0.711086    0.730312
     86          6           0       19.443817   -2.011623    1.008755
     87          6           0       18.321798   -2.597700    1.926234
     88          6           0       17.201610   -1.470686    1.759724
     89          6           0       17.989964   -0.264066    1.155027
     90          6           0       15.974450   -1.701284    0.848891
     91          6           0       18.885445   -2.744455    3.390131
     92          6           0       18.354749   -3.990978    4.151194
     93          1           0       18.009323   -3.762692    5.679009
     94          7           0       19.287150    2.351023    0.175435
     95          6           0       18.055197    2.219687    0.759431
     96          6           0       17.526045    3.524463    0.884968
     97          6           0       18.526697    4.468840    0.508170
     98          6           0       19.686543    3.646910    0.025342
     99          6           0       16.155602    3.854456    1.427594
    100          6           0       18.484002    5.945424    0.708451
    101          8           0       17.565225    6.490417    1.298855
    102          6           0       19.519060    6.861174    0.304862
    103          7           0       22.327211    1.926831   -0.735866
    104          6           0       22.160507    3.316730   -0.825425
    105          6           0       23.380436    3.956387   -1.411005
    106          6           0       24.357777    2.758612   -1.704396
    107          6           0       23.528710    1.559366   -1.278151
    108          6           0       22.974865    4.761446   -2.652236
    109          6           0       25.808063    2.967144   -1.126272
    110          6           0       26.942743    2.900806   -2.103049
    111          7           0       22.020623   -0.945733   -0.459692
    112          6           0       23.294842   -0.954985   -0.971767
    113          6           0       23.818642   -2.337473   -1.027410
    114          6           0       22.778294   -3.025925   -0.348757
    115          6           0       21.714914   -2.173336   -0.118469
    116          6           0       25.180951   -2.839303   -1.479805
    117          6           0       22.458703   -4.297481    0.243845
    118          8           0       23.136406   -5.334371    0.317564
    119          6           0       21.061741   -4.220561    0.859270
    120          6           0       20.176726   -5.264334    0.309367
    121          8           0       19.658420   -6.076418    0.986465
    122          8           0       19.863512   -5.079429   -1.006190
    123          6           0       18.778871   -5.995914   -1.419856
    124          1           0       16.449600    1.115738    1.660315
    125          1           0       21.076506    5.127871   -0.421496
    126          1           0       24.938466   -0.117877   -1.674626
    127          1           0       18.027440   -3.566606    1.522527
    128          1           0       16.914181   -0.961180    2.679301
    129          1           0       16.211601   -2.425787    0.068984
    130          1           0       15.543253   -0.815364    0.382611
    131          1           0       15.218178   -2.157249    1.486945
    132          1           0       18.704743   -1.837163    3.967260
    133          1           0       19.964234   -2.828694    3.258553
    134          1           0       19.167151   -4.710653    4.048823
    135          1           0       17.521616   -4.313903    3.526535
    136          1           0       15.740592    4.820051    1.138357
    137          1           0       16.295107    3.809705    2.507366
    138          1           0       15.400227    3.072064    1.354041
    139          1           0       19.605574    6.778685   -0.779321
    140          1           0       20.455387    6.651184    0.822666
    141          1           0       19.211391    7.870587    0.578011
    142          1           0       23.905917    4.541743   -0.656846
    143          1           0       24.450660    2.423758   -2.737754
    144          1           0       21.900517    4.933380   -2.722282
    145          1           0       23.247961    4.247398   -3.573797
    146          1           0       23.309618    5.792396   -2.541330
    147          1           0       25.911328    2.191691   -0.367244
    148          1           0       25.984259    3.963684   -0.722994
    149          1           0       27.640991    2.151374   -1.731326
    150          1           0       27.494489    3.839909   -2.148985
    151          1           0       26.615666    2.754832   -3.132567
    152          1           0       25.942731   -2.745125   -0.705638
    153          1           0       25.516417   -2.389662   -2.415203
    154          1           0       24.986488   -3.908512   -1.563015
    155          1           0       21.111376   -4.488376    1.913908
    156          1           0       18.569709   -5.805955   -2.472921
    157          1           0       17.887035   -5.835964   -0.814088
    158          1           0       19.060206   -7.048347   -1.431927
 ---------------------------------------------------------------------

 SCF Done:  E(RCAM-B3LYP) =  -4069.79031338     A.U. after   19 cycles

 Excitation energies and oscillator strengths:

 Excited State   1:      Singlet-A      1.6804 eV  737.81 nm  f=0.4152  <S**2>=0.000
     309 -> 315        0.17285
     311 -> 313        0.68694
     309 <- 315        0.10655
 This state for optimization and/or second-order correction.
 Total Energy, E(TD-HF/TD-DFT) =  -4069.72855886
 Copying the excited state density for this state as the 1-particle RhoCI density.

 Excited State   2:      Singlet-A      1.7237 eV  719.29 nm  f=0.3572  <S**2>=0.000
     310 -> 316        0.19169
     312 -> 314        0.68296
     310 <- 316        0.11114

 Excited State   3:      Singlet-A      2.2016 eV  563.14 nm  f=0.1134  <S**2>=0.000
     309 -> 313        0.64204
     311 -> 315       -0.28114

 Excited State   4:      Singlet-A      2.2830 eV  543.07 nm  f=0.0523  <S**2>=0.000
     310 -> 314        0.60484
     312 -> 316       -0.35601

 Excited State   5:      Singlet-A      2.9380 eV  422.00 nm  f=0.0000  <S**2>=0.000
     312 -> 313        0.70710

 The electronic state is 1-A.
 Alpha  occ. eigenvalues --  -46.90838 -46.88697 -19.26036 -19.25112 -19.20591
 Alpha  occ. eigenvalues --  -19.19917 -19.19102 -19.18845 -19.18772 -19.17322
 Alpha  occ. eigenvalues --  -14.42976 -14.42702 -14.42147 -14.42088 -14.39907
 Alpha  occ. eigenvalues --  -14.39395 -14.39359 -14.39301 -10.40261 -10.38730
 Alpha  occ. eigenvalues --  -10.35065 -10.34773 -10.34576 -10.33506 -10.32243
 Alpha  occ. eigenvalues --  -10.31986 -10.31861 -10.31820 -10.31519 -10.31145
 Alpha  occ. eigenvalues --  -10.31138 -10.31064 -10.30988 -10.30845 -10.30667
 Alpha  occ. eigenvalues --  -10.30561 -10.30184 -10.29859 -10.29803 -10.29549
 Alpha  occ. eigenvalues --  -10.29308 -10.29302 -10.29084 -10.29032 -10.28909
 Alpha  occ. eigenvalues --  -10.28770 -10.28625 -10.28506 -10.28463 -10.28427
 Alpha  occ. eigenvalues --  -10.28422 -10.28172 -10.28171 -10.28147 -10.28087
 Alpha  occ. eigenvalues --  -10.27898 -10.27885 -10.27828 -10.27826 -10.27749
 Alpha  occ. eigenvalues --  -10.27554 -10.27540 -10.27481 -10.27265 -10.27042
 Alpha  occ. eigenvalues --  -10.26971 -10.26939 -10.26909 -10.26885 -10.26874
 Alpha  occ. eigenvalues --  -10.26862 -10.26808 -10.26661 -10.26520 -10.26444
 Alpha  occ. eigenvalues --  -10.26388 -10.26242 -10.26240 -10.26010 -10.25753
 Alpha  occ. eigenvalues --  -10.25704 -10.25518 -10.25451 -10.25292 -10.25258
 Alpha  occ. eigenvalues --  -10.25147  -3.18985  -3.17307  -1.93898  -1.93420
 Alpha  occ. eigenvalues --   -1.93280  -1.92181  -1.91778  -1.91606  -1.17972
 Alpha  occ. eigenvalues --   -1.15977  -1.11920  -1.09553  -1.09116  -1.09040
 Alpha  occ. eigenvalues --   -1.08956  -1.08234  -1.05115  -1.04794  -1.04286
 Alpha  occ. eigenvalues --   -1.03751  -1.03437  -1.02870  -1.02537  -1.02085
 Alpha  occ. eigenvalues --   -0.93057  -0.92630  -0.89427  -0.89162  -0.89021
 Alpha  occ. eigenvalues --   -0.88982  -0.88518  -0.88236  -0.88063  -0.87624
 Alpha  occ. eigenvalues --   -0.87117  -0.87017  -0.85825  -0.85008  -0.84884
 Alpha  occ. eigenvalues --   -0.84657  -0.84618  -0.84248  -0.82714  -0.82597
 Alpha  occ. eigenvalues --   -0.82532  -0.82516  -0.81049  -0.80929  -0.80867
 Alpha  occ. eigenvalues --   -0.80553  -0.78662  -0.78014  -0.77614  -0.77238
 Alpha  occ. eigenvalues --   -0.76870  -0.76497  -0.76411  -0.76323  -0.75433
 Alpha  occ. eigenvalues --   -0.75117  -0.73147  -0.72899  -0.72521  -0.72134
 Alpha  occ. eigenvalues --   -0.69376  -0.69268  -0.69041  -0.68629  -0.68166
 Alpha  occ. eigenvalues --   -0.67960  -0.66901  -0.66787  -0.66355  -0.65882
 Alpha  occ. eigenvalues --   -0.65714  -0.65609  -0.64998  -0.64877  -0.64652
 Alpha  occ. eigenvalues --   -0.64468  -0.63309  -0.62732  -0.60261  -0.60082
 Alpha  occ. eigenvalues --   -0.60059  -0.60026  -0.59130  -0.58995  -0.58899
 Alpha  occ. eigenvalues --   -0.58891  -0.58510  -0.58312  -0.57691  -0.57081
 Alpha  occ. eigenvalues --   -0.56512  -0.56249  -0.56084  -0.56083  -0.55558
 Alpha  occ. eigenvalues --   -0.55301  -0.55138  -0.54987  -0.54556  -0.53962
 Alpha  occ. eigenvalues --   -0.53550  -0.53508  -0.53386  -0.53207  -0.53201
 Alpha  occ. eigenvalues --   -0.53008  -0.52826  -0.52794  -0.52690  -0.52659
 Alpha  occ. eigenvalues --   -0.52268  -0.52200  -0.51759  -0.51757  -0.51474
 Alpha  occ. eigenvalues --   -0.51334  -0.51023  -0.50903  -0.50893  -0.50469
 Alpha  occ. eigenvalues --   -0.50150  -0.50049  -0.49861  -0.49837  -0.49657
 Alpha  occ. eigenvalues --   -0.49567  -0.49308  -0.49271  -0.49094  -0.49040
 Alpha  occ. eigenvalues --   -0.48692  -0.48622  -0.48400  -0.48346  -0.48205
 Alpha  occ. eigenvalues --   -0.48100  -0.47528  -0.47525  -0.47333  -0.47136
 Alpha  occ. eigenvalues --   -0.46964  -0.46797  -0.46685  -0.46602  -0.46358
 Alpha  occ. eigenvalues --   -0.46356  -0.46332  -0.46302  -0.46146  -0.45978
 Alpha  occ. eigenvalues --   -0.45761  -0.45436  -0.45350  -0.45139  -0.45091
 Alpha  occ. eigenvalues --   -0.44856  -0.44686  -0.44451  -0.44352  -0.44317
 Alpha  occ. eigenvalues --   -0.44165  -0.44017  -0.43866  -0.43596  -0.43570
 Alpha  occ. eigenvalues --   -0.43331  -0.43304  -0.43075  -0.43005  -0.42880
 Alpha  occ. eigenvalues --   -0.42649  -0.42588  -0.42415  -0.42298  -0.42146
 Alpha  occ. eigenvalues --   -0.41978  -0.41783  -0.41738  -0.41604  -0.41281
 Alpha  occ. eigenvalues --   -0.41087  -0.41030  -0.40878  -0.40794  -0.40729
 Alpha  occ. eigenvalues --   -0.40383  -0.40138  -0.40044  -0.39633  -0.39236
 Alpha  occ. eigenvalues --   -0.38976  -0.38678  -0.37999  -0.37899  -0.37638
 Alpha  occ. eigenvalues --   -0.37474  -0.37237  -0.37154  -0.36889  -0.36695
 Alpha  occ. eigenvalues --   -0.36535  -0.36404  -0.34922  -0.34857  -0.34720
 Alpha  occ. eigenvalues --   -0.34135  -0.33493  -0.33491  -0.31495  -0.31415
 Alpha  occ. eigenvalues --   -0.31221  -0.30975  -0.30956  -0.30392  -0.30157
 Alpha  occ. eigenvalues --   -0.30009  -0.29661  -0.29200  -0.24510  -0.24402
 Alpha  occ. eigenvalues --   -0.21575  -0.21003
 Alpha virt. eigenvalues --   -0.09384  -0.08328  -0.02254  -0.02236   0.00285
 Alpha virt. eigenvalues --    0.00490   0.01213   0.01816   0.02428   0.02732
 Alpha virt. eigenvalues --    0.04191   0.04691   0.05006   0.05445   0.05867

 Mulliken charges:
               1
     1  Mg   0.818997
     2  C   -0.027510
     3  C   -0.090320
     4  C   -0.046267
     5  C   -0.087361
     6  N   -0.261366
     7  C   -0.073433
     8  C   -0.067307
     9  C   -0.064285
    10  C    0.017943
    11  C    0.108028
    12  C    0.065027
    13  C   -0.081530
    14  H    0.029408
    15  N   -0.432462
    16  C    0.196322
    17  C   -0.155247
    18  C   -0.066208
    19  C    0.129227
    20  C    0.128367
    21  C    0.011621
    22  O   -0.165213
    23  C    0.046958
    24  N   -0.260884
    25  C    0.045581
    26  C   -0.043731
    27  C   -0.029975
    28  C    0.049942
    29  C    0.066775
    30  C    0.022701
    31  C    0.021383
    32  N   -0.342419
    33  C    0.111608
    34  C   -0.193841
    35  C    0.033636
    36  C    0.152520
    37  C    0.142365
    38  C    0.016945
    39  O   -0.185167
    40  C    0.043553
    41  C    0.222871
    42  O   -0.216011
    43  O   -0.330691
    44  C    0.180782
    45  H   -0.024259
    46  H   -0.052561
    47  H   -0.027315
    48  H   -0.005478
    49  H   -0.002401
    50  H    0.020558
    51  H    0.016873
    52  H    0.032967
    53  H    0.008338
    54  H    0.031383
    55  H    0.028575
    56  H    0.035482
    57  H    0.032236
    58  H   -0.009168
    59  H    0.027811
    60  H    0.050351
    61  H    0.014682
    62  H    0.046894
    63  H    0.006569
    64  H    0.001273
    65  H    0.023835
    66  H    0.019663
    67  H    0.008312
    68  H    0.019327
    69  H   -0.007793
    70  H    0.021972
    71  H    0.005683
    72  H    0.020201
    73  H    0.016105
    74  H    0.034069
    75  H    0.041581
    76  H    0.030817
    77  H    0.024046
    78  H    0.031500
    79  H    0.036538
    80  Mg   0.801216
    81  C    0.004419
    82  C   -0.071527
    83  C   -0.019802
    84  C   -0.048269
    85  N   -0.286884
    86  C   -0.055400
    87  C   -0.042445
    88  C   -0.052347
    89  C    0.058054
    90  C    0.080533
    91  C    0.048736
    92  C   -0.050669
    93  H    0.026237
    94  N   -0.365265
    95  C    0.114127
    96  C   -0.149634
    97  C   -0.022446
    98  C    0.090979
    99  C    0.140516
   100  C   -0.050233
   101  O   -0.214555
   102  C    0.079038
   103  N   -0.287390
   104  C    0.025729
   105  C   -0.009795
   106  C   -0.012924
   107  C    0.028446
   108  C    0.074444
   109  C    0.039549
   110  C   -0.004086
   111  N   -0.281384
   112  C    0.026168
   113  C   -0.155028
   114  C    0.014942
   115  C    0.076296
   116  C    0.107437
   117  C    0.020266
   118  O   -0.190079
   119  C    0.052724
   120  C    0.149225
   121  O   -0.180119
   122  O   -0.336500
   123  C    0.181920
   124  H   -0.017940
   125  H   -0.053357
   126  H   -0.027272
   127  H    0.012546
   128  H    0.009884
   129  H    0.010242
   130  H    0.025088
   131  H    0.017269
   132  H    0.017869
   133  H    0.012933
   134  H    0.042877
   135  H    0.031813
   136  H    0.047190
   137  H    0.015836
   138  H   -0.004907
   139  H    0.029971
   140  H    0.043474
   141  H    0.024750
   142  H    0.021272
   143  H    0.015154
   144  H    0.014947
   145  H    0.018902
   146  H    0.014583
   147  H    0.016982
   148  H    0.015926
   149  H    0.020655
   150  H    0.008622
   151  H    0.012711
   152  H    0.041358
   153  H    0.029828
   154  H    0.041874
   155  H    0.031437
   156  H    0.027491
   157  H    0.035997
   158  H    0.039775
 Sum of Mulliken charges =  -0.00000

 Dipole moment (field-independent basis, Debye):
    X=             -0.0103    Y=              4.3291    Z=             -4.5157  Tot=              6.2556
 Quadrupole moment (field-independent basis, Debye-Ang):
   XX=           -437.6084   YY=           -503.2346   ZZ=           -514.3742
   XY=             65.3205   XZ=            -61.0529   YZ=              1.2064

 Normal termination of Gaussian 16 at Fri Sep  3 00:02:22 2021.
