 Gaussian 16, Revision A.03,
 Gaussian 16:  ES64L-G16RevA.03 25-Dec-2016

 ----------------------------------------------------------
 #p cam-b3lyp/Def2SVP td=(nstates=5) density=(transition=1)
 ----------------------------------------------------------

 --------------------------------
 TDDFT excited states in gaussian
 --------------------------------
 Symbolic Z-matrix:
 Charge =  0 Multiplicity = 1

                         Standard orientation:
 ---------------------------------------------------------------------
 Center     Atomic      Atomic             Coordinates (Angstroms)
 Number     Number       Type             X           Y           Z
 ---------------------------------------------------------------------
      1         12           0      -11.170694    0.156746   -0.479890
      2          6           0       -8.149793   -0.947193    0.749647
      3          6           0      -12.532658   -2.863306    0.349951
      4          6           0      -14.116383    1.651913   -0.469683
      5          6           0       -9.617025    3.215153   -1.228049
      6          7           0      -10.464323   -1.494372    0.876542
      7          6           0       -9.159199   -1.832905    1.037974
      8          6           0       -8.982682   -3.212717    1.599556
      9          6           0      -10.281974   -3.890468    1.055921
     10          6           0      -11.129236   -2.689524    0.662251
     11          6           0      -10.005392   -4.912558   -0.083747
     12          6           0       -8.945525   -3.215137    3.209698
     13          6           0       -7.973907   -4.298608    3.871924
     14          1           0       -8.813197   -5.210659    4.732038
     15          7           0      -13.074389   -0.576304   -0.301487
     16          6           0      -13.479217   -1.794693    0.119467
     17          6           0      -14.933562   -1.858152    0.190475
     18          6           0      -15.406874   -0.557492   -0.078756
     19          6           0      -14.167286    0.240568   -0.294156
     20          6           0      -15.660506   -3.167839    0.581046
     21          6           0      -16.846118   -0.160205    0.096258
     22          8           0      -17.658584   -0.994105    0.400811
     23          6           0      -17.380134    1.278713   -0.037667
     24          7           0      -11.844975    2.152978   -0.932852
     25          6           0      -13.054680    2.487425   -0.840259
     26          6           0      -13.279257    3.945396   -1.002092
     27          6           0      -11.819594    4.486255   -1.268180
     28          6           0      -11.038894    3.250859   -1.141498
     29          6           0      -14.359117    4.248194   -2.095269
     30          6           0      -11.387629    5.598569   -0.204301
     31          6           0      -10.186377    6.535753   -0.583774
     32          7           0       -9.285253    0.990258   -0.381158
     33          6           0       -8.794142    2.205908   -0.821516
     34          6           0       -7.361736    2.240437   -0.716730
     35          6           0       -7.042564    0.964688   -0.132842
     36          6           0       -8.231456    0.315266    0.138068
     37          6           0       -6.438343    3.343415   -1.123100
     38          6           0       -5.960136    0.137910    0.276364
     39          8           0       -4.728223    0.255783    0.299797
     40          6           0       -6.635128   -1.048708    1.040787
     41          6           0       -5.950591   -2.293874    0.584548
     42          8           0       -4.993085   -2.827235    1.162405
     43          8           0       -6.501780   -2.720090   -0.592244
     44          6           0       -5.774002   -3.934767   -1.055669
     45          1           0      -13.037611   -3.827139    0.446172
     46          1           0      -15.096010    2.128317   -0.401036
     47          1           0       -9.161766    4.202867   -1.333555
     48          1           0       -8.101119   -3.593318    1.085265
     49          1           0      -10.734523   -4.480285    1.853222
     50          1           0      -10.291538   -5.909501    0.250157
     51          1           0       -8.925209   -4.943064   -0.230196
     52          1           0      -10.517171   -4.553488   -0.976088
     53          1           0       -9.910616   -3.256996    3.714396
     54          1           0       -8.592491   -2.253252    3.580117
     55          1           0       -7.338150   -3.712074    4.535336
     56          1           0       -7.279852   -4.858691    3.245166
     57          1           0      -16.293328   -3.095835    1.465532
     58          1           0      -14.997785   -4.025717    0.700125
     59          1           0      -16.267145   -3.456227   -0.276750
     60          1           0      -17.276654    1.684412   -1.043516
     61          1           0      -16.947800    1.975503    0.680877
     62          1           0      -18.407528    1.221586    0.323202
     63          1           0      -13.614252    4.255912   -0.012505
     64          1           0      -11.573049    4.844617   -2.267339
     65          1           0      -15.153875    4.810002   -1.605013
     66          1           0      -14.745576    3.335775   -2.549764
     67          1           0      -14.052531    4.991249   -2.831294
     68          1           0      -11.128515    5.127213    0.743977
     69          1           0      -12.281952    6.198233   -0.041359
     70          1           0      -10.314069    7.615842   -0.650500
     71          1           0       -9.813986    6.294772   -1.578502
     72          1           0       -9.360957    6.389691    0.112988
     73          1           0       -6.876239    4.163218   -1.692211
     74          1           0       -5.718558    2.762569   -1.698430
     75          1           0       -6.004267    3.587485   -0.153423
     76          1           0       -6.589672   -0.966381    2.127248
     77          1           0       -4.769443   -3.654711   -1.371130
     78          1           0       -6.171577   -4.333968   -1.988793
     79          1           0       -5.811040   -4.667652   -0.249416
     80         12           0       10.850372    0.733860   -0.278354
     81          6           0       10.421250   -2.713504   -0.304393
     82          6           0        7.283220    0.943785   -0.071215
     83          6           0       11.112886    3.967681    0.249628
     84          6           0       14.290847    0.226587    0.234998
     85          7           0        9.094751   -0.729832   -0.076584
     86          6           0        9.213762   -2.094901   -0.211490
     87          6           0        7.836982   -2.756553   -0.106785
     88          6           0        6.887624   -1.544484   -0.316160
     89          6           0        7.781254   -0.350636   -0.105310
     90          6           0        6.124409   -1.413207   -1.692403
     91          6           0        7.616879   -3.483094    1.230266
     92          6           0        6.375559   -4.284838    1.327638
     93          1           0        6.345997   -5.434948    2.405353
     94          7           0        9.395098    2.282745    0.062544
     95          6           0        7.996226    2.169281    0.082090
     96          6           0        7.446847    3.478930    0.296812
     97          6           0        8.561334    4.365864    0.532140
     98          6           0        9.782848    3.534199    0.253548
     99          6           0        5.921052    3.745740    0.417886
    100          6           0        8.381059    5.843960    0.892315
    101          8           0        7.289971    6.388213    0.855877
    102          6           0        9.568137    6.636393    1.287771
    103          7           0       12.514388    1.935254   -0.042643
    104          6           0       12.346219    3.252553    0.115208
    105          6           0       13.735817    3.931872    0.448823
    106          6           0       14.786859    2.757702    0.510761
    107          6           0       13.781832    1.504454    0.263315
    108          6           0       14.173874    5.136009   -0.425713
    109          6           0       15.441670    2.699757    1.907495
    110          6           0       16.874257    2.153288    1.935069
    111          7           0       12.177075   -0.880136   -0.067604
    112          6           0       13.540279   -0.946183    0.006175
    113          6           0       13.944195   -2.351552   -0.121351
    114          6           0       12.778089   -3.036903   -0.333178
    115          6           0       11.730751   -2.149668   -0.230497
    116          6           0       15.382897   -2.876771   -0.161777
    117          6           0       12.230961   -4.345654   -0.529275
    118          8           0       12.747968   -5.427961   -0.658494
    119          6           0       10.673740   -4.187266   -0.533513
    120          6           0       10.187305   -4.575017   -1.886094
    121          8           0       10.605675   -4.195081   -2.944425
    122          8           0        9.038283   -5.370683   -1.735786
    123          6           0        8.393473   -5.766206   -2.955509
    124          1           0        6.192878    0.907595   -0.108273
    125          1           0       11.356772    5.021503    0.402448
    126          1           0       15.362902    0.036704    0.320718
    127          1           0        7.751978   -3.402353   -0.979701
    128          1           0        6.111398   -1.411995    0.436699
    129          1           0        5.083509   -1.273073   -1.401647
    130          1           0        6.417602   -2.080277   -2.503499
    131          1           0        6.410951   -0.447566   -2.108715
    132          1           0        7.497236   -2.839400    2.102149
    133          1           0        8.473674   -4.120276    1.449636
    134          1           0        6.200294   -4.707932    0.338510
    135          1           0        5.535925   -3.612549    1.503253
    136          1           0        5.896239    3.881412    1.499595
    137          1           0        5.270783    2.886936    0.250199
    138          1           0        5.412067    4.568822   -0.084021
    139          1           0       10.064197    6.026418    2.042715
    140          1           0        9.224723    7.549559    1.774141
    141          1           0       10.123459    6.740436    0.355302
    142          1           0       13.615362    4.359492    1.444579
    143          1           0       15.545584    2.772212   -0.271043
    144          1           0       14.059632    6.042604    0.169390
    145          1           0       13.605715    5.113718   -1.355067
    146          1           0       15.245477    5.080502   -0.617143
    147          1           0       14.775719    2.072817    2.499871
    148          1           0       15.419731    3.645835    2.448751
    149          1           0       17.434891    2.967603    2.395350
    150          1           0       17.259301    1.839316    0.964801
    151          1           0       16.941720    1.304460    2.615649
    152          1           0       15.590191   -3.767374    0.430559
    153          1           0       15.945575   -2.007573    0.179619
    154          1           0       15.653482   -2.924216   -1.216709
    155          1           0       10.296787   -4.863344    0.233997
    156          1           0        8.575324   -6.835348   -3.065285
    157          1           0        8.659824   -5.268597   -3.888312
    158          1           0        7.327961   -5.572911   -2.834310
 ---------------------------------------------------------------------

 SCF Done:  E(RCAM-B3LYP) =  -4069.80293289     A.U. after   19 cycles

 Excitation energies and oscillator strengths:

 Excited State   1:      Singlet-A      1.6890 eV  734.05 nm  f=0.3888  <S**2>=0.000
     310 -> 315        0.16379
     312 -> 313        0.68635
     310 <- 315        0.10142
 This state for optimization and/or second-order correction.
 Total Energy, E(TD-HF/TD-DFT) =  -4069.74086162
 Copying the excited state density for this state as the 1-particle RhoCI density.

 Excited State   2:      Singlet-A      1.7672 eV  701.57 nm  f=0.3796  <S**2>=0.000
     309 -> 316       -0.17181
     311 -> 314        0.68583
     309 <- 316       -0.10299

 Excited State   3:      Singlet-A      2.2124 eV  560.40 nm  f=0.1062  <S**2>=0.000
     310 -> 313        0.64123
     312 -> 315       -0.27947

 Excited State   4:      Singlet-A      2.2949 eV  540.25 nm  f=0.1182  <S**2>=0.000
     309 -> 314        0.63723
     311 -> 316        0.29058

 Excited State   5:      Singlet-A      2.9216 eV  424.37 nm  f=0.0000  <S**2>=0.000
     312 -> 314        0.70702

 The electronic state is 1-A.
 Alpha  occ. eigenvalues --  -46.89438 -46.89280 -19.25659 -19.24729 -19.20286
 Alpha  occ. eigenvalues --  -19.19570 -19.19143 -19.18472 -19.18316 -19.17982
 Alpha  occ. eigenvalues --  -14.42439 -14.42167 -14.42109 -14.41965 -14.40367
 Alpha  occ. eigenvalues --  -14.40000 -14.38874 -14.38650 -10.39293 -10.38759
 Alpha  occ. eigenvalues --  -10.35803 -10.34643 -10.34154 -10.33941 -10.32378
 Alpha  occ. eigenvalues --  -10.32157 -10.31821 -10.31767 -10.31379 -10.31044
 Alpha  occ. eigenvalues --  -10.31013 -10.30948 -10.30878 -10.30864 -10.30737
 Alpha  occ. eigenvalues --  -10.30317 -10.30305 -10.30030 -10.29428 -10.29311
 Alpha  occ. eigenvalues --  -10.29008 -10.28847 -10.28446 -10.28436 -10.28274
 Alpha  occ. eigenvalues --  -10.28254 -10.28205 -10.28119 -10.28094 -10.28047
 Alpha  occ. eigenvalues --  -10.28005 -10.27971 -10.27908 -10.27871 -10.27843
 Alpha  occ. eigenvalues --  -10.27750 -10.27672 -10.27628 -10.27623 -10.27543
 Alpha  occ. eigenvalues --  -10.27522 -10.27516 -10.27496 -10.27341 -10.27305
 Alpha  occ. eigenvalues --  -10.27224 -10.27189 -10.27037 -10.26722 -10.26707
 Alpha  occ. eigenvalues --  -10.26697 -10.26677 -10.26632 -10.26480 -10.26373
 Alpha  occ. eigenvalues --  -10.26312 -10.26282 -10.26280 -10.26200 -10.26109
 Alpha  occ. eigenvalues --  -10.26072 -10.25881 -10.25872 -10.25474 -10.24496
 Alpha  occ. eigenvalues --  -10.23763  -3.17859  -3.17853  -1.92766  -1.92741
 Alpha  occ. eigenvalues --   -1.92323  -1.92317  -1.92146  -1.92145  -1.16406
 Alpha  occ. eigenvalues --   -1.16048  -1.12004  -1.10128  -1.09899  -1.08616
 Alpha  occ. eigenvalues --   -1.08191  -1.07105  -1.06528  -1.04650  -1.04370
 Alpha  occ. eigenvalues --   -1.03997  -1.03566  -1.03492  -1.02889  -1.02597
 Alpha  occ. eigenvalues --   -0.93040  -0.92566  -0.89780  -0.89129  -0.89016
 Alpha  occ. eigenvalues --   -0.88740  -0.88638  -0.88321  -0.87870  -0.87358
 Alpha  occ. eigenvalues --   -0.86933  -0.86687  -0.86233  -0.85722  -0.84975
 Alpha  occ. eigenvalues --   -0.84356  -0.83862  -0.83860  -0.82903  -0.82381
 Alpha  occ. eigenvalues --   -0.82332  -0.81880  -0.81083  -0.80975  -0.80625
 Alpha  occ. eigenvalues --   -0.80421  -0.78476  -0.77895  -0.77528  -0.77140
 Alpha  occ. eigenvalues --   -0.76870  -0.76847  -0.76050  -0.75983  -0.75547
 Alpha  occ. eigenvalues --   -0.75298  -0.73025  -0.72749  -0.72282  -0.71814
 Alpha  occ. eigenvalues --   -0.70530  -0.69371  -0.69088  -0.68886  -0.68210
 Alpha  occ. eigenvalues --   -0.67809  -0.67550  -0.66875  -0.66515  -0.65903
 Alpha  occ. eigenvalues --   -0.65421  -0.65340  -0.64913  -0.64744  -0.64528
 Alpha  occ. eigenvalues --   -0.64384  -0.62505  -0.62483  -0.60571  -0.60012
 Alpha  occ. eigenvalues --   -0.59684  -0.59671  -0.59244  -0.59076  -0.58861
 Alpha  occ. eigenvalues --   -0.58633  -0.58234  -0.58034  -0.57359  -0.57059
 Alpha  occ. eigenvalues --   -0.56768  -0.56278  -0.56274  -0.55730  -0.55675
 Alpha  occ. eigenvalues --   -0.55249  -0.55112  -0.54728  -0.54210  -0.54130
 Alpha  occ. eigenvalues --   -0.53821  -0.53660  -0.53345  -0.53095  -0.53009
 Alpha  occ. eigenvalues --   -0.52916  -0.52724  -0.52460  -0.52415  -0.52034
 Alpha  occ. eigenvalues --   -0.51751  -0.51689  -0.51537  -0.51428  -0.51293
 Alpha  occ. eigenvalues --   -0.51231  -0.50713  -0.50620  -0.50517  -0.50463
 Alpha  occ. eigenvalues --   -0.50269  -0.50160  -0.50028  -0.49975  -0.49742
 Alpha  occ. eigenvalues --   -0.49665  -0.49207  -0.49105  -0.48990  -0.48850
 Alpha  occ. eigenvalues --   -0.48693  -0.48641  -0.48386  -0.48030  -0.47884
 Alpha  occ. eigenvalues --   -0.47830  -0.47757  -0.47468  -0.47325  -0.47144
 Alpha  occ. eigenvalues --   -0.46976  -0.46956  -0.46905  -0.46875  -0.46343
 Alpha  occ. eigenvalues --   -0.46283  -0.46234  -0.46176  -0.45886  -0.45883
 Alpha  occ. eigenvalues --   -0.45870  -0.45570  -0.45435  -0.45157  -0.45100
 Alpha  occ. eigenvalues --   -0.44915  -0.44728  -0.44492  -0.44405  -0.44346
 Alpha  occ. eigenvalues --   -0.44271  -0.44042  -0.43941  -0.43676  -0.43480
 Alpha  occ. eigenvalues --   -0.43444  -0.43219  -0.43085  -0.43021  -0.42967
 Alpha  occ. eigenvalues --   -0.42738  -0.42665  -0.42487  -0.42272  -0.42166
 Alpha  occ. eigenvalues --   -0.42067  -0.42004  -0.41962  -0.41812  -0.41622
 Alpha  occ. eigenvalues --   -0.41511  -0.41327  -0.41238  -0.40809  -0.40415
 Alpha  occ. eigenvalues --   -0.40133  -0.40002  -0.39663  -0.39616  -0.39525
 Alpha  occ. eigenvalues --   -0.38683  -0.38610  -0.38342  -0.37814  -0.37764
 Alpha  occ. eigenvalues --   -0.37447  -0.36909  -0.36768  -0.36613  -0.36546
 Alpha  occ. eigenvalues --   -0.36302  -0.35866  -0.35034  -0.35024  -0.34030
 Alpha  occ. eigenvalues --   -0.33666  -0.33503  -0.33466  -0.31955  -0.31535
 Alpha  occ. eigenvalues --   -0.31432  -0.30816  -0.30661  -0.30445  -0.30130
 Alpha  occ. eigenvalues --   -0.29906  -0.29722  -0.29023  -0.24444  -0.24241
 Alpha  occ. eigenvalues --   -0.21441  -0.21220
 Alpha virt. eigenvalues --   -0.08854  -0.08803  -0.01853  -0.01720   0.00141
 Alpha virt. eigenvalues --    0.01145   0.01608   0.02243   0.02300   0.02950
 Alpha virt. eigenvalues --    0.04566   0.04711   0.05616   0.05730   0.05950

 Mulliken charges:
               1
     1  Mg  12.000366
     2  C    6.017588
     3  C    5.985315
     4  C    5.976355
     5  C    6.006211
     6  N    7.008222
     7  C    5.963625
     8  C    6.011113
     9  C    5.985044
    10  C    6.034371
    11  C    5.996646
    12  C    5.999186
    13  C    6.002105
    14  H    0.990841
    15  N    6.990119
    16  C    6.043756
    17  C    6.021615
    18  C    6.014011
    19  C    6.039170
    20  C    5.994432
    21  C    6.008088
    22  O    8.018557
    23  C    5.997768
    24  N    6.998969
    25  C    6.034562
    26  C    5.989940
    27  C    6.010805
    28  C    5.966511
    29  C    5.997009
    30  C    6.007487
    31  C    6.001247
    32  N    7.001541
    33  C    5.967685
    34  C    5.966964
    35  C    5.999975
    36  C    5.971577
    37  C    6.001376
    38  C    5.984978
    39  O    7.969683
    40  C    6.000923
    41  C    5.995718
    42  O    7.993156
    43  O    8.001261
    44  C    6.001318
    45  H    1.010338
    46  H    1.005854
    47  H    0.990984
    48  H    1.002916
    49  H    1.006156
    50  H    1.003972
    51  H    1.016308
    52  H    0.999638
    53  H    0.988379
    54  H    1.005390
    55  H    1.002278
    56  H    1.000527
    57  H    1.019270
    58  H    1.019193
    59  H    1.018815
    60  H    1.010763
    61  H    1.011312
    62  H    1.011345
    63  H    0.999201
    64  H    0.998825
    65  H    1.000791
    66  H    0.994345
    67  H    1.010087
    68  H    0.997185
    69  H    0.987170
    70  H    0.993818
    71  H    1.001768
    72  H    1.004050
    73  H    0.980308
    74  H    0.982615
    75  H    0.980446
    76  H    0.991375
    77  H    1.000174
    78  H    0.993369
    79  H    0.993849
    80  Mg  11.999672
    81  C    6.001495
    82  C    5.999261
    83  C    5.997595
    84  C    6.000749
    85  N    7.000333
    86  C    5.998008
    87  C    6.000629
    88  C    5.999334
    89  C    6.002046
    90  C    5.999645
    91  C    6.000147
    92  C    6.000029
    93  H    0.999452
    94  N    6.998999
    95  C    6.003421
    96  C    6.001108
    97  C    6.000955
    98  C    6.003179
    99  C    5.999515
   100  C    6.000720
   101  O    8.001976
   102  C    5.999890
   103  N    6.999939
   104  C    6.002739
   105  C    5.999389
   106  C    6.000534
   107  C    5.997994
   108  C    5.999973
   109  C    6.000421
   110  C    6.000206
   111  N    7.000291
   112  C    5.996965
   113  C    5.997760
   114  C    5.999784
   115  C    5.997398
   116  C    6.000096
   117  C    5.998818
   118  O    7.997563
   119  C    5.999911
   120  C    5.999647
   121  O    7.999671
   122  O    7.999846
   123  C    6.000234
   124  H    1.002102
   125  H    1.000100
   126  H    0.998902
   127  H    0.999995
   128  H    1.000702
   129  H    1.001645
   130  H    1.000821
   131  H    0.999803
   132  H    0.999456
   133  H    1.000176
   134  H    1.000044
   135  H    1.000369
   136  H    1.001283
   137  H    1.002440
   138  H    1.002034
   139  H    1.000402
   140  H    1.000786
   141  H    1.000413
   142  H    0.999848
   143  H    0.999551
   144  H    0.999769
   145  H    0.999940
   146  H    1.000313
   147  H    1.000001
   148  H    0.998996
   149  H    0.999295
   150  H    1.000014
   151  H    0.999994
   152  H    0.998345
   153  H    0.998576
   154  H    0.998270
   155  H    0.999283
   156  H    0.999435
   157  H    0.999671
   158  H    0.999892
 Sum of Mulliken charges = 624.00000

 Dipole moment (field-independent basis, Debye):
    X=            -10.4564    Y=             -3.4339    Z=              0.5267  Tot=             11.0184
 Quadrupole moment (field-independent basis, Debye-Ang):
   XX=            203.0556   YY=             -2.3416   ZZ=             -1.6630
   XY=             49.6213   XZ=             -4.2154   YZ=              2.2163

 Normal termination of Gaussian 16 at Thu Sep 23 04:48:37 2021.
