 Gaussian 16, Revision A.03,
 Gaussian 16:  ES64L-G16RevA.03 25-Dec-2016

 -----------------------------------
 #p cam-b3lyp/Def2SVP td=(nstates=5)
 -----------------------------------

 --------------------------------
 TDDFT excited states in gaussian
 --------------------------------
 Symbolic Z-matrix:
 Charge =  0 Multiplicity = 1

                         Standard orientation:
 ---------------------------------------------------------------------
 Center     Atomic      Atomic             Coordinates (Angstroms)
 Number     Number       Type             X           Y           Z
 ---------------------------------------------------------------------
      1         12           0      -17.179771   -0.778681    0.256704
      2          6           0      -16.989016    2.534202   -0.974132
      3          6           0      -16.135765    0.375965    3.251050
      4          6           0      -17.242596   -3.880834    1.301217
      5          6           0      -17.541460   -1.847400   -3.148420
      6          7           0      -16.508493    1.246899    1.063121
      7          6           0      -16.779896    2.441822    0.417929
      8          6           0      -16.635326    3.523335    1.433429
      9          6           0      -15.837255    2.885774    2.571154
     10          6           0      -16.173845    1.391846    2.336660
     11          6           0      -14.294290    3.141986    2.388622
     12          6           0      -18.004495    4.205972    1.973771
     13          6           0      -18.094762    5.750621    2.168113
     14          1           0      -16.941131    6.424992    2.965495
     15          7           0      -16.721166   -1.613230    2.070612
     16          6           0      -16.340895   -0.975879    3.138439
     17          6           0      -16.095822   -1.964273    4.203008
     18          6           0      -16.614170   -3.214152    3.747087
     19          6           0      -16.865979   -2.953874    2.301232
     20          6           0      -15.444226   -1.744713    5.616734
     21          6           0      -16.857991   -4.538563    4.469825
     22          8           0      -17.210560   -5.591316    3.904525
     23          6           0      -16.463763   -4.645987    5.866071
     24          7           0      -17.201822   -2.648339   -0.865582
     25          6           0      -17.338227   -3.828249   -0.138956
     26          6           0      -17.715470   -4.996619   -1.129333
     27          6           0      -17.929701   -4.264540   -2.477569
     28          6           0      -17.576467   -2.811503   -2.152284
     29          6           0      -16.708741   -6.147093   -1.107434
     30          6           0      -19.300444   -4.485106   -3.165490
     31          6           0      -19.317591   -4.641662   -4.703980
     32          7           0      -17.240345    0.099798   -1.683125
     33          6           0      -17.337789   -0.445461   -2.959406
     34          6           0      -17.491511    0.629568   -3.906318
     35          6           0      -17.303334    1.806172   -3.179586
     36          6           0      -17.162625    1.462317   -1.806783
     37          6           0      -17.789706    0.517611   -5.273365
     38          6           0      -17.285947    3.275006   -3.244565
     39          8           0      -17.450636    4.066658   -4.159194
     40          6           0      -17.102839    3.803292   -1.784166
     41          6           0      -15.871075    4.690955   -1.776852
     42          8           0      -14.685526    4.468453   -1.679027
     43          8           0      -16.426939    5.937323   -1.804115
     44          6           0      -15.556341    7.088411   -1.465678
     45          1           0      -15.884199    0.745901    4.247585
     46          1           0      -17.453585   -4.862411    1.730537
     47          1           0      -17.872638   -2.134214   -4.148216
     48          1           0      -16.081967    4.407239    1.115263
     49          1           0      -16.246629    3.117741    3.554063
     50          1           0      -13.747547    3.232583    3.326613
     51          1           0      -14.069839    4.100404    1.919837
     52          1           0      -13.924688    2.258527    1.869173
     53          1           0      -18.337066    3.683435    2.870079
     54          1           0      -18.823639    3.963183    1.295879
     55          1           0      -18.977026    5.848978    2.801639
     56          1           0      -18.188754    6.094912    1.138167
     57          1           0      -16.122065   -1.845210    6.464096
     58          1           0      -15.018559   -0.740873    5.615447
     59          1           0      -14.693924   -2.482140    5.902073
     60          1           0      -16.924267   -3.858160    6.462780
     61          1           0      -15.379671   -4.593980    5.967570
     62          1           0      -16.933567   -5.548299    6.256277
     63          1           0      -18.712539   -5.325316   -0.835840
     64          1           0      -17.122958   -4.497777   -3.172185
     65          1           0      -15.927628   -5.950498   -1.842552
     66          1           0      -17.114461   -7.110653   -1.414074
     67          1           0      -16.141108   -6.102818   -0.178539
     68          1           0      -20.060345   -3.755713   -2.885492
     69          1           0      -19.789981   -5.380099   -2.779163
     70          1           0      -19.578620   -3.647750   -5.067735
     71          1           0      -20.159086   -5.305709   -4.904130
     72          1           0      -18.344256   -4.979528   -5.058683
     73          1           0      -17.530231    1.326087   -5.956469
     74          1           0      -18.851247    0.277801   -5.342027
     75          1           0      -17.198044   -0.326086   -5.626783
     76          1           0      -17.989511    4.355512   -1.473314
     77          1           0      -16.166808    7.709678   -0.810976
     78          1           0      -15.235684    7.711897   -2.299885
     79          1           0      -14.685827    6.744837   -0.907489
     80         12           0       17.398835   -0.552336   -0.152393
     81          6           0       14.967871    1.911003    0.410758
     82          6           0       19.799042    1.905381    0.077471
     83          6           0       19.665880   -2.883778   -0.715040
     84          6           0       14.803405   -2.892719   -0.511619
     85          7           0       17.327661    1.617442    0.288543
     86          6           0       16.233200    2.462748    0.471924
     87          6           0       16.628645    3.881487    1.041541
     88          6           0       18.117934    3.836782    0.759181
     89          6           0       18.463817    2.345633    0.349808
     90          6           0       18.484348    4.761201   -0.490798
     91          6           0       16.349556    3.760530    2.605350
     92          6           0       15.675461    5.012918    3.320345
     93          1           0       16.137571    6.285145    2.657051
     94          7           0       19.377999   -0.460288   -0.435913
     95          6           0       20.183965    0.591150   -0.317577
     96          6           0       21.569054    0.252170   -0.510708
     97          6           0       21.595496   -1.155533   -0.564131
     98          6           0       20.145079   -1.574799   -0.633825
     99          6           0       22.707230    1.205083   -0.545581
    100          6           0       22.759371   -2.121070   -0.475806
    101          8           0       22.612855   -3.333263   -0.282097
    102          6           0       24.184177   -1.625081   -0.737561
    103          7           0       17.224419   -2.617081   -0.609073
    104          6           0       18.387984   -3.341164   -0.719862
    105          6           0       18.027919   -4.822880   -0.804978
    106          6           0       16.433304   -4.860573   -0.617654
    107          6           0       16.101908   -3.395237   -0.511316
    108          6           0       18.623240   -5.440878   -2.119245
    109          6           0       15.893658   -5.712668    0.520381
    110          6           0       14.793263   -6.727615    0.078582
    111          7           0       15.319450   -0.502788   -0.092573
    112          6           0       14.369849   -1.555563   -0.281137
    113          6           0       13.046924   -1.049853   -0.188336
    114          6           0       13.255664    0.312144    0.086660
    115          6           0       14.640699    0.577969    0.079054
    116          6           0       11.726912   -1.744047   -0.288832
    117          6           0       12.609971    1.555931    0.360591
    118          8           0       11.447816    1.882598    0.419148
    119          6           0       13.714567    2.600712    0.686278
    120          6           0       13.444432    3.842636   -0.082884
    121          8           0       13.557886    4.014552   -1.293258
    122          8           0       13.100987    4.780202    0.805603
    123          6           0       12.868508    6.114697    0.294294
    124          1           0       20.661400    2.549720    0.260118
    125          1           0       20.464208   -3.605037   -0.907088
    126          1           0       13.968676   -3.595586   -0.553955
    127          1           0       15.931217    4.574930    0.572630
    128          1           0       18.678841    4.106335    1.653444
    129          1           0       17.605706    5.233451   -0.930638
    130          1           0       18.968318    4.140233   -1.244390
    131          1           0       19.185889    5.488843   -0.082632
    132          1           0       17.250303    3.578816    3.190892
    133          1           0       15.734901    2.869151    2.733524
    134          1           0       16.083237    5.146985    4.322334
    135          1           0       14.616931    4.840101    3.516350
    136          1           0       23.296540    1.016001    0.352705
    137          1           0       22.363717    2.237778   -0.504330
    138          1           0       23.343627    1.087257   -1.422127
    139          1           0       24.668093   -2.576052   -0.959041
    140          1           0       24.629176   -1.091147    0.102907
    141          1           0       24.351281   -1.037562   -1.640134
    142          1           0       18.449763   -5.456808   -0.025106
    143          1           0       15.989445   -5.225125   -1.544131
    144          1           0       19.081603   -6.382981   -1.818292
    145          1           0       19.320123   -4.785165   -2.641349
    146          1           0       17.835922   -5.838448   -2.760776
    147          1           0       15.502208   -5.141385    1.361521
    148          1           0       16.730095   -6.363990    0.777780
    149          1           0       14.684085   -6.730061   -1.006057
    150          1           0       13.799363   -6.402516    0.385441
    151          1           0       15.027982   -7.737939    0.414259
    152          1           0       11.686508   -2.259626    0.671070
    153          1           0       11.768497   -2.360458   -1.186566
    154          1           0       10.889734   -1.047816   -0.311617
    155          1           0       13.515311    2.851924    1.728905
    156          1           0       12.133001    6.082171   -0.509979
    157          1           0       13.716582    6.616892   -0.172407
    158          1           0       12.481641    6.695170    1.132035
 ---------------------------------------------------------------------

 SCF Done:  E(RCAM-B3LYP) =  -4069.83053423     A.U. after   19 cycles

 Excitation energies and oscillator strengths:

 Excited State   1:      Singlet-A      1.7257 eV  718.45 nm  f=0.3861  <S**2>=0.000
     309 -> 316       -0.16118
     311 -> 313        0.68735
 This state for optimization and/or second-order correction.
 Total Energy, E(TD-HF/TD-DFT) =  -4069.76711506
 Copying the excited state density for this state as the 1-particle RhoCI density.

 Excited State   2:      Singlet-A      1.7330 eV  715.44 nm  f=0.3824  <S**2>=0.000
     310 -> 315       -0.19043
     312 -> 314        0.68110
     310 <- 315       -0.10750

 Excited State   3:      Singlet-A      2.2616 eV  548.21 nm  f=0.0673  <S**2>=0.000
     310 -> 314        0.62174
     312 -> 315        0.32221

 Excited State   4:      Singlet-A      2.2841 eV  542.82 nm  f=0.1226  <S**2>=0.000
     309 -> 313        0.63699
     311 -> 316        0.28302

 Excited State   5:      Singlet-A      3.0927 eV  400.90 nm  f=0.0000  <S**2>=0.000
     312 -> 313        0.70709

 The electronic state is 1-A.
 Alpha  occ. eigenvalues --  -46.89313 -46.87744 -19.25232 -19.24298 -19.19968
 Alpha  occ. eigenvalues --  -19.19897 -19.19204 -19.18765 -19.18624 -19.17378
 Alpha  occ. eigenvalues --  -14.42216 -14.41721 -14.41596 -14.41368 -14.40198
 Alpha  occ. eigenvalues --  -14.39802 -14.38898 -14.38444 -10.39171 -10.38286
 Alpha  occ. eigenvalues --  -10.36213 -10.35471 -10.34758 -10.33128 -10.31880
 Alpha  occ. eigenvalues --  -10.31643 -10.31391 -10.31337 -10.30989 -10.30757
 Alpha  occ. eigenvalues --  -10.30694 -10.30656 -10.30603 -10.30425 -10.30285
 Alpha  occ. eigenvalues --  -10.30092 -10.29984 -10.29930 -10.29812 -10.29487
 Alpha  occ. eigenvalues --  -10.29398 -10.29041 -10.28986 -10.28889 -10.28416
 Alpha  occ. eigenvalues --  -10.28315 -10.28156 -10.27955 -10.27860 -10.27844
 Alpha  occ. eigenvalues --  -10.27806 -10.27656 -10.27611 -10.27526 -10.27523
 Alpha  occ. eigenvalues --  -10.27504 -10.27500 -10.27475 -10.27425 -10.27300
 Alpha  occ. eigenvalues --  -10.27261 -10.27126 -10.27123 -10.27071 -10.27051
 Alpha  occ. eigenvalues --  -10.26671 -10.26634 -10.26610 -10.26509 -10.26484
 Alpha  occ. eigenvalues --  -10.26322 -10.26201 -10.26149 -10.26136 -10.26007
 Alpha  occ. eigenvalues --  -10.25998 -10.25863 -10.25771 -10.25754 -10.25686
 Alpha  occ. eigenvalues --  -10.25648 -10.25573 -10.25400 -10.25201 -10.24739
 Alpha  occ. eigenvalues --  -10.23558  -3.17701  -3.16454  -1.92598  -1.92158
 Alpha  occ. eigenvalues --   -1.91993  -1.91363  -1.90889  -1.90785  -1.17073
 Alpha  occ. eigenvalues --   -1.16053  -1.10334  -1.09533  -1.09342  -1.09311
 Alpha  occ. eigenvalues --   -1.07698  -1.07056  -1.05096  -1.04961  -1.03889
 Alpha  occ. eigenvalues --   -1.03883  -1.02998  -1.02897  -1.02320  -1.02012
 Alpha  occ. eigenvalues --   -0.92709  -0.92626  -0.89620  -0.88826  -0.88459
 Alpha  occ. eigenvalues --   -0.88421  -0.88398  -0.87953  -0.87928  -0.87506
 Alpha  occ. eigenvalues --   -0.87071  -0.87008  -0.86828  -0.86611  -0.84175
 Alpha  occ. eigenvalues --   -0.83930  -0.83536  -0.83502  -0.82675  -0.82414
 Alpha  occ. eigenvalues --   -0.82330  -0.81820  -0.81444  -0.81247  -0.80538
 Alpha  occ. eigenvalues --   -0.80355  -0.78883  -0.78330  -0.77400  -0.77395
 Alpha  occ. eigenvalues --   -0.76975  -0.76740  -0.75801  -0.75575  -0.75059
 Alpha  occ. eigenvalues --   -0.74955  -0.73078  -0.72451  -0.71759  -0.71380
 Alpha  occ. eigenvalues --   -0.69162  -0.68847  -0.68842  -0.68699  -0.67641
 Alpha  occ. eigenvalues --   -0.67584  -0.67366  -0.67309  -0.65420  -0.65390
 Alpha  occ. eigenvalues --   -0.65253  -0.65219  -0.64990  -0.64990  -0.64480
 Alpha  occ. eigenvalues --   -0.64270  -0.62448  -0.61878  -0.60765  -0.60425
 Alpha  occ. eigenvalues --   -0.59569  -0.59546  -0.59177  -0.59115  -0.58605
 Alpha  occ. eigenvalues --   -0.58263  -0.57884  -0.57739  -0.57444  -0.57276
 Alpha  occ. eigenvalues --   -0.56618  -0.56097  -0.55840  -0.55637  -0.55304
 Alpha  occ. eigenvalues --   -0.55144  -0.54434  -0.54403  -0.53800  -0.53641
 Alpha  occ. eigenvalues --   -0.53514  -0.53510  -0.53190  -0.53168  -0.53142
 Alpha  occ. eigenvalues --   -0.52891  -0.52571  -0.52516  -0.52370  -0.52132
 Alpha  occ. eigenvalues --   -0.52064  -0.51748  -0.51629  -0.51513  -0.51289
 Alpha  occ. eigenvalues --   -0.51147  -0.51011  -0.50746  -0.50711  -0.50387
 Alpha  occ. eigenvalues --   -0.50355  -0.50275  -0.49957  -0.49919  -0.49612
 Alpha  occ. eigenvalues --   -0.49552  -0.49302  -0.49237  -0.48926  -0.48776
 Alpha  occ. eigenvalues --   -0.48609  -0.48498  -0.48393  -0.48119  -0.47873
 Alpha  occ. eigenvalues --   -0.47651  -0.47605  -0.47515  -0.47331  -0.47153
 Alpha  occ. eigenvalues --   -0.47076  -0.46837  -0.46715  -0.46591  -0.46537
 Alpha  occ. eigenvalues --   -0.46371  -0.46197  -0.46053  -0.45861  -0.45492
 Alpha  occ. eigenvalues --   -0.45249  -0.45037  -0.44973  -0.44868  -0.44683
 Alpha  occ. eigenvalues --   -0.44634  -0.44529  -0.44425  -0.44296  -0.44265
 Alpha  occ. eigenvalues --   -0.43990  -0.43793  -0.43669  -0.43638  -0.43629
 Alpha  occ. eigenvalues --   -0.43056  -0.42961  -0.42909  -0.42827  -0.42663
 Alpha  occ. eigenvalues --   -0.42587  -0.42320  -0.42246  -0.42106  -0.41913
 Alpha  occ. eigenvalues --   -0.41861  -0.41548  -0.41479  -0.41181  -0.41092
 Alpha  occ. eigenvalues --   -0.40811  -0.40790  -0.40493  -0.40353  -0.40191
 Alpha  occ. eigenvalues --   -0.40040  -0.39797  -0.39710  -0.39558  -0.38787
 Alpha  occ. eigenvalues --   -0.38719  -0.38251  -0.37609  -0.37605  -0.37392
 Alpha  occ. eigenvalues --   -0.37337  -0.36886  -0.36467  -0.36441  -0.36387
 Alpha  occ. eigenvalues --   -0.36283  -0.35872  -0.34601  -0.34214  -0.33842
 Alpha  occ. eigenvalues --   -0.33818  -0.33044  -0.32782  -0.32243  -0.31633
 Alpha  occ. eigenvalues --   -0.31367  -0.31114  -0.30875  -0.30502  -0.30405
 Alpha  occ. eigenvalues --   -0.29658  -0.29239  -0.29201  -0.24098  -0.23912
 Alpha  occ. eigenvalues --   -0.21032  -0.20913
 Alpha virt. eigenvalues --   -0.08558  -0.08221  -0.02003  -0.01673  -0.00081
 Alpha virt. eigenvalues --    0.00545   0.01806   0.02376   0.02840   0.03433
 Alpha virt. eigenvalues --    0.05252   0.05593   0.05838   0.05906   0.06029

 Mulliken charges:
               1
     1  Mg   0.808039
     2  C   -0.037960
     3  C   -0.089772
     4  C   -0.053021
     5  C   -0.086834
     6  N   -0.255060
     7  C    0.011467
     8  C   -0.052141
     9  C   -0.029257
    10  C   -0.033319
    11  C    0.087624
    12  C    0.015910
    13  C   -0.056966
    14  H    0.015534
    15  N   -0.338743
    16  C    0.178091
    17  C   -0.150767
    18  C   -0.029542
    19  C    0.090587
    20  C    0.102811
    21  C    0.020425
    22  O   -0.219911
    23  C    0.059576
    24  N   -0.286763
    25  C    0.009244
    26  C   -0.007535
    27  C   -0.009765
    28  C    0.041964
    29  C    0.096728
    30  C    0.007936
    31  C    0.017139
    32  N   -0.353019
    33  C    0.116955
    34  C   -0.178594
    35  C    0.026962
    36  C    0.138511
    37  C    0.109200
    38  C    0.030135
    39  O   -0.162857
    40  C   -0.011638
    41  C    0.215725
    42  O   -0.195304
    43  O   -0.343020
    44  C    0.168197
    45  H   -0.039324
    46  H   -0.000921
    47  H   -0.036940
    48  H    0.002034
    49  H   -0.005800
    50  H    0.006533
    51  H    0.024774
    52  H    0.036033
    53  H   -0.001609
    54  H   -0.000314
    55  H    0.042106
    56  H    0.049214
    57  H    0.021931
    58  H    0.018385
    59  H    0.019720
    60  H    0.016980
    61  H    0.053809
    62  H    0.028079
    63  H    0.011475
    64  H    0.009164
    65  H   -0.005817
    66  H    0.023749
    67  H    0.026193
    68  H   -0.000058
    69  H   -0.001247
    70  H    0.023400
    71  H    0.015870
    72  H    0.024121
    73  H    0.035026
    74  H    0.030376
    75  H    0.016906
    76  H    0.051126
    77  H    0.029795
    78  H    0.045965
    79  H    0.042295
    80  Mg   0.840630
    81  C    0.028142
    82  C   -0.106845
    83  C   -0.066766
    84  C   -0.071307
    85  N   -0.281525
    86  C   -0.102076
    87  C   -0.000392
    88  C   -0.045991
    89  C    0.075571
    90  C    0.067057
    91  C    0.037855
    92  C   -0.060926
    93  H    0.017416
    94  N   -0.375399
    95  C    0.135948
    96  C   -0.158191
    97  C   -0.029526
    98  C    0.112164
    99  C    0.127611
   100  C    0.018917
   101  O   -0.213694
   102  C    0.015295
   103  N   -0.316296
   104  C    0.098072
   105  C   -0.060696
   106  C   -0.001781
   107  C    0.049114
   108  C    0.056788
   109  C    0.053014
   110  C   -0.019157
   111  N   -0.321831
   112  C    0.076453
   113  C   -0.187173
   114  C    0.016464
   115  C    0.096312
   116  C    0.134234
   117  C    0.001245
   118  O   -0.166706
   119  C   -0.002521
   120  C    0.159873
   121  O   -0.226859
   122  O   -0.302954
   123  C    0.183657
   124  H   -0.025754
   125  H    0.002357
   126  H   -0.035511
   127  H    0.026805
   128  H    0.014427
   129  H    0.029611
   130  H    0.022761
   131  H    0.018121
   132  H    0.007118
   133  H    0.019930
   134  H    0.019423
   135  H    0.040691
   136  H    0.029927
   137  H    0.017935
   138  H    0.035616
   139  H    0.033376
   140  H    0.043070
   141  H    0.031307
   142  H    0.017382
   143  H    0.009785
   144  H    0.005301
   145  H    0.040358
   146  H    0.003608
   147  H    0.024224
   148  H    0.003342
   149  H    0.001231
   150  H    0.016293
   151  H    0.023375
   152  H    0.031455
   153  H    0.031615
   154  H    0.036770
   155  H    0.038082
   156  H    0.036816
   157  H    0.027805
   158  H    0.038127
 Sum of Mulliken charges =  -0.00000

 Dipole moment (field-independent basis, Debye):
    X=              3.3652    Y=             -0.0180    Z=              5.8532  Tot=              6.7516
 Quadrupole moment (field-independent basis, Debye-Ang):
   XX=           -287.7416   YY=           -489.7462   ZZ=           -501.3783
   XY=             42.8071   XZ=            -32.1639   YZ=             43.1978

 Normal termination of Gaussian 16 at Wed Sep 15 13:42:27 2021.
