 Gaussian 16, Revision A.03,
 Gaussian 16:  ES64L-G16RevA.03 25-Dec-2016

 ----------------------------------------------------------
 #p cam-b3lyp/Def2SVP td=(nstates=5) density=(transition=1)
 ----------------------------------------------------------

 --------------------------------
 TDDFT excited states in gaussian
 --------------------------------
 Symbolic Z-matrix:
 Charge =  0 Multiplicity = 1

                         Standard orientation:
 ---------------------------------------------------------------------
 Center     Atomic      Atomic             Coordinates (Angstroms)
 Number     Number       Type             X           Y           Z
 ---------------------------------------------------------------------
      1         12           0       17.664830   -0.619964    0.224778
      2          6           0       15.850497    2.285519    0.602138
      3          6           0       20.500344    1.277282    0.484318
      4          6           0       19.448844   -3.410765   -0.433348
      5          6           0       14.754729   -2.333602   -0.602197
      6          7           0       18.044215    1.614479    0.380502
      7          6           0       17.212170    2.526166    0.709179
      8          6           0       17.828447    3.983099    1.034647
      9          6           0       19.335303    3.666427    0.681495
     10          6           0       19.328553    2.087591    0.410383
     11          6           0       19.895131    4.393819   -0.650640
     12          6           0       17.609955    4.500865    2.522091
     13          6           0       17.472770    6.048891    2.744380
     14          1           0       17.813940    6.927774    1.579137
     15          7           0       19.635329   -1.030049    0.126523
     16          6           0       20.728849   -0.104331    0.351098
     17          6           0       21.969980   -0.867527    0.271026
     18          6           0       21.688465   -2.204433   -0.105646
     19          6           0       20.209893   -2.278139   -0.109429
     20          6           0       23.227551   -0.147361    0.601363
     21          6           0       22.622571   -3.414609   -0.340567
     22          8           0       22.288028   -4.484186   -0.755661
     23          6           0       24.126380   -3.115412   -0.175911
     24          7           0       17.238196   -2.605202   -0.535619
     25          6           0       18.093166   -3.559794   -0.725502
     26          6           0       17.447667   -4.775819   -1.448583
     27          6           0       15.930710   -4.474123   -1.397130
     28          6           0       15.935203   -3.050992   -0.790964
     29          6           0       18.008282   -4.932859   -2.878108
     30          6           0       15.135899   -5.542398   -0.585196
     31          6           0       15.000820   -6.911337   -1.271446
     32          7           0       15.663657   -0.158813    0.026458
     33          6           0       14.590911   -0.997693   -0.217956
     34          6           0       13.404938   -0.190609   -0.101740
     35          6           0       13.799334    1.150828    0.183765
     36          6           0       15.214070    1.047873    0.277119
     37          6           0       12.082472   -0.654331   -0.310297
     38          6           0       13.400672    2.486605    0.494559
     39          8           0       12.236408    2.986221    0.473266
     40          6           0       14.748668    3.289941    0.660057
     41          6           0       14.752830    4.336132   -0.340069
     42          8           0       15.075779    4.172604   -1.516383
     43          8           0       14.194681    5.448393    0.236879
     44          6           0       13.894652    6.518353   -0.737948
     45          1           0       21.422004    1.859710    0.537770
     46          1           0       20.090415   -4.277362   -0.610013
     47          1           0       13.863954   -2.934188   -0.800174
     48          1           0       17.389743    4.619638    0.265813
     49          1           0       19.984415    3.974873    1.500775
     50          1           0       19.038091    4.694325   -1.254034
     51          1           0       20.518284    3.699017   -1.213483
     52          1           0       20.517033    5.275992   -0.495156
     53          1           0       18.509985    4.170665    3.040074
     54          1           0       16.894212    3.944402    3.128182
     55          1           0       18.056530    6.425745    3.584117
     56          1           0       16.425163    6.288167    2.927281
     57          1           0       23.608406    0.381692   -0.272693
     58          1           0       23.951460   -0.771821    1.125106
     59          1           0       22.972793    0.598308    1.354099
     60          1           0       24.457200   -3.002647    0.857005
     61          1           0       24.224126   -2.195949   -0.752203
     62          1           0       24.806185   -3.821850   -0.651329
     63          1           0       17.705641   -5.602990   -0.787698
     64          1           0       15.541962   -4.385748   -2.411581
     65          1           0       18.410369   -4.026479   -3.331299
     66          1           0       17.318990   -5.230120   -3.669131
     67          1           0       18.799823   -5.677497   -2.794469
     68          1           0       14.117471   -5.184638   -0.440297
     69          1           0       15.590594   -5.671191    0.397611
     70          1           0       15.596406   -6.881451   -2.183863
     71          1           0       13.997988   -6.995967   -1.690364
     72          1           0       15.168609   -7.814811   -0.685697
     73          1           0       12.043188   -1.608031    0.216165
     74          1           0       11.798770   -0.858427   -1.342620
     75          1           0       11.389030    0.121190    0.016610
     76          1           0       14.640902    3.741666    1.646527
     77          1           0       13.106416    6.126604   -1.381461
     78          1           0       14.793545    6.878236   -1.237427
     79          1           0       13.486070    7.359249   -0.177324
     80         12           0      -17.339175   -0.797057    0.321451
     81          6           0      -17.644704    2.372320   -1.147039
     82          6           0      -16.341250    0.755826    3.227807
     83          6           0      -17.029259   -3.792469    1.671689
     84          6           0      -18.222134   -2.207845   -2.772536
     85          7           0      -17.130984    1.323380    0.927940
     86          6           0      -17.280155    2.491685    0.180393
     87          6           0      -17.315809    3.798949    1.065521
     88          6           0      -16.758824    3.221714    2.352484
     89          6           0      -16.741493    1.646648    2.180402
     90          6           0      -15.245740    3.684284    2.571261
     91          6           0      -18.869014    4.118301    1.219108
     92          6           0      -19.309111    5.644505    1.113673
     93          1           0      -18.222509    6.525731    1.674746
     94          7           0      -16.640332   -1.404402    2.095908
     95          6           0      -16.277521   -0.665356    3.140554
     96          6           0      -15.911370   -1.461322    4.282065
     97          6           0      -16.267763   -2.779844    3.936139
     98          6           0      -16.623677   -2.719941    2.468458
     99          6           0      -15.365954   -0.952449    5.565917
    100          6           0      -16.393219   -4.021720    4.794435
    101          8           0      -16.958802   -5.050780    4.407714
    102          6           0      -15.710599   -4.075197    6.164020
    103          7           0      -17.552464   -2.745855   -0.490242
    104          6           0      -17.421415   -3.808476    0.372381
    105          6           0      -17.849368   -5.079119   -0.358846
    106          6           0      -18.363369   -4.565133   -1.790954
    107          6           0      -18.102270   -3.084771   -1.697703
    108          6           0      -16.680282   -6.126176   -0.335717
    109          6           0      -19.786394   -4.930316   -2.183444
    110          6           0      -19.897024   -5.612698   -3.582833
    111          7           0      -17.808310   -0.076124   -1.573290
    112          6           0      -18.135476   -0.786026   -2.771053
    113          6           0      -18.346378    0.121986   -3.841342
    114          6           0      -18.161896    1.371924   -3.226646
    115          6           0      -17.792121    1.174406   -1.880060
    116          6           0      -18.727111   -0.119959   -5.266454
    117          6           0      -18.186763    2.784677   -3.432739
    118          8           0      -18.384979    3.468861   -4.409134
    119          6           0      -17.958107    3.467843   -2.054778
    120          6           0      -16.932135    4.531134   -2.208887
    121          8           0      -15.728166    4.388834   -2.402904
    122          8           0      -17.558311    5.699614   -2.038734
    123          6           0      -16.738321    6.892697   -2.061692
    124          1           0      -16.145965    1.115488    4.240082
    125          1           0      -16.896633   -4.753954    2.174064
    126          1           0      -18.559887   -2.599599   -3.734325
    127          1           0      -16.818556    4.558079    0.462522
    128          1           0      -17.399734    3.487328    3.192522
    129          1           0      -14.877608    4.303455    1.752973
    130          1           0      -14.624032    2.792581    2.649206
    131          1           0      -15.269780    4.221318    3.519543
    132          1           0      -19.283691    3.791940    2.172395
    133          1           0      -19.375868    3.519887    0.461622
    134          1           0      -20.121754    5.857475    1.808290
    135          1           0      -19.760458    5.865048    0.145987
    136          1           0      -16.138920   -1.118029    6.317624
    137          1           0      -15.173102    0.118482    5.520351
    138          1           0      -14.450907   -1.455503    5.877115
    139          1           0      -15.682353   -5.154878    6.309151
    140          1           0      -16.247790   -3.540584    6.948310
    141          1           0      -14.661489   -3.783918    6.211611
    142          1           0      -18.676308   -5.627583    0.092126
    143          1           0      -17.696080   -4.962689   -2.555770
    144          1           0      -17.142589   -7.075271   -0.064207
    145          1           0      -15.857555   -5.857478    0.326946
    146          1           0      -16.359411   -6.382492   -1.346082
    147          1           0      -20.485359   -4.094752   -2.163549
    148          1           0      -20.045204   -5.741123   -1.501014
    149          1           0      -18.907274   -5.817428   -3.991302
    150          1           0      -20.292971   -4.929228   -4.333689
    151          1           0      -20.457721   -6.545906   -3.525669
    152          1           0      -19.782655   -0.372689   -5.162428
    153          1           0      -18.060466   -0.898117   -5.637496
    154          1           0      -18.674421    0.783823   -5.871868
    155          1           0      -18.899314    3.991052   -1.880820
    156          1           0      -16.148043    6.920991   -2.978019
    157          1           0      -15.981133    6.983769   -1.282197
    158          1           0      -17.430482    7.734534   -2.036198
 ---------------------------------------------------------------------

 SCF Done:  E(RCAM-B3LYP) =  -4069.85025725     A.U. after   19 cycles

 Excitation energies and oscillator strengths:

 Excited State   1:      Singlet-A      1.7259 eV  718.39 nm  f=0.3847  <S**2>=0.000
     309 -> 316        0.16126
     312 -> 313        0.68776
 This state for optimization and/or second-order correction.
 Total Energy, E(TD-HF/TD-DFT) =  -4069.78683270
 Copying the excited state density for this state as the 1-particle RhoCI density.

 Excited State   2:      Singlet-A      1.7724 eV  699.53 nm  f=0.3814  <S**2>=0.000
     310 -> 315        0.19901
     311 -> 314        0.67933
     310 <- 315        0.10974

 Excited State   3:      Singlet-A      2.2144 eV  559.90 nm  f=0.1101  <S**2>=0.000
     310 -> 314        0.64302
     311 -> 315       -0.28130

 Excited State   4:      Singlet-A      2.2841 eV  542.81 nm  f=0.1221  <S**2>=0.000
     309 -> 313        0.63702
     312 -> 316       -0.28300

 Excited State   5:      Singlet-A      3.1660 eV  391.62 nm  f=0.0000  <S**2>=0.000
     312 -> 314        0.70709

 The electronic state is 1-A.
 Alpha  occ. eigenvalues --  -46.88374 -46.87720 -19.25208 -19.24771 -19.20143
 Alpha  occ. eigenvalues --  -19.19873 -19.19281 -19.18741 -19.18215 -19.17356
 Alpha  occ. eigenvalues --  -14.42196 -14.42192 -14.41572 -14.41515 -14.40174
 Alpha  occ. eigenvalues --  -14.39655 -14.38921 -14.38420 -10.38528 -10.38261
 Alpha  occ. eigenvalues --  -10.36252 -10.36189 -10.34737 -10.33105 -10.31856
 Alpha  occ. eigenvalues --  -10.31816 -10.31313 -10.31244 -10.30965 -10.30659
 Alpha  occ. eigenvalues --  -10.30647 -10.30633 -10.30579 -10.30452 -10.30401
 Alpha  occ. eigenvalues --  -10.30400 -10.30315 -10.30068 -10.29411 -10.29194
 Alpha  occ. eigenvalues --  -10.29018 -10.28965 -10.28961 -10.28906 -10.28900
 Alpha  occ. eigenvalues --  -10.28865 -10.28390 -10.28289 -10.28164 -10.28071
 Alpha  occ. eigenvalues --  -10.27930 -10.27779 -10.27767 -10.27745 -10.27592
 Alpha  occ. eigenvalues --  -10.27535 -10.27504 -10.27480 -10.27476 -10.27155
 Alpha  occ. eigenvalues --  -10.27114 -10.27097 -10.27080 -10.27047 -10.27030
 Alpha  occ. eigenvalues --  -10.26896 -10.26658 -10.26648 -10.26585 -10.26540
 Alpha  occ. eigenvalues --  -10.26485 -10.26255 -10.26182 -10.26134 -10.26113
 Alpha  occ. eigenvalues --  -10.25977 -10.25840 -10.25752 -10.25664 -10.25643
 Alpha  occ. eigenvalues --  -10.25383 -10.25373 -10.25306 -10.24627 -10.24429
 Alpha  occ. eigenvalues --  -10.23535  -3.16987  -3.16430  -1.91881  -1.91449
 Alpha  occ. eigenvalues --   -1.91339  -1.91291  -1.90865  -1.90761  -1.17048
 Alpha  occ. eigenvalues --   -1.15496  -1.12496  -1.10310  -1.09320  -1.07200
 Alpha  occ. eigenvalues --   -1.07032  -1.06723  -1.05362  -1.04937  -1.04293
 Alpha  occ. eigenvalues --   -1.03865  -1.03435  -1.02873  -1.02296  -1.00850
 Alpha  occ. eigenvalues --   -0.92602  -0.92500  -0.89596  -0.89298  -0.88436
 Alpha  occ. eigenvalues --   -0.88372  -0.88337  -0.87930  -0.87821  -0.87461
 Alpha  occ. eigenvalues --   -0.86985  -0.86939  -0.86833  -0.86588  -0.83906
 Alpha  occ. eigenvalues --   -0.83890  -0.83479  -0.83459  -0.82307  -0.82303
 Alpha  occ. eigenvalues --   -0.81796  -0.81719  -0.81223  -0.81028  -0.80331
 Alpha  occ. eigenvalues --   -0.80256  -0.78858  -0.78526  -0.77378  -0.77367
 Alpha  occ. eigenvalues --   -0.76716  -0.76361  -0.75729  -0.75551  -0.74931
 Alpha  occ. eigenvalues --   -0.74818  -0.73054  -0.72184  -0.71442  -0.71356
 Alpha  occ. eigenvalues --   -0.69392  -0.69139  -0.68825  -0.68770  -0.68161
 Alpha  occ. eigenvalues --   -0.67560  -0.67342  -0.66970  -0.65799  -0.65386
 Alpha  occ. eigenvalues --   -0.65365  -0.65196  -0.64966  -0.64732  -0.64456
 Alpha  occ. eigenvalues --   -0.64058  -0.62424  -0.61528  -0.60741  -0.60001
 Alpha  occ. eigenvalues --   -0.59546  -0.59346  -0.59110  -0.59091  -0.58581
 Alpha  occ. eigenvalues --   -0.58259  -0.57856  -0.57715  -0.57642  -0.57252
 Alpha  occ. eigenvalues --   -0.56594  -0.55969  -0.55695  -0.55613  -0.55280
 Alpha  occ. eigenvalues --   -0.55137  -0.54527  -0.54410  -0.53953  -0.53777
 Alpha  occ. eigenvalues --   -0.53489  -0.53332  -0.53133  -0.53117  -0.52927
 Alpha  occ. eigenvalues --   -0.52704  -0.52546  -0.52493  -0.52111  -0.52047
 Alpha  occ. eigenvalues --   -0.51885  -0.51724  -0.51351  -0.51267  -0.51094
 Alpha  occ. eigenvalues --   -0.50986  -0.50920  -0.50694  -0.50686  -0.50365
 Alpha  occ. eigenvalues --   -0.50363  -0.50253  -0.49934  -0.49588  -0.49409
 Alpha  occ. eigenvalues --   -0.49212  -0.49120  -0.48933  -0.48585  -0.48507
 Alpha  occ. eigenvalues --   -0.48473  -0.48440  -0.48368  -0.48170  -0.47848
 Alpha  occ. eigenvalues --   -0.47812  -0.47765  -0.47627  -0.47492  -0.47130
 Alpha  occ. eigenvalues --   -0.47014  -0.46692  -0.46607  -0.46513  -0.46430
 Alpha  occ. eigenvalues --   -0.46346  -0.46211  -0.46030  -0.46010  -0.45581
 Alpha  occ. eigenvalues --   -0.45225  -0.45098  -0.45014  -0.44834  -0.44660
 Alpha  occ. eigenvalues --   -0.44505  -0.44402  -0.44384  -0.44260  -0.44241
 Alpha  occ. eigenvalues --   -0.44143  -0.43718  -0.43648  -0.43614  -0.43501
 Alpha  occ. eigenvalues --   -0.43184  -0.43031  -0.42899  -0.42802  -0.42753
 Alpha  occ. eigenvalues --   -0.42643  -0.42564  -0.42297  -0.42243  -0.41889
 Alpha  occ. eigenvalues --   -0.41687  -0.41645  -0.41524  -0.41442  -0.41166
 Alpha  occ. eigenvalues --   -0.41071  -0.40767  -0.40632  -0.40332  -0.40182
 Alpha  occ. eigenvalues --   -0.40017  -0.39788  -0.39686  -0.39371  -0.38762
 Alpha  occ. eigenvalues --   -0.38230  -0.38196  -0.37960  -0.37597  -0.37580
 Alpha  occ. eigenvalues --   -0.37368  -0.36861  -0.36859  -0.36533  -0.36417
 Alpha  occ. eigenvalues --   -0.36299  -0.36259  -0.34287  -0.34191  -0.33870
 Alpha  occ. eigenvalues --   -0.33793  -0.33415  -0.32759  -0.32218  -0.31734
 Alpha  occ. eigenvalues --   -0.31343  -0.31176  -0.30851  -0.30361  -0.30123
 Alpha  occ. eigenvalues --   -0.29636  -0.29216  -0.29145  -0.24074  -0.23646
 Alpha  occ. eigenvalues --   -0.21218  -0.21008
 Alpha virt. eigenvalues --   -0.08534  -0.08399  -0.01671  -0.01649  -0.00011
 Alpha virt. eigenvalues --    0.00570   0.02114   0.02623   0.02863   0.03460
 Alpha virt. eigenvalues --    0.05490   0.05619   0.05932   0.05961   0.06460

 Mulliken charges:
               1
     1  Mg  12.000036
     2  C    5.999992
     3  C    6.000242
     4  C    6.000009
     5  C    5.999807
     6  N    6.999974
     7  C    6.000179
     8  C    5.999916
     9  C    6.000096
    10  C    5.999657
    11  C    6.000058
    12  C    5.999928
    13  C    6.000024
    14  H    0.999939
    15  N    7.000037
    16  C    5.999555
    17  C    5.999935
    18  C    5.999739
    19  C    5.999855
    20  C    6.000072
    21  C    5.999906
    22  O    7.999777
    23  C    6.000056
    24  N    7.000000
    25  C    5.999852
    26  C    6.000039
    27  C    5.999883
    28  C    6.000305
    29  C    6.000049
    30  C    5.999941
    31  C    6.000026
    32  N    6.999993
    33  C    6.000411
    34  C    6.000193
    35  C    6.000091
    36  C    6.000134
    37  C    5.999905
    38  C    6.000205
    39  O    8.000296
    40  C    5.999965
    41  C    6.000019
    42  O    7.999992
    43  O    8.000044
    44  C    6.000007
    45  H    0.999893
    46  H    0.999954
    47  H    1.000112
    48  H    0.999950
    49  H    0.999966
    50  H    0.999849
    51  H    0.999998
    52  H    0.999907
    53  H    1.000101
    54  H    1.000034
    55  H    1.000045
    56  H    0.999999
    57  H    0.999788
    58  H    0.999864
    59  H    0.999888
    60  H    0.999936
    61  H    0.999935
    62  H    0.999844
    63  H    1.000050
    64  H    0.999979
    65  H    0.999964
    66  H    0.999872
    67  H    1.000014
    68  H    1.000032
    69  H    1.000119
    70  H    0.999975
    71  H    1.000000
    72  H    1.000084
    73  H    1.000244
    74  H    1.000150
    75  H    1.000187
    76  H    1.000125
    77  H    0.999955
    78  H    0.999999
    79  H    1.000052
    80  Mg  12.003421
    81  C    5.969281
    82  C    6.003440
    83  C    6.032701
    84  C    5.997155
    85  N    6.981499
    86  C    6.036916
    87  C    5.996752
    88  C    6.002493
    89  C    5.978386
    90  C    6.003985
    91  C    5.998893
    92  C    5.996754
    93  H    1.006637
    94  N    7.011559
    95  C    5.963078
    96  C    5.974188
    97  C    5.990510
    98  C    5.951006
    99  C    6.006300
   100  C    5.987819
   101  O    7.971272
   102  C    6.006886
   103  N    7.009041
   104  C    5.961472
   105  C    6.013327
   106  C    5.987492
   107  C    6.027525
   108  C    6.004300
   109  C    5.992195
   110  C    5.999715
   111  N    6.998531
   112  C    6.040984
   113  C    6.024652
   114  C    6.004605
   115  C    6.033738
   116  C    6.000893
   117  C    6.016631
   118  O    8.033422
   119  C    6.005936
   120  C    6.002900
   121  O    8.005519
   122  O    8.001054
   123  C    5.997605
   124  H    0.986880
   125  H    0.998137
   126  H    1.015267
   127  H    0.996179
   128  H    0.997110
   129  H    0.984793
   130  H    1.004828
   131  H    0.996103
   132  H    1.011914
   133  H    0.992617
   134  H    1.003569
   135  H    0.995449
   136  H    0.979866
   137  H    0.982591
   138  H    0.980213
   139  H    0.986063
   140  H    0.991454
   141  H    0.992128
   142  H    0.997512
   143  H    1.002879
   144  H    0.996987
   145  H    1.006270
   146  H    0.989581
   147  H    0.998852
   148  H    1.013336
   149  H    1.002157
   150  H    0.996107
   151  H    1.006511
   152  H    1.016750
   153  H    1.015709
   154  H    1.013784
   155  H    1.004450
   156  H    1.000682
   157  H    1.007083
   158  H    1.003721
 Sum of Mulliken charges = 624.00000

 Dipole moment (field-independent basis, Debye):
    X=             -3.0671    Y=              3.0051    Z=             -9.9554  Tot=             10.8420
 Quadrupole moment (field-independent basis, Debye-Ang):
   XX=             99.1512   YY=             -1.4083   ZZ=             -6.5689
   XY=            -48.6725   XZ=            170.2920   YZ=              8.3915

 Normal termination of Gaussian 16 at Thu Sep 23 07:09:23 2021.
