 Gaussian 16, Revision A.03,
 Gaussian 16:  ES64L-G16RevA.03 25-Dec-2016

 -----------------------------------
 #p cam-b3lyp/Def2SVP td=(nstates=5)
 -----------------------------------

 --------------------------------
 TDDFT excited states in gaussian
 --------------------------------
 Symbolic Z-matrix:
 Charge =  0 Multiplicity = 1

                         Standard orientation:
 ---------------------------------------------------------------------
 Center     Atomic      Atomic             Coordinates (Angstroms)
 Number     Number       Type             X           Y           Z
 ---------------------------------------------------------------------
      1         12           0        9.115950    0.526687   -0.123653
      2          6           0        6.850531   -2.199327   -0.681265
      3          6           0        6.560608    2.574299   -1.551024
      4          6           0       10.509592    3.299101    1.164891
      5          6           0       11.017931   -1.545470    1.821840
      6          7           0        6.982833    0.184854   -0.955181
      7          6           0        6.296991   -0.985217   -1.103625
      8          6           0        4.892303   -0.759359   -1.764211
      9          6           0        5.071533    0.716546   -2.364523
     10          6           0        6.229872    1.211029   -1.512855
     11          6           0        5.435464    0.763076   -3.830827
     12          6           0        3.730575   -1.025470   -0.821237
     13          6           0        2.528114   -1.832526   -1.376009
     14          1           0        1.188977   -1.094258   -1.844550
     15          7           0        8.665507    2.723230   -0.258754
     16          6           0        7.610173    3.316654   -0.982402
     17          6           0        7.745133    4.776085   -0.899023
     18          6           0        8.953081    4.994351   -0.126382
     19          6           0        9.374897    3.698865    0.361382
     20          6           0        6.817668    5.793498   -1.448660
     21          6           0        9.610645    6.333758    0.092869
     22          8           0        9.197724    7.282024   -0.536033
     23          6           0       10.764553    6.574150    1.038787
     24          7           0       10.434719    0.771258    1.340358
     25          6           0       10.967721    2.036762    1.568818
     26          6           0       12.066426    1.885813    2.623501
     27          6           0       12.354555    0.340203    2.655300
     28          6           0       11.215752   -0.182681    1.846477
     29          6           0       13.344398    2.794574    2.502105
     30          6           0       12.534971   -0.345144    4.044550
     31          6           0       13.786313   -1.125471    4.283724
     32          7           0        9.085983   -1.459469    0.381256
     33          6           0        9.976623   -2.207890    1.130938
     34          6           0        9.696006   -3.649852    0.990744
     35          6           0        8.411148   -3.648445    0.321205
     36          6           0        8.120860   -2.316580    0.009880
     37          6           0       10.465022   -4.844465    1.490408
     38          6           0        7.346862   -4.556077   -0.199861
     39          8           0        7.210480   -5.741177   -0.089450
     40          6           0        6.277053   -3.617648   -0.748713
     41          6           0        6.005428   -4.014499   -2.169084
     42          8           0        6.883394   -3.874814   -2.993281
     43          8           0        4.674170   -4.441244   -2.456630
     44          6           0        4.334276   -4.640408   -3.898189
     45          1           0        5.827566    3.228836   -2.027475
     46          1           0       11.084477    4.089201    1.650833
     47          1           0       11.760990   -2.192831    2.291571
     48          1           0        4.766421   -1.361143   -2.663815
     49          1           0        4.216879    1.349688   -2.126493
     50          1           0        6.506078    0.582505   -3.924377
     51          1           0        5.116121    1.734309   -4.208497
     52          1           0        4.999004    0.025482   -4.505099
     53          1           0        3.332194   -0.047133   -0.554220
     54          1           0        4.142230   -1.401709    0.115253
     55          1           0        2.290163   -2.509319   -0.555029
     56          1           0        2.785198   -2.458941   -2.230270
     57          1           0        7.250252    6.117916   -2.394604
     58          1           0        6.847197    6.681423   -0.817066
     59          1           0        5.765466    5.552430   -1.604532
     60          1           0       11.051487    7.617436    1.168942
     61          1           0       11.612476    6.047759    0.600392
     62          1           0       10.719324    6.170962    2.049788
     63          1           0       11.570208    2.284621    3.508747
     64          1           0       13.195029    0.140523    1.991266
     65          1           0       13.450256    3.175272    1.485893
     66          1           0       14.229343    2.255110    2.839183
     67          1           0       13.274017    3.635092    3.192176
     68          1           0       11.684287   -1.002779    4.223002
     69          1           0       12.398331    0.428150    4.800374
     70          1           0       13.549838   -2.189250    4.272980
     71          1           0       14.184352   -0.883754    5.269145
     72          1           0       14.606064   -0.993871    3.577806
     73          1           0       10.208508   -5.739778    0.924461
     74          1           0       10.211796   -4.953483    2.545339
     75          1           0       11.524206   -4.586838    1.476598
     76          1           0        5.429086   -3.655849   -0.064737
     77          1           0        4.728490   -5.601807   -4.227885
     78          1           0        4.818337   -3.887251   -4.519551
     79          1           0        3.257585   -4.576482   -4.054329
     80         12           0       -9.131010    0.333269   -0.011327
     81          6           0       -6.833609   -2.324440   -0.415658
     82          6           0       -7.083763    2.270447   -1.956885
     83          6           0      -10.919996    2.968200    0.896689
     84          6           0      -10.837105   -1.628334    2.332348
     85          7           0       -7.091855    0.049297   -0.932932
     86          6           0       -6.422298   -1.172077   -1.045539
     87          6           0       -5.295654   -1.060254   -2.102142
     88          6           0       -5.386660    0.438679   -2.568357
     89          6           0       -6.627130    0.996831   -1.817234
     90          6           0       -4.103431    1.250669   -2.545960
     91          6           0       -5.349530   -2.056737   -3.270631
     92          6           0       -4.046955   -2.882839   -3.454861
     93          1           0       -3.410702   -2.797180   -4.824466
     94          7           0       -9.044320    2.333440   -0.555402
     95          6           0       -8.124623    2.972014   -1.334376
     96          6           0       -8.586912    4.324075   -1.539322
     97          6           0       -9.650395    4.590456   -0.574599
     98          6           0       -9.870087    3.257895   -0.033627
     99          6           0       -7.791000    5.382786   -2.464624
    100          6           0      -10.174117    5.842985   -0.015929
    101          8           0      -11.063151    5.972425    0.776609
    102          6           0       -9.493126    7.121733   -0.494547
    103          7           0      -10.544045    0.653748    1.592470
    104          6           0      -11.183310    1.834633    1.702236
    105          6           0      -12.386285    1.713786    2.640622
    106          6           0      -12.547957    0.192651    2.791421
    107          6           0      -11.266271   -0.326040    2.178552
    108          6           0      -12.110582    2.435739    4.038621
    109          6           0      -13.816679   -0.276065    1.912685
    110          6           0      -13.612931   -0.260206    0.373054
    111          7           0       -9.028979   -1.632185    0.767526
    112          6           0       -9.785271   -2.262993    1.680382
    113          6           0       -9.275002   -3.598112    1.840417
    114          6           0       -8.169810   -3.674537    1.013774
    115          6           0       -7.994354   -2.427571    0.407573
    116          6           0       -9.779505   -4.715245    2.733877
    117          6           0       -7.101484   -4.606701    0.643574
    118          8           0       -6.709564   -5.694633    0.959436
    119          6           0       -6.233371   -3.801140   -0.358847
    120          6           0       -4.869326   -3.778314    0.225297
    121          8           0       -4.671106   -3.376739    1.344404
    122          8           0       -3.905234   -4.335427   -0.599371
    123          6           0       -2.572893   -4.620380    0.031038
    124          1           0       -6.541235    2.806848   -2.738317
    125          1           0      -11.614858    3.774435    1.142427
    126          1           0      -11.421973   -2.373464    2.875694
    127          1           0       -4.334068   -1.146668   -1.595764
    128          1           0       -5.591994    0.443184   -3.639011
    129          1           0       -3.341799    0.766903   -1.936205
    130          1           0       -4.239675    2.278529   -2.208799
    131          1           0       -3.717734    1.222267   -3.564732
    132          1           0       -5.503340   -1.660796   -4.274475
    133          1           0       -6.176093   -2.755441   -3.143378
    134          1           0       -4.176006   -3.912090   -3.120226
    135          1           0       -3.294701   -2.458030   -2.791438
    136          1           0       -8.517555    5.862856   -3.120084
    137          1           0       -7.043162    4.967304   -3.139002
    138          1           0       -7.188821    6.152043   -1.981231
    139          1           0       -9.690929    7.123235   -1.566705
    140          1           0       -8.438105    6.974929   -0.265457
    141          1           0       -9.916304    8.042247   -0.091268
    142          1           0      -13.316628    2.081467    2.206454
    143          1           0      -12.603331   -0.260184    3.781606
    144          1           0      -13.077906    2.765046    4.418930
    145          1           0      -11.470645    3.318640    4.053211
    146          1           0      -11.718768    1.640052    4.672044
    147          1           0      -14.720528    0.288009    2.142021
    148          1           0      -13.987083   -1.342461    2.061185
    149          1           0      -14.514492   -0.409313   -0.220186
    150          1           0      -12.929280   -1.072558    0.125946
    151          1           0      -13.138863    0.687411    0.115279
    152          1           0      -10.786265   -5.059474    2.498239
    153          1           0       -9.791197   -4.262545    3.725010
    154          1           0       -9.082993   -5.551302    2.796709
    155          1           0       -6.236755   -4.429170   -1.249548
    156          1           0       -1.931055   -4.245285   -0.766111
    157          1           0       -2.389536   -5.684299    0.180079
    158          1           0       -2.309661   -4.170347    0.987937
 ---------------------------------------------------------------------

 SCF Done:  E(RCAM-B3LYP) =  -4069.81901801     A.U. after   19 cycles

 Excitation energies and oscillator strengths:

 Excited State   1:      Singlet-A      1.6700 eV  742.41 nm  f=0.2450  <S**2>=0.000
     309 -> 315       -0.16605
     311 -> 313        0.13053
     312 -> 314        0.67626
     309 <- 315       -0.10467
 This state for optimization and/or second-order correction.
 Total Energy, E(TD-HF/TD-DFT) =  -4069.75764580
 Copying the excited state density for this state as the 1-particle RhoCI density.

 Excited State   2:      Singlet-A      1.7050 eV  727.17 nm  f=0.5318  <S**2>=0.000
     310 -> 316        0.17270
     311 -> 313        0.67480
     312 -> 314       -0.13019
     310 <- 316        0.10576

 Excited State   3:      Singlet-A      2.1915 eV  565.74 nm  f=0.1512  <S**2>=0.000
     310 -> 313        0.65536
     311 -> 316       -0.24758

 Excited State   4:      Singlet-A      2.2359 eV  554.51 nm  f=0.1260  <S**2>=0.000
     309 -> 314        0.63953
     312 -> 315        0.28102

 Excited State   5:      Singlet-A      2.7389 eV  452.68 nm  f=0.0000  <S**2>=0.000
     312 -> 313        0.70700

 The electronic state is 1-A.
 Alpha  occ. eigenvalues --  -46.89568 -46.89391 -19.25373 -19.25129 -19.20827
 Alpha  occ. eigenvalues --  -19.19797 -19.19616 -19.19272 -19.18419 -19.18040
 Alpha  occ. eigenvalues --  -14.42835 -14.42140 -14.41946 -14.41779 -14.39797
 Alpha  occ. eigenvalues --  -14.39404 -14.39253 -14.39222 -10.40320 -10.38789
 Alpha  occ. eigenvalues --  -10.35480 -10.35167 -10.34568 -10.34394 -10.32385
 Alpha  occ. eigenvalues --  -10.31760 -10.31559 -10.31444 -10.31381 -10.30796
 Alpha  occ. eigenvalues --  -10.30791 -10.30779 -10.30775 -10.30575 -10.30342
 Alpha  occ. eigenvalues --  -10.30299 -10.30262 -10.29986 -10.29650 -10.29557
 Alpha  occ. eigenvalues --  -10.29480 -10.29377 -10.29185 -10.29176 -10.28924
 Alpha  occ. eigenvalues --  -10.28738 -10.28706 -10.28700 -10.28620 -10.28200
 Alpha  occ. eigenvalues --  -10.28117 -10.28106 -10.28104 -10.28076 -10.28017
 Alpha  occ. eigenvalues --  -10.27911 -10.27907 -10.27787 -10.27647 -10.27562
 Alpha  occ. eigenvalues --  -10.27422 -10.27295 -10.27082 -10.27073 -10.27050
 Alpha  occ. eigenvalues --  -10.27010 -10.26671 -10.26602 -10.26586 -10.26584
 Alpha  occ. eigenvalues --  -10.26570 -10.26563 -10.26540 -10.26377 -10.26297
 Alpha  occ. eigenvalues --  -10.26186 -10.26165 -10.26030 -10.25980 -10.25939
 Alpha  occ. eigenvalues --  -10.25761 -10.25630 -10.25599 -10.25444 -10.25081
 Alpha  occ. eigenvalues --  -10.25062  -3.17971  -3.17961  -1.92854  -1.92809
 Alpha  occ. eigenvalues --   -1.92440  -1.92421  -1.92268  -1.92265  -1.15679
 Alpha  occ. eigenvalues --   -1.15471  -1.11798  -1.11679  -1.11087  -1.10271
 Alpha  occ. eigenvalues --   -1.07976  -1.07612  -1.05210  -1.04657  -1.04313
 Alpha  occ. eigenvalues --   -1.03858  -1.03649  -1.02852  -1.02030  -1.01577
 Alpha  occ. eigenvalues --   -0.92834  -0.92381  -0.89458  -0.89002  -0.88901
 Alpha  occ. eigenvalues --   -0.88864  -0.88523  -0.88245  -0.87768  -0.87704
 Alpha  occ. eigenvalues --   -0.86565  -0.86354  -0.86294  -0.85718  -0.84587
 Alpha  occ. eigenvalues --   -0.84448  -0.84012  -0.83517  -0.82584  -0.82538
 Alpha  occ. eigenvalues --   -0.81909  -0.81237  -0.80870  -0.80635  -0.80288
 Alpha  occ. eigenvalues --   -0.80189  -0.78398  -0.78226  -0.77562  -0.77430
 Alpha  occ. eigenvalues --   -0.76881  -0.76786  -0.76476  -0.76195  -0.75301
 Alpha  occ. eigenvalues --   -0.75256  -0.73127  -0.72718  -0.71854  -0.71792
 Alpha  occ. eigenvalues --   -0.69593  -0.69389  -0.69220  -0.69053  -0.68112
 Alpha  occ. eigenvalues --   -0.68032  -0.67347  -0.66803  -0.65998  -0.65522
 Alpha  occ. eigenvalues --   -0.65346  -0.65196  -0.65183  -0.64616  -0.64460
 Alpha  occ. eigenvalues --   -0.64395  -0.62416  -0.62273  -0.60435  -0.59870
 Alpha  occ. eigenvalues --   -0.59742  -0.59647  -0.59304  -0.59263  -0.59157
 Alpha  occ. eigenvalues --   -0.58782  -0.58405  -0.58140  -0.57708  -0.57559
 Alpha  occ. eigenvalues --   -0.56599  -0.56016  -0.55738  -0.55514  -0.55380
 Alpha  occ. eigenvalues --   -0.55243  -0.54602  -0.54405  -0.54195  -0.53967
 Alpha  occ. eigenvalues --   -0.53468  -0.53466  -0.53164  -0.53010  -0.52949
 Alpha  occ. eigenvalues --   -0.52691  -0.52460  -0.52322  -0.52155  -0.51913
 Alpha  occ. eigenvalues --   -0.51908  -0.51800  -0.51504  -0.51443  -0.51276
 Alpha  occ. eigenvalues --   -0.51169  -0.51006  -0.50818  -0.50491  -0.50049
 Alpha  occ. eigenvalues --   -0.50009  -0.49963  -0.49834  -0.49830  -0.49518
 Alpha  occ. eigenvalues --   -0.49416  -0.49363  -0.49334  -0.49166  -0.49055
 Alpha  occ. eigenvalues --   -0.48775  -0.48669  -0.48440  -0.48312  -0.48293
 Alpha  occ. eigenvalues --   -0.47962  -0.47752  -0.47596  -0.47491  -0.47150
 Alpha  occ. eigenvalues --   -0.47036  -0.47023  -0.46508  -0.46464  -0.46449
 Alpha  occ. eigenvalues --   -0.46251  -0.46152  -0.46127  -0.46117  -0.46067
 Alpha  occ. eigenvalues --   -0.45947  -0.45904  -0.45613  -0.45352  -0.45330
 Alpha  occ. eigenvalues --   -0.45119  -0.45067  -0.44760  -0.44547  -0.44087
 Alpha  occ. eigenvalues --   -0.43858  -0.43708  -0.43697  -0.43524  -0.43408
 Alpha  occ. eigenvalues --   -0.43379  -0.43352  -0.43063  -0.42967  -0.42918
 Alpha  occ. eigenvalues --   -0.42706  -0.42619  -0.42522  -0.42458  -0.42333
 Alpha  occ. eigenvalues --   -0.42094  -0.42006  -0.41986  -0.41617  -0.41507
 Alpha  occ. eigenvalues --   -0.41390  -0.41184  -0.40956  -0.40948  -0.40648
 Alpha  occ. eigenvalues --   -0.40340  -0.40336  -0.39781  -0.39349  -0.39103
 Alpha  occ. eigenvalues --   -0.38637  -0.38383  -0.38104  -0.37885  -0.37800
 Alpha  occ. eigenvalues --   -0.37431  -0.37264  -0.37044  -0.36589  -0.36386
 Alpha  occ. eigenvalues --   -0.36248  -0.35963  -0.35147  -0.34480  -0.34432
 Alpha  occ. eigenvalues --   -0.34080  -0.33420  -0.33252  -0.31676  -0.31640
 Alpha  occ. eigenvalues --   -0.31233  -0.31181  -0.30552  -0.30412  -0.30320
 Alpha  occ. eigenvalues --   -0.30173  -0.29739  -0.28805  -0.24377  -0.24202
 Alpha  occ. eigenvalues --   -0.21606  -0.21194
 Alpha virt. eigenvalues --   -0.09195  -0.09055  -0.01566  -0.01454   0.00397
 Alpha virt. eigenvalues --    0.00537   0.01173   0.01660   0.02490   0.02566
 Alpha virt. eigenvalues --    0.04019   0.04299   0.05275   0.05521   0.05663

 Mulliken charges:
               1
     1  Mg   0.850384
     2  C   -0.068705
     3  C   -0.046620
     4  C   -0.069949
     5  C   -0.117492
     6  N   -0.248493
     7  C   -0.056113
     8  C   -0.029523
     9  C   -0.067619
    10  C    0.027984
    11  C    0.088755
    12  C    0.079506
    13  C   -0.053538
    14  H    0.005831
    15  N   -0.346067
    16  C    0.095324
    17  C   -0.125943
    18  C   -0.029036
    19  C    0.139882
    20  C    0.130542
    21  C   -0.008997
    22  O   -0.204464
    23  C    0.048473
    24  N   -0.372358
    25  C    0.069192
    26  C   -0.081076
    27  C    0.022161
    28  C    0.057924
    29  C    0.063488
    30  C    0.049585
    31  C    0.008631
    32  N   -0.354607
    33  C    0.126981
    34  C   -0.180769
    35  C   -0.063941
    36  C    0.147896
    37  C    0.135409
    38  C    0.053167
    39  O   -0.136077
    40  C    0.059509
    41  C    0.212930
    42  O   -0.206568
    43  O   -0.375736
    44  C    0.175297
    45  H   -0.031283
    46  H   -0.056490
    47  H   -0.037037
    48  H    0.003836
    49  H    0.001399
    50  H    0.022348
    51  H    0.020081
    52  H    0.014066
    53  H    0.013018
    54  H    0.017607
    55  H    0.031746
    56  H    0.027672
    57  H    0.030711
    58  H    0.030959
    59  H    0.014119
    60  H    0.024228
    61  H    0.029775
    62  H    0.037253
    63  H    0.025047
    64  H    0.007195
    65  H    0.023754
    66  H    0.015944
    67  H    0.009234
    68  H    0.014563
    69  H   -0.000175
    70  H    0.015785
    71  H    0.013925
    72  H    0.015197
    73  H    0.047999
    74  H    0.030892
    75  H    0.013163
    76  H    0.041669
    77  H    0.045149
    78  H    0.034894
    79  H    0.046722
    80  Mg   0.813024
    81  C   -0.023650
    82  C   -0.077305
    83  C   -0.061953
    84  C   -0.064232
    85  N   -0.302457
    86  C   -0.035022
    87  C    0.006698
    88  C   -0.058520
    89  C    0.050800
    90  C    0.068835
    91  C    0.056755
    92  C   -0.088373
    93  H    0.006617
    94  N   -0.363081
    95  C    0.161187
    96  C   -0.117038
    97  C   -0.041606
    98  C    0.130597
    99  C    0.062547
   100  C   -0.022264
   101  O   -0.176303
   102  C    0.054554
   103  N   -0.263183
   104  C    0.030054
   105  C   -0.035252
   106  C   -0.014438
   107  C    0.032488
   108  C    0.066527
   109  C    0.004377
   110  C   -0.014670
   111  N   -0.320769
   112  C    0.065158
   113  C   -0.162522
   114  C   -0.035023
   115  C    0.140050
   116  C    0.116947
   117  C    0.069140
   118  O   -0.136363
   119  C    0.003687
   120  C    0.181270
   121  O   -0.201421
   122  O   -0.351529
   123  C    0.164711
   124  H   -0.034364
   125  H   -0.000930
   126  H   -0.031095
   127  H    0.018945
   128  H    0.007927
   129  H    0.008546
   130  H    0.022488
   131  H    0.008607
   132  H    0.018935
   133  H    0.009374
   134  H    0.046469
   135  H    0.016059
   136  H    0.027200
   137  H    0.003647
   138  H    0.033292
   139  H    0.021838
   140  H    0.036837
   141  H    0.022704
   142  H    0.016598
   143  H    0.012899
   144  H    0.017382
   145  H    0.035583
   146  H    0.016259
   147  H    0.020240
   148  H    0.002107
   149  H    0.023684
   150  H    0.021687
   151  H    0.021052
   152  H    0.029157
   153  H    0.019822
   154  H    0.036527
   155  H    0.033724
   156  H    0.036422
   157  H    0.044571
   158  H    0.056635
 Sum of Mulliken charges =  -0.00000

 Dipole moment (field-independent basis, Debye):
    X=              1.1589    Y=              1.4160    Z=             -1.9016  Tot=              2.6390
 Quadrupole moment (field-independent basis, Debye-Ang):
   XX=           -428.7443   YY=           -582.7442   ZZ=           -490.5687
   XY=             10.1535   XZ=             44.8594   YZ=              0.4509

 Normal termination of Gaussian 16 at Wed Sep  1 21:34:09 2021.
