 Gaussian 16, Revision A.03,
 Gaussian 16:  ES64L-G16RevA.03 25-Dec-2016

 ----------------------------------------------------------
 #p cam-b3lyp/Def2SVP td=(nstates=5) density=(transition=1)
 ----------------------------------------------------------

 --------------------------------
 TDDFT excited states in gaussian
 --------------------------------
 Symbolic Z-matrix:
 Charge =  0 Multiplicity = 1

                         Standard orientation:
 ---------------------------------------------------------------------
 Center     Atomic      Atomic             Coordinates (Angstroms)
 Number     Number       Type             X           Y           Z
 ---------------------------------------------------------------------
      1         12           0       23.533232    0.701844    0.054206
      2          6           0       22.666719   -2.588372   -0.992555
      3          6           0       23.545900   -0.426748    3.302083
      4          6           0       24.271422    3.824680    0.842784
      5          6           0       22.991012    1.848255   -3.308987
      6          7           0       23.072382   -1.328063    1.094373
      7          6           0       22.852323   -2.502009    0.397424
      8          6           0       22.768697   -3.637483    1.474351
      9          6           0       23.016250   -2.922006    2.907460
     10          6           0       23.205526   -1.485075    2.410778
     11          6           0       21.925550   -3.144962    3.975704
     12          6           0       23.631395   -4.941209    1.215814
     13          6           0       22.860907   -6.227489    1.144531
     14          1           0       21.555910   -6.460006    1.859178
     15          7           0       24.005260    1.588694    1.898975
     16          6           0       23.938098    0.950954    3.097546
     17          6           0       24.484609    1.869374    4.063146
     18          6           0       24.601913    3.115880    3.411160
     19          6           0       24.266987    2.930849    1.961702
     20          6           0       24.652545    1.435184    5.529004
     21          6           0       24.873566    4.446268    4.045549
     22          8           0       24.838397    5.509308    3.381503
     23          6           0       25.134025    4.516909    5.504525
     24          7           0       23.541441    2.581352   -1.131348
     25          6           0       23.950030    3.670522   -0.579625
     26          6           0       24.106572    4.966949   -1.539803
     27          6           0       23.671328    4.312998   -2.860054
     28          6           0       23.392058    2.885932   -2.456482
     29          6           0       23.174779    6.122629   -1.020857
     30          6           0       24.681936    4.393302   -4.057761
     31          6           0       25.942378    3.501347   -3.960645
     32          7           0       22.850686   -0.128076   -1.685438
     33          6           0       22.668183    0.487679   -2.946055
     34          6           0       22.302346   -0.560320   -3.908649
     35          6           0       22.299545   -1.778211   -3.187127
     36          6           0       22.683258   -1.470034   -1.838236
     37          6           0       22.026009   -0.337817   -5.425796
     38          6           0       22.098163   -3.119658   -3.349915
     39          8           0       21.746031   -3.783074   -4.303892
     40          6           0       22.374856   -3.769297   -1.965326
     41          6           0       21.227905   -4.566784   -1.597027
     42          8           0       20.239202   -4.142265   -0.988402
     43          8           0       21.296600   -5.812778   -2.231558
     44          6           0       20.077424   -6.644635   -2.077587
     45          1           0       23.340799   -0.587872    4.362834
     46          1           0       24.355006    4.870708    1.145203
     47          1           0       22.817323    2.142381   -4.346137
     48          1           0       21.749605   -3.963690    1.270707
     49          1           0       23.903562   -3.355802    3.366398
     50          1           0       22.357680   -3.561823    4.886325
     51          1           0       21.072182   -3.757872    3.686017
     52          1           0       21.546207   -2.142088    4.171784
     53          1           0       24.404520   -5.034144    1.978787
     54          1           0       24.075128   -4.798985    0.230404
     55          1           0       23.426452   -6.954494    1.728473
     56          1           0       22.752413   -6.491919    0.093267
     57          1           0       24.621072    0.351324    5.642521
     58          1           0       23.868551    1.885146    6.136739
     59          1           0       25.632553    1.817289    5.812990
     60          1           0       25.995964    3.879618    5.702161
     61          1           0       24.299708    4.111021    6.077886
     62          1           0       25.255076    5.551310    5.823650
     63          1           0       25.143905    5.298264   -1.593490
     64          1           0       22.674972    4.664804   -3.128630
     65          1           0       22.317975    5.661969   -0.529223
     66          1           0       22.800006    6.669558   -1.886743
     67          1           0       23.599517    6.851959   -0.330610
     68          1           0       24.895372    5.435975   -4.290954
     69          1           0       24.140289    4.106130   -4.958468
     70          1           0       26.337619    3.316629   -2.962324
     71          1           0       26.695748    3.906805   -4.636973
     72          1           0       25.648516    2.553409   -4.411109
     73          1           0       22.574340   -1.027904   -6.067138
     74          1           0       22.211619    0.684773   -5.752426
     75          1           0       21.030551   -0.714649   -5.662007
     76          1           0       23.233194   -4.401408   -2.190520
     77          1           0       19.246703   -6.213954   -2.636038
     78          1           0       19.714204   -6.728055   -1.053918
     79          1           0       20.375662   -7.668319   -2.304567
     80         12           0      -23.648856    0.593079   -0.121790
     81          6           0      -21.298134   -1.740880    1.027777
     82          6           0      -25.723630   -2.037257   -0.916054
     83          6           0      -25.832268    2.807725   -1.226208
     84          6           0      -21.336149    3.135141    0.607596
     85          7           0      -23.503154   -1.601848    0.139927
     86          6           0      -22.448958   -2.383403    0.613060
     87          6           0      -22.861132   -3.880796    0.898696
     88          6           0      -24.170680   -3.909634    0.134525
     89          6           0      -24.514548   -2.410240   -0.245365
     90          6           0      -24.007727   -4.713110   -1.236289
     91          6           0      -23.126390   -3.914770    2.469207
     92          6           0      -22.599704   -5.188346    3.265892
     93          1           0      -22.683768   -6.408411    2.384733
     94          7           0      -25.403707    0.394432   -1.063589
     95          6           0      -26.090589   -0.717577   -1.310031
     96          6           0      -27.362087   -0.457274   -1.931491
     97          6           0      -27.514667    0.942323   -1.876461
     98          6           0      -26.173632    1.467443   -1.417961
     99          6           0      -28.320530   -1.477922   -2.425827
    100          6           0      -28.735863    1.808062   -2.108508
    101          8           0      -28.787259    2.998560   -1.779155
    102          6           0      -29.935842    1.245444   -2.875388
    103          7           0      -23.548015    2.702856   -0.323833
    104          6           0      -24.678452    3.351338   -0.762055
    105          6           0      -24.465460    4.854937   -0.600204
    106          6           0      -23.034278    4.983392    0.117100
    107          6           0      -22.606930    3.542185    0.210021
    108          6           0      -24.655457    5.571610   -1.983644
    109          6           0      -22.990320    5.739739    1.435590
    110          6           0      -21.916847    6.872108    1.475196
    111          7           0      -21.711686    0.683198    0.632612
    112          6           0      -20.867007    1.814400    0.861821
    113          6           0      -19.603620    1.395577    1.354693
    114          6           0      -19.749434    0.000215    1.431710
    115          6           0      -21.019501   -0.359631    0.935238
    116          6           0      -18.403232    2.187516    1.762541
    117          6           0      -19.105119   -1.217902    1.805895
    118          8           0      -17.999847   -1.466710    2.226861
    119          6           0      -20.141237   -2.367262    1.653569
    120          6           0      -19.506287   -3.494174    0.922909
    121          8           0      -19.196633   -3.538303   -0.264357
    122          8           0      -19.379564   -4.498091    1.796113
    123          6           0      -18.855272   -5.748016    1.287032
    124          1           0      -26.526643   -2.756779   -1.088251
    125          1           0      -26.592849    3.488043   -1.617499
    126          1           0      -20.611295    3.895182    0.906778
    127          1           0      -21.980576   -4.467301    0.638354
    128          1           0      -24.963671   -4.315400    0.761822
    129          1           0      -22.989487   -5.070846   -1.390244
    130          1           0      -24.278060   -4.047873   -2.056113
    131          1           0      -24.725423   -5.528948   -1.149442
    132          1           0      -24.183338   -3.862769    2.728786
    133          1           0      -22.683688   -3.002200    2.869227
    134          1           0      -23.298410   -5.461004    4.056907
    135          1           0      -21.688509   -4.964507    3.821219
    136          1           0      -29.188859   -1.431459   -1.767190
    137          1           0      -27.905055   -2.482161   -2.354795
    138          1           0      -28.641514   -1.308531   -3.453199
    139          1           0      -30.415341    2.178808   -3.169471
    140          1           0      -30.575036    0.591683   -2.280810
    141          1           0      -29.734946    0.751401   -3.825811
    142          1           0      -25.183557    5.367282    0.039998
    143          1           0      -22.350356    5.478697   -0.572242
    144          1           0      -25.282015    6.440025   -1.779909
    145          1           0      -25.070011    4.930595   -2.761747
    146          1           0      -23.746358    6.092134   -2.287101
    147          1           0      -22.840774    5.107555    2.310287
    148          1           0      -23.927385    6.298197    1.447226
    149          1           0      -21.457615    7.002505    0.495160
    150          1           0      -21.051391    6.585508    2.072304
    151          1           0      -22.351961    7.819991    1.792558
    152          1           0      -18.734493    2.594994    2.718101
    153          1           0      -18.210421    2.895258    0.956598
    154          1           0      -17.538057    1.558566    1.967524
    155          1           0      -20.271454   -2.717975    2.678228
    156          1           0      -17.903546   -5.574961    0.783889
    157          1           0      -19.445823   -6.253594    0.522256
    158          1           0      -18.707960   -6.389254    2.156249
 ---------------------------------------------------------------------

 SCF Done:  E(RCAM-B3LYP) =  -4069.83482690     A.U. after   19 cycles

 Excitation energies and oscillator strengths:

 Excited State   1:      Singlet-A      1.7258 eV  718.42 nm  f=0.3839  <S**2>=0.000
     309 -> 316       -0.16128
     312 -> 313        0.68778
 This state for optimization and/or second-order correction.
 Total Energy, E(TD-HF/TD-DFT) =  -4069.77140494
 Copying the excited state density for this state as the 1-particle RhoCI density.

 Excited State   2:      Singlet-A      1.7535 eV  707.05 nm  f=0.3738  <S**2>=0.000
     310 -> 315       -0.18841
     311 -> 314        0.68194
     310 <- 315       -0.10759

 Excited State   3:      Singlet-A      2.2093 eV  561.19 nm  f=0.1084  <S**2>=0.000
     310 -> 314        0.64207
     311 -> 315        0.28091

 Excited State   4:      Singlet-A      2.2841 eV  542.81 nm  f=0.1221  <S**2>=0.000
     309 -> 313        0.63701
     312 -> 316        0.28302

 Excited State   5:      Singlet-A      3.2101 eV  386.24 nm  f=0.0000  <S**2>=0.000
     312 -> 314        0.70711

 The electronic state is 1-A.
 Alpha  occ. eigenvalues --  -46.89780 -46.87747 -19.25237 -19.24229 -19.19900
 Alpha  occ. eigenvalues --  -19.19253 -19.18770 -19.18736 -19.17487 -19.17383
 Alpha  occ. eigenvalues --  -14.42637 -14.42220 -14.41845 -14.41599 -14.40201
 Alpha  occ. eigenvalues --  -14.39727 -14.39639 -14.38448 -10.38572 -10.38290
 Alpha  occ. eigenvalues --  -10.36216 -10.35030 -10.33262 -10.33132 -10.31883
 Alpha  occ. eigenvalues --  -10.31866 -10.31680 -10.31380 -10.31342 -10.31063
 Alpha  occ. eigenvalues --  -10.30992 -10.30860 -10.30748 -10.30660 -10.30606
 Alpha  occ. eigenvalues --  -10.30428 -10.30164 -10.30095 -10.29816 -10.29323
 Alpha  occ. eigenvalues --  -10.29045 -10.28987 -10.28892 -10.28788 -10.28738
 Alpha  occ. eigenvalues --  -10.28418 -10.28339 -10.28318 -10.28067 -10.28021
 Alpha  occ. eigenvalues --  -10.27958 -10.27950 -10.27944 -10.27942 -10.27913
 Alpha  occ. eigenvalues --  -10.27808 -10.27652 -10.27530 -10.27507 -10.27504
 Alpha  occ. eigenvalues --  -10.27368 -10.27298 -10.27191 -10.27124 -10.27098
 Alpha  occ. eigenvalues --  -10.27075 -10.27055 -10.26988 -10.26675 -10.26612
 Alpha  occ. eigenvalues --  -10.26562 -10.26512 -10.26319 -10.26292 -10.26205
 Alpha  occ. eigenvalues --  -10.26140 -10.26009 -10.25964 -10.25935 -10.25867
 Alpha  occ. eigenvalues --  -10.25836 -10.25777 -10.25689 -10.25404 -10.23859
 Alpha  occ. eigenvalues --  -10.23562  -3.18115  -3.16457  -1.93030  -1.92606
 Alpha  occ. eigenvalues --   -1.92372  -1.91367  -1.90892  -1.90788  -1.17077
 Alpha  occ. eigenvalues --   -1.14314  -1.10337  -1.09347  -1.09209  -1.08427
 Alpha  occ. eigenvalues --   -1.07061  -1.06271  -1.06073  -1.04964  -1.03893
 Alpha  occ. eigenvalues --   -1.03661  -1.02995  -1.02901  -1.02323  -1.01664
 Alpha  occ. eigenvalues --   -0.92630  -0.92243  -0.89711  -0.89623  -0.88462
 Alpha  occ. eigenvalues --   -0.88401  -0.88247  -0.87956  -0.87788  -0.87215
 Alpha  occ. eigenvalues --   -0.87012  -0.86754  -0.86615  -0.85439  -0.84284
 Alpha  occ. eigenvalues --   -0.83934  -0.83506  -0.83335  -0.82500  -0.82333
 Alpha  occ. eigenvalues --   -0.82187  -0.81823  -0.81250  -0.80636  -0.80358
 Alpha  occ. eigenvalues --   -0.80009  -0.78886  -0.78284  -0.77541  -0.77404
 Alpha  occ. eigenvalues --   -0.76744  -0.76405  -0.75690  -0.75579  -0.74958
 Alpha  occ. eigenvalues --   -0.74940  -0.73082  -0.72485  -0.71520  -0.71384
 Alpha  occ. eigenvalues --   -0.70429  -0.69166  -0.68999  -0.68851  -0.67801
 Alpha  occ. eigenvalues --   -0.67587  -0.67369  -0.66876  -0.65393  -0.65278
 Alpha  occ. eigenvalues --   -0.65223  -0.64993  -0.64867  -0.64605  -0.64484
 Alpha  occ. eigenvalues --   -0.64197  -0.62452  -0.61378  -0.60768  -0.60190
 Alpha  occ. eigenvalues --   -0.59573  -0.59465  -0.59118  -0.58608  -0.58567
 Alpha  occ. eigenvalues --   -0.58092  -0.57900  -0.57743  -0.57486  -0.57279
 Alpha  occ. eigenvalues --   -0.56621  -0.56243  -0.55983  -0.55641  -0.55308
 Alpha  occ. eigenvalues --   -0.55232  -0.54911  -0.54438  -0.53804  -0.53555
 Alpha  occ. eigenvalues --   -0.53517  -0.53202  -0.53144  -0.52977  -0.52799
 Alpha  occ. eigenvalues --   -0.52587  -0.52574  -0.52520  -0.52135  -0.51985
 Alpha  occ. eigenvalues --   -0.51751  -0.51514  -0.51293  -0.51250  -0.51014
 Alpha  occ. eigenvalues --   -0.50769  -0.50714  -0.50417  -0.50391  -0.50279
 Alpha  occ. eigenvalues --   -0.49961  -0.49812  -0.49616  -0.49471  -0.49240
 Alpha  occ. eigenvalues --   -0.49209  -0.49175  -0.48916  -0.48823  -0.48613
 Alpha  occ. eigenvalues --   -0.48533  -0.48501  -0.48396  -0.47941  -0.47889
 Alpha  occ. eigenvalues --   -0.47876  -0.47655  -0.47519  -0.47468  -0.47275
 Alpha  occ. eigenvalues --   -0.47157  -0.46719  -0.46698  -0.46572  -0.46540
 Alpha  occ. eigenvalues --   -0.46476  -0.46374  -0.46124  -0.46057  -0.45782
 Alpha  occ. eigenvalues --   -0.45448  -0.45252  -0.45042  -0.44890  -0.44686
 Alpha  occ. eigenvalues --   -0.44557  -0.44533  -0.44428  -0.44268  -0.44184
 Alpha  occ. eigenvalues --   -0.43741  -0.43708  -0.43673  -0.43641  -0.43406
 Alpha  occ. eigenvalues --   -0.43164  -0.43060  -0.42829  -0.42684  -0.42591
 Alpha  occ. eigenvalues --   -0.42438  -0.42325  -0.42324  -0.41917  -0.41824
 Alpha  occ. eigenvalues --   -0.41783  -0.41552  -0.41543  -0.41336  -0.41217
 Alpha  occ. eigenvalues --   -0.41104  -0.41095  -0.40794  -0.40550  -0.40357
 Alpha  occ. eigenvalues --   -0.40081  -0.40043  -0.39738  -0.39713  -0.39079
 Alpha  occ. eigenvalues --   -0.38789  -0.38255  -0.37607  -0.37395  -0.36903
 Alpha  occ. eigenvalues --   -0.36889  -0.36590  -0.36445  -0.36326  -0.36288
 Alpha  occ. eigenvalues --   -0.36056  -0.35454  -0.34218  -0.33895  -0.33822
 Alpha  occ. eigenvalues --   -0.33631  -0.33008  -0.32786  -0.32245  -0.31370
 Alpha  occ. eigenvalues --   -0.31276  -0.31168  -0.30878  -0.30289  -0.29924
 Alpha  occ. eigenvalues --   -0.29663  -0.29518  -0.29243  -0.24101  -0.23752
 Alpha  occ. eigenvalues --   -0.21205  -0.21036
 Alpha virt. eigenvalues --   -0.08562  -0.08503  -0.01745  -0.01677   0.00180
 Alpha virt. eigenvalues --    0.00542   0.02362   0.02621   0.02836   0.03432
 Alpha virt. eigenvalues --    0.05050   0.05578   0.05589   0.05904   0.06431

 Mulliken charges:
               1
     1  Mg  12.000003
     2  C    5.999945
     3  C    5.999933
     4  C    6.000044
     5  C    6.000045
     6  N    7.000018
     7  C    6.000055
     8  C    6.000009
     9  C    5.999976
    10  C    6.000038
    11  C    6.000002
    12  C    6.000001
    13  C    6.000003
    14  H    1.000064
    15  N    6.999993
    16  C    6.000043
    17  C    5.999941
    18  C    6.000032
    19  C    5.999946
    20  C    6.000013
    21  C    5.999985
    22  O    7.999974
    23  C    6.000003
    24  N    6.999989
    25  C    5.999968
    26  C    5.999992
    27  C    6.000002
    28  C    5.999993
    29  C    6.000001
    30  C    5.999997
    31  C    6.000012
    32  N    7.000020
    33  C    5.999992
    34  C    6.000060
    35  C    5.999951
    36  C    6.000040
    37  C    6.000002
    38  C    6.000010
    39  O    8.000027
    40  C    5.999999
    41  C    6.000007
    42  O    8.000055
    43  O    7.999973
    44  C    5.999986
    45  H    1.000036
    46  H    0.999977
    47  H    0.999992
    48  H    1.000035
    49  H    0.999969
    50  H    0.999984
    51  H    1.000036
    52  H    1.000040
    53  H    0.999972
    54  H    0.999965
    55  H    0.999968
    56  H    0.999984
    57  H    0.999977
    58  H    1.000018
    59  H    0.999953
    60  H    0.999959
    61  H    1.000027
    62  H    0.999977
    63  H    0.999957
    64  H    1.000033
    65  H    1.000050
    66  H    0.999994
    67  H    0.999989
    68  H    0.999985
    69  H    0.999999
    70  H    1.000001
    71  H    0.999953
    72  H    0.999989
    73  H    0.999973
    74  H    0.999999
    75  H    1.000052
    76  H    0.999967
    77  H    1.000044
    78  H    1.000038
    79  H    0.999969
    80  Mg  11.996583
    81  C    6.030725
    82  C    5.996556
    83  C    5.967311
    84  C    6.002840
    85  N    7.018506
    86  C    5.963079
    87  C    6.003242
    88  C    5.997513
    89  C    6.021607
    90  C    5.996013
    91  C    6.001108
    92  C    6.003246
    93  H    0.993362
    94  N    6.988440
    95  C    6.036928
    96  C    6.025807
    97  C    6.009500
    98  C    6.048990
    99  C    5.993700
   100  C    6.012183
   101  O    8.028732
   102  C    5.993114
   103  N    6.990963
   104  C    6.038521
   105  C    5.986671
   106  C    6.012515
   107  C    5.972464
   108  C    5.995700
   109  C    6.007806
   110  C    6.000282
   111  N    7.001467
   112  C    5.959014
   113  C    5.975344
   114  C    5.995400
   115  C    5.966256
   116  C    5.999109
   117  C    5.983371
   118  O    7.966580
   119  C    5.994066
   120  C    5.997100
   121  O    7.994482
   122  O    7.998946
   123  C    6.002398
   124  H    1.013118
   125  H    1.001865
   126  H    0.984730
   127  H    1.003820
   128  H    1.002889
   129  H    1.015208
   130  H    0.995172
   131  H    1.003895
   132  H    0.988087
   133  H    1.007382
   134  H    0.996432
   135  H    1.004551
   136  H    1.020133
   137  H    1.017412
   138  H    1.019788
   139  H    1.013938
   140  H    1.008548
   141  H    1.007873
   142  H    1.002489
   143  H    0.997119
   144  H    1.003014
   145  H    0.993727
   146  H    1.010419
   147  H    1.001148
   148  H    0.986663
   149  H    0.997843
   150  H    1.003895
   151  H    0.993490
   152  H    0.983250
   153  H    0.984289
   154  H    0.986214
   155  H    0.995552
   156  H    0.999318
   157  H    0.992914
   158  H    0.996279
 Sum of Mulliken charges = 624.00000

 Dipole moment (field-independent basis, Debye):
    X=             -9.8671    Y=             -1.3131    Z=             -4.2713  Tot=             10.8318
 Quadrupole moment (field-independent basis, Debye-Ang):
   XX=            464.7717   YY=             -4.0005   ZZ=              1.9091
   XY=             26.7124   XZ=            103.2292   YZ=             -1.4154

 Normal termination of Gaussian 16 at Wed Sep 22 07:59:50 2021.
