 Gaussian 16, Revision A.03,
 Gaussian 16:  ES64L-G16RevA.03 25-Dec-2016

 -----------------------------------
 #p cam-b3lyp/Def2SVP td=(nstates=5)
 -----------------------------------

 --------------------------------
 TDDFT excited states in gaussian
 --------------------------------
 Symbolic Z-matrix:
 Charge =  0 Multiplicity = 1

                         Standard orientation:
 ---------------------------------------------------------------------
 Center     Atomic      Atomic             Coordinates (Angstroms)
 Number     Number       Type             X           Y           Z
 ---------------------------------------------------------------------
      1         12           0      -11.177023    0.181749   -0.770404
      2          6           0       -8.193611   -1.698722   -0.280286
      3          6           0      -13.008047   -2.700663   -0.502451
      4          6           0      -14.038062    2.111371   -0.188962
      5          6           0       -9.292048    3.129585   -0.445440
      6          7           0      -10.554634   -1.982666   -0.154110
      7          6           0       -9.335103   -2.537277   -0.248437
      8          6           0       -9.478528   -4.033146   -0.461435
      9          6           0      -11.042202   -4.390685   -0.466190
     10          6           0      -11.561926   -2.865651   -0.518423
     11          6           0      -11.363074   -5.203093   -1.740871
     12          6           0       -8.718024   -4.807127    0.603306
     13          6           0       -8.742863   -4.229350    2.038348
     14          1           0       -9.611381   -4.982918    3.082423
     15          7           0      -13.297171   -0.234530   -0.477935
     16          6           0      -13.786168   -1.519751   -0.389743
     17          6           0      -15.209765   -1.392610   -0.376284
     18          6           0      -15.584317   -0.007851   -0.187102
     19          6           0      -14.301451    0.727385   -0.322969
     20          6           0      -16.133147   -2.586076   -0.294365
     21          6           0      -16.951129    0.549583    0.213507
     22          8           0      -17.873128   -0.208418    0.445590
     23          6           0      -17.222758    1.948874    0.353459
     24          7           0      -11.608976    2.298623   -0.271182
     25          6           0      -12.827708    2.817301   -0.241732
     26          6           0      -12.839486    4.315403    0.015315
     27          6           0      -11.292482    4.548106    0.295023
     28          6           0      -10.666766    3.301390   -0.217684
     29          6           0      -13.398985    5.182027   -1.216022
     30          6           0      -11.046510    4.875869    1.839459
     31          6           0      -10.593873    6.243452    2.266486
     32          7           0       -9.224452    0.650417   -0.685384
     33          6           0       -8.590170    1.909455   -0.683902
     34          6           0       -7.126198    1.754333   -0.772014
     35          6           0       -6.984820    0.373052   -0.639981
     36          6           0       -8.249260   -0.289795   -0.462181
     37          6           0       -6.022446    2.829842   -1.060063
     38          6           0       -5.957806   -0.671250   -0.568898
     39          8           0       -4.718267   -0.650234   -0.646398
     40          6           0       -6.675844   -2.044309   -0.353631
     41          6           0       -6.121318   -2.410629    0.979688
     42          8           0       -6.225549   -1.750977    1.981880
     43          8           0       -5.381416   -3.511135    0.878944
     44          6           0       -4.788434   -4.118282    2.121392
     45          1           0      -13.569020   -3.612191   -0.718284
     46          1           0      -14.845125    2.837989   -0.076066
     47          1           0       -8.813043    4.088890   -0.236146
     48          1           0       -8.976736   -4.102048   -1.426636
     49          1           0      -11.353557   -4.918849    0.435425
     50          1           0      -11.763116   -6.169480   -1.434666
     51          1           0      -10.498642   -5.420830   -2.368657
     52          1           0      -12.140427   -4.643670   -2.260630
     53          1           0       -7.670121   -4.889231    0.314630
     54          1           0       -9.133141   -5.808936    0.717347
     55          1           0       -9.189947   -3.245711    2.181453
     56          1           0       -7.696901   -4.224934    2.345229
     57          1           0      -15.580132   -3.521884   -0.209567
     58          1           0      -16.817072   -2.531207   -1.142017
     59          1           0      -16.794782   -2.423910    0.555820
     60          1           0      -16.673447    2.455215    1.147460
     61          1           0      -18.282321    2.089809    0.566063
     62          1           0      -16.901913    2.351168   -0.608046
     63          1           0      -13.341571    4.603800    0.938461
     64          1           0      -11.130258    5.499577   -0.211743
     65          1           0      -13.739971    4.512521   -2.006240
     66          1           0      -12.561266    5.758163   -1.609412
     67          1           0      -14.171892    5.913394   -0.974783
     68          1           0      -10.220351    4.288712    2.240635
     69          1           0      -11.935209    4.659693    2.430816
     70          1           0       -9.528798    6.306417    2.489678
     71          1           0      -11.179506    6.347289    3.180509
     72          1           0      -10.983056    7.064432    1.664071
     73          1           0       -5.881319    3.409696   -0.148357
     74          1           0       -6.357544    3.408221   -1.921199
     75          1           0       -5.080218    2.313262   -1.242064
     76          1           0       -6.379970   -2.671450   -1.195417
     77          1           0       -3.837779   -3.664070    2.401687
     78          1           0       -4.619362   -5.188379    1.994650
     79          1           0       -5.547008   -3.969111    2.889755
     80         12           0       10.530145    0.730560   -0.254158
     81          6           0       10.930108   -2.650130    0.030147
     82          6           0        7.080613    0.227266    0.460022
     83          6           0       10.164805    4.082833   -0.132890
     84          6           0       13.982830    1.128808   -0.014376
     85          7           0        9.197636   -1.072190    0.585688
     86          6           0        9.576468   -2.361565    0.360484
     87          6           0        8.459540   -3.294439    0.738858
     88          6           0        7.194556   -2.346278    0.913075
     89          6           0        7.805233   -0.937470    0.629306
     90          6           0        5.911121   -2.846491    0.358005
     91          6           0        8.672642   -4.355983    1.919152
     92          6           0        9.583817   -3.983912    3.051093
     93          1           0        9.061750   -4.211550    4.462801
     94          7           0        8.822909    1.950455   -0.125096
     95          6           0        7.538635    1.581989    0.131083
     96          6           0        6.656295    2.709428    0.194194
     97          6           0        7.545564    3.867567   -0.101138
     98          6           0        8.920863    3.324088   -0.138876
     99          6           0        5.222745    2.729284    0.436100
    100          6           0        7.171403    5.326555   -0.319567
    101          8           0        6.071779    5.701044   -0.113935
    102          6           0        8.106016    6.442279   -0.697032
    103          7           0       11.854537    2.331179    0.032029
    104          6           0       11.455715    3.600213   -0.143596
    105          6           0       12.670597    4.627095    0.150618
    106          6           0       13.894648    3.647925   -0.199212
    107          6           0       13.212102    2.316252    0.004159
    108          6           0       12.666745    5.918434   -0.672253
    109          6           0       15.157385    3.951955    0.627044
    110          6           0       16.528787    4.065340   -0.049146
    111          7           0       12.146219   -0.493461    0.075062
    112          6           0       13.510209   -0.231910    0.112458
    113          6           0       14.267267   -1.422783    0.128886
    114          6           0       13.328076   -2.437297    0.043783
    115          6           0       12.023521   -1.828645    0.012263
    116          6           0       15.758021   -1.563914    0.143716
    117          6           0       13.055191   -3.809099   -0.072720
    118          8           0       13.869600   -4.729770   -0.092259
    119          6           0       11.525016   -4.037022    0.086884
    120          6           0       11.182933   -4.923422   -1.101638
    121          8           0       10.562361   -6.004203   -1.014607
    122          8           0       11.548856   -4.245456   -2.240519
    123          6           0       11.142057   -4.699798   -3.592764
    124          1           0        6.066075    0.018188    0.805463
    125          1           0       10.052337    5.141637    0.108976
    126          1           0       15.066329    1.262065   -0.011337
    127          1           0        8.298531   -3.989078   -0.086366
    128          1           0        7.019142   -2.279819    1.986425
    129          1           0        5.386531   -2.111466   -0.252325
    130          1           0        5.277754   -3.295568    1.123055
    131          1           0        6.115326   -3.650481   -0.349165
    132          1           0        9.091546   -5.309257    1.596623
    133          1           0        7.729664   -4.503196    2.446597
    134          1           0       10.077017   -3.018571    2.942180
    135          1           0       10.390142   -4.718061    3.058500
    136          1           0        4.790430    1.807085    0.049087
    137          1           0        4.706876    3.576811   -0.013630
    138          1           0        5.089848    2.770449    1.517787
    139          1           0        8.770222    5.813162   -1.290086
    140          1           0        8.629739    6.865915    0.159339
    141          1           0        7.687602    7.271282   -1.268044
    142          1           0       12.663431    4.788571    1.228995
    143          1           0       14.241500    3.593212   -1.230809
    144          1           0       13.453092    5.817610   -1.420811
    145          1           0       12.668730    6.787235   -0.014655
    146          1           0       11.746117    6.064125   -1.236552
    147          1           0       15.227461    3.169751    1.383390
    148          1           0       14.957491    4.842282    1.223438
    149          1           0       17.152069    4.930899    0.175929
    150          1           0       16.484953    3.913816   -1.128468
    151          1           0       16.998654    3.127628    0.245815
    152          1           0       16.140188   -2.424816   -0.405355
    153          1           0       16.085966   -1.639000    1.180755
    154          1           0       16.275052   -0.725063   -0.324066
    155          1           0       11.458503   -4.545567    1.047912
    156          1           0       10.883801   -3.871898   -4.252827
    157          1           0       10.276207   -5.353028   -3.483418
    158          1           0       11.818826   -5.291542   -4.207873
 ---------------------------------------------------------------------

 SCF Done:  E(RCAM-B3LYP) =  -4069.71882017     A.U. after   19 cycles

 Excitation energies and oscillator strengths:

 Excited State   1:      Singlet-A      1.6333 eV  759.12 nm  f=0.4464  <S**2>=0.000
     309 -> 316       -0.16784
     311 -> 313        0.68429
     309 <- 316       -0.10801
 This state for optimization and/or second-order correction.
 Total Energy, E(TD-HF/TD-DFT) =  -4069.65879865
 Copying the excited state density for this state as the 1-particle RhoCI density.

 Excited State   2:      Singlet-A      1.6894 eV  733.90 nm  f=0.3127  <S**2>=0.000
     310 -> 315        0.19959
     312 -> 314        0.67597
     310 <- 315        0.11419

 Excited State   3:      Singlet-A      2.1488 eV  577.00 nm  f=0.1432  <S**2>=0.000
     309 -> 313        0.65188
     311 -> 316        0.25555

 Excited State   4:      Singlet-A      2.2000 eV  563.58 nm  f=0.0737  <S**2>=0.000
     310 -> 314        0.61839
     312 -> 315       -0.32992

 Excited State   5:      Singlet-A      2.7476 eV  451.24 nm  f=0.0000  <S**2>=0.000
     312 -> 313        0.70702

 The electronic state is 1-A.
 Alpha  occ. eigenvalues --  -46.90199 -46.89868 -19.26160 -19.25091 -19.20262
 Alpha  occ. eigenvalues --  -19.18861 -19.18849 -19.18404 -19.18058 -19.17152
 Alpha  occ. eigenvalues --  -14.42504 -14.42419 -14.41960 -14.41952 -14.40126
 Alpha  occ. eigenvalues --  -14.39972 -14.39581 -14.39527 -10.40414 -10.38732
 Alpha  occ. eigenvalues --  -10.34964 -10.34310 -10.34204 -10.33492 -10.32765
 Alpha  occ. eigenvalues --  -10.32483 -10.32003 -10.31996 -10.31525 -10.31381
 Alpha  occ. eigenvalues --  -10.30964 -10.30924 -10.30914 -10.30856 -10.30722
 Alpha  occ. eigenvalues --  -10.30689 -10.30674 -10.30623 -10.30096 -10.29944
 Alpha  occ. eigenvalues --  -10.29836 -10.29305 -10.28845 -10.28834 -10.28802
 Alpha  occ. eigenvalues --  -10.28772 -10.28722 -10.28402 -10.28392 -10.28383
 Alpha  occ. eigenvalues --  -10.28345 -10.28232 -10.28134 -10.28120 -10.28086
 Alpha  occ. eigenvalues --  -10.28050 -10.27892 -10.27869 -10.27847 -10.27718
 Alpha  occ. eigenvalues --  -10.27647 -10.27440 -10.27422 -10.27419 -10.27156
 Alpha  occ. eigenvalues --  -10.27001 -10.26949 -10.26898 -10.26778 -10.26737
 Alpha  occ. eigenvalues --  -10.26714 -10.26655 -10.26606 -10.26593 -10.26387
 Alpha  occ. eigenvalues --  -10.26291 -10.26188 -10.26177 -10.25939 -10.25772
 Alpha  occ. eigenvalues --  -10.25625 -10.25483 -10.25433 -10.25094 -10.25039
 Alpha  occ. eigenvalues --  -10.24935  -3.18505  -3.18340  -1.93369  -1.93198
 Alpha  occ. eigenvalues --   -1.92993  -1.92832  -1.92783  -1.92615  -1.17074
 Alpha  occ. eigenvalues --   -1.15619  -1.11330  -1.10203  -1.09286  -1.08815
 Alpha  occ. eigenvalues --   -1.07710  -1.07192  -1.05092  -1.04585  -1.04287
 Alpha  occ. eigenvalues --   -1.03667  -1.02855  -1.02384  -1.02076  -1.01588
 Alpha  occ. eigenvalues --   -0.93617  -0.91938  -0.89782  -0.88932  -0.88813
 Alpha  occ. eigenvalues --   -0.88649  -0.88329  -0.88236  -0.87869  -0.87171
 Alpha  occ. eigenvalues --   -0.87075  -0.86100  -0.85790  -0.85344  -0.84676
 Alpha  occ. eigenvalues --   -0.84476  -0.84023  -0.83938  -0.83028  -0.82844
 Alpha  occ. eigenvalues --   -0.82613  -0.82107  -0.81089  -0.80915  -0.80517
 Alpha  occ. eigenvalues --   -0.80240  -0.78454  -0.77887  -0.77737  -0.77334
 Alpha  occ. eigenvalues --   -0.76903  -0.76629  -0.76377  -0.76294  -0.75390
 Alpha  occ. eigenvalues --   -0.74950  -0.73506  -0.72839  -0.71710  -0.71678
 Alpha  occ. eigenvalues --   -0.69980  -0.69313  -0.68892  -0.68501  -0.68331
 Alpha  occ. eigenvalues --   -0.68111  -0.66669  -0.66495  -0.66214  -0.65562
 Alpha  occ. eigenvalues --   -0.65425  -0.65186  -0.64747  -0.64638  -0.64327
 Alpha  occ. eigenvalues --   -0.64019  -0.63525  -0.62421  -0.60268  -0.60210
 Alpha  occ. eigenvalues --   -0.59322  -0.59260  -0.58966  -0.58814  -0.58691
 Alpha  occ. eigenvalues --   -0.57998  -0.57790  -0.57560  -0.57252  -0.57139
 Alpha  occ. eigenvalues --   -0.56450  -0.56315  -0.55829  -0.55733  -0.55253
 Alpha  occ. eigenvalues --   -0.55031  -0.55030  -0.54907  -0.54499  -0.54403
 Alpha  occ. eigenvalues --   -0.53911  -0.53848  -0.53502  -0.53206  -0.53130
 Alpha  occ. eigenvalues --   -0.53044  -0.52605  -0.52483  -0.52442  -0.52014
 Alpha  occ. eigenvalues --   -0.52009  -0.51768  -0.51743  -0.51734  -0.51511
 Alpha  occ. eigenvalues --   -0.51278  -0.51013  -0.50663  -0.50629  -0.50522
 Alpha  occ. eigenvalues --   -0.50136  -0.49899  -0.49795  -0.49679  -0.49631
 Alpha  occ. eigenvalues --   -0.49471  -0.49388  -0.49205  -0.49116  -0.48936
 Alpha  occ. eigenvalues --   -0.48918  -0.48494  -0.48251  -0.48160  -0.47798
 Alpha  occ. eigenvalues --   -0.47776  -0.47474  -0.47285  -0.47234  -0.47138
 Alpha  occ. eigenvalues --   -0.47009  -0.46932  -0.46880  -0.46808  -0.46583
 Alpha  occ. eigenvalues --   -0.46340  -0.46267  -0.46070  -0.45791  -0.45584
 Alpha  occ. eigenvalues --   -0.45554  -0.45458  -0.45291  -0.45241  -0.45161
 Alpha  occ. eigenvalues --   -0.45088  -0.44941  -0.44883  -0.44818  -0.44336
 Alpha  occ. eigenvalues --   -0.44084  -0.43941  -0.43930  -0.43657  -0.43559
 Alpha  occ. eigenvalues --   -0.43297  -0.43204  -0.42998  -0.42876  -0.42638
 Alpha  occ. eigenvalues --   -0.42579  -0.42372  -0.42305  -0.42013  -0.41983
 Alpha  occ. eigenvalues --   -0.41872  -0.41652  -0.41474  -0.41421  -0.41394
 Alpha  occ. eigenvalues --   -0.41280  -0.41220  -0.40846  -0.40500  -0.40141
 Alpha  occ. eigenvalues --   -0.40092  -0.40009  -0.39779  -0.38960  -0.38619
 Alpha  occ. eigenvalues --   -0.38601  -0.37981  -0.37907  -0.37405  -0.37300
 Alpha  occ. eigenvalues --   -0.37104  -0.36816  -0.36735  -0.36369  -0.36081
 Alpha  occ. eigenvalues --   -0.35703  -0.35534  -0.34719  -0.34250  -0.34089
 Alpha  occ. eigenvalues --   -0.33794  -0.33331  -0.33007  -0.31494  -0.31365
 Alpha  occ. eigenvalues --   -0.30822  -0.30733  -0.30663  -0.30436  -0.30257
 Alpha  occ. eigenvalues --   -0.29463  -0.28907  -0.28265  -0.24384  -0.24266
 Alpha  occ. eigenvalues --   -0.21638  -0.21299
 Alpha virt. eigenvalues --   -0.09587  -0.08750  -0.02538  -0.01882   0.00221
 Alpha virt. eigenvalues --    0.00280   0.01044   0.01076   0.02444   0.02771
 Alpha virt. eigenvalues --    0.04632   0.04802   0.04992   0.05193   0.05981

 Mulliken charges:
               1
     1  Mg   0.808982
     2  C   -0.024339
     3  C   -0.063419
     4  C   -0.069213
     5  C   -0.046304
     6  N   -0.259844
     7  C   -0.095499
     8  C    0.047084
     9  C   -0.094973
    10  C    0.038559
    11  C    0.067279
    12  C    0.028268
    13  C   -0.086677
    14  H   -0.003145
    15  N   -0.383421
    16  C    0.151026
    17  C   -0.160453
    18  C   -0.041645
    19  C    0.173021
    20  C    0.133630
    21  C   -0.012999
    22  O   -0.204504
    23  C    0.070711
    24  N   -0.255734
    25  C    0.022679
    26  C   -0.100953
    27  C   -0.016297
    28  C    0.028480
    29  C    0.062458
    30  C    0.013399
    31  C    0.006254
    32  N   -0.412708
    33  C    0.143903
    34  C   -0.181315
    35  C    0.017183
    36  C    0.150190
    37  C    0.132631
    38  C    0.023826
    39  O   -0.197054
    40  C    0.022514
    41  C    0.168852
    42  O   -0.206922
    43  O   -0.315783
    44  C    0.170889
    45  H   -0.008692
    46  H   -0.041476
    47  H   -0.024940
    48  H    0.008525
    49  H    0.035929
    50  H    0.010304
    51  H    0.022848
    52  H    0.020750
    53  H    0.017374
    54  H    0.016091
    55  H    0.065928
    56  H    0.027581
    57  H    0.007223
    58  H    0.023879
    59  H    0.038888
    60  H    0.044581
    61  H    0.029477
    62  H    0.034961
    63  H    0.015081
    64  H   -0.005350
    65  H    0.022309
    66  H    0.010616
    67  H    0.024179
    68  H    0.012591
    69  H    0.009638
    70  H    0.031704
    71  H    0.006027
    72  H    0.005318
    73  H    0.032344
    74  H    0.035091
    75  H    0.039250
    76  H    0.037023
    77  H    0.053151
    78  H    0.040854
    79  H    0.052325
    80  Mg   0.824852
    81  C    0.019270
    82  C   -0.076667
    83  C   -0.075494
    84  C   -0.091423
    85  N   -0.272130
    86  C   -0.046418
    87  C    0.019241
    88  C   -0.038012
    89  C    0.011785
    90  C    0.090844
    91  C    0.034489
    92  C   -0.113462
    93  H    0.011709
    94  N   -0.363570
    95  C    0.155704
    96  C   -0.164538
    97  C   -0.053351
    98  C    0.114141
    99  C    0.136221
   100  C   -0.034774
   101  O   -0.178428
   102  C    0.046375
   103  N   -0.288417
   104  C    0.057886
   105  C   -0.083531
   106  C   -0.035926
   107  C    0.047938
   108  C    0.096463
   109  C    0.031072
   110  C    0.010244
   111  N   -0.351573
   112  C    0.123437
   113  C   -0.173016
   114  C    0.107812
   115  C    0.078399
   116  C    0.118832
   117  C   -0.023809
   118  O   -0.181324
   119  C   -0.040648
   120  C    0.244502
   121  O   -0.225427
   122  O   -0.349198
   123  C    0.180528
   124  H   -0.015150
   125  H   -0.017742
   126  H   -0.038145
   127  H    0.014926
   128  H    0.022420
   129  H    0.015213
   130  H    0.019113
   131  H    0.005278
   132  H    0.034469
   133  H    0.020722
   134  H    0.043027
   135  H    0.033785
   136  H    0.011993
   137  H    0.039946
   138  H    0.029975
   139  H    0.015034
   140  H    0.048845
   141  H    0.030923
   142  H    0.029252
   143  H    0.015998
   144  H    0.016575
   145  H    0.016610
   146  H    0.012743
   147  H    0.006039
   148  H    0.001975
   149  H    0.032992
   150  H    0.005040
   151  H    0.010927
   152  H    0.037098
   153  H    0.036861
   154  H    0.010793
   155  H    0.036882
   156  H    0.035866
   157  H    0.037900
   158  H    0.041205
 Sum of Mulliken charges =  -0.00000

 Dipole moment (field-independent basis, Debye):
    X=              1.3951    Y=              4.2741    Z=             -3.9195  Tot=              5.9646
 Quadrupole moment (field-independent basis, Debye-Ang):
   XX=           -509.2555   YY=           -499.9591   ZZ=           -501.6869
   XY=             44.7488   XZ=             -0.1409   YZ=              6.1289

 Normal termination of Gaussian 16 at Tue Sep 14 18:00:34 2021.
