 Gaussian 16, Revision A.03,
 Gaussian 16:  ES64L-G16RevA.03 25-Dec-2016

 ----------------------------------------------------------
 #p cam-b3lyp/Def2SVP td=(nstates=5) density=(transition=1)
 ----------------------------------------------------------

 --------------------------------
 TDDFT excited states in gaussian
 --------------------------------
 Symbolic Z-matrix:
 Charge =  0 Multiplicity = 1

                         Standard orientation:
 ---------------------------------------------------------------------
 Center     Atomic      Atomic             Coordinates (Angstroms)
 Number     Number       Type             X           Y           Z
 ---------------------------------------------------------------------
      1         12           0       18.485354   -0.232968    0.452024
      2          6           0       15.329255   -1.872402    0.283401
      3          6           0       19.239949   -1.418602   -2.671693
      4          6           0       21.011182    2.176269    0.201374
      5          6           0       17.401999    1.406841    3.365069
      6          7           0       17.174873   -1.347239   -1.126874
      7          6           0       16.080502   -2.091258   -0.897668
      8          6           0       15.975266   -3.170569   -1.959543
      9          6           0       17.204381   -2.995431   -2.975188
     10          6           0       18.003418   -1.914541   -2.085365
     11          6           0       17.933133   -4.351051   -3.112999
     12          6           0       14.632619   -3.102850   -2.669331
     13          6           0       14.059876   -1.692737   -2.947422
     14          1           0       14.092858   -1.200727   -4.420215
     15          7           0       20.016745    0.263461   -1.018436
     16          6           0       20.095445   -0.373301   -2.237874
     17          6           0       21.306021    0.090558   -2.839800
     18          6           0       21.831224    1.216619   -2.098325
     19          6           0       20.991264    1.257184   -0.874560
     20          6           0       21.771090   -0.378005   -4.199162
     21          6           0       22.895191    2.221098   -2.543735
     22          8           0       23.380273    2.140651   -3.655820
     23          6           0       23.362412    3.294225   -1.718212
     24          7           0       19.065132    1.602606    1.552699
     25          6           0       20.183488    2.276637    1.328727
     26          6           0       20.396703    3.429630    2.296027
     27          6           0       19.015497    3.376037    3.080250
     28          6           0       18.473879    2.040710    2.716593
     29          6           0       21.675818    3.249300    3.250810
     30          6           0       18.106008    4.632879    2.697643
     31          6           0       17.816825    5.702505    3.712428
     32          7           0       16.915704   -0.380520    1.698555
     33          6           0       16.664730    0.265830    2.926047
     34          6           0       15.451764   -0.280267    3.562860
     35          6           0       14.960538   -1.112252    2.556950
     36          6           0       15.780090   -1.080860    1.374944
     37          6           0       14.913520   -0.083014    5.022088
     38          6           0       13.835038   -2.002536    2.255252
     39          8           0       12.843313   -2.368838    2.907334
     40          6           0       14.021633   -2.544663    0.799750
     41          6           0       12.806473   -1.967411    0.159753
     42          8           0       12.535939   -0.794880    0.110986
     43          8           0       11.994737   -2.942317   -0.239446
     44          6           0       10.739684   -2.595586   -0.993469
     45          1           0       19.614669   -2.014291   -3.506496
     46          1           0       21.789879    2.936590    0.288626
     47          1           0       17.109644    2.050046    4.198336
     48          1           0       16.026298   -4.039878   -1.303911
     49          1           0       16.893678   -2.606288   -3.945158
     50          1           0       17.898675   -4.648974   -4.160737
     51          1           0       17.478495   -5.168577   -2.552890
     52          1           0       18.968097   -4.160912   -2.830020
     53          1           0       13.884283   -3.637249   -2.084021
     54          1           0       14.699541   -3.557762   -3.658030
     55          1           0       14.579766   -0.839251   -2.512469
     56          1           0       13.032823   -1.742855   -2.585643
     57          1           0       21.058708   -1.064581   -4.657289
     58          1           0       22.780896   -0.773023   -4.082845
     59          1           0       21.932134    0.510527   -4.808629
     60          1           0       22.616653    4.047452   -1.463152
     61          1           0       24.171812    3.814902   -2.229584
     62          1           0       23.667360    2.778464   -0.807020
     63          1           0       20.415809    4.410203    1.821083
     64          1           0       19.346165    3.582394    4.098336
     65          1           0       22.209432    2.339195    2.975275
     66          1           0       21.301884    3.118685    4.266474
     67          1           0       22.362488    4.095990    3.296442
     68          1           0       17.083763    4.326882    2.474898
     69          1           0       18.502885    5.151015    1.825722
     70          1           0       16.828902    5.624961    4.166477
     71          1           0       17.869323    6.579464    3.066384
     72          1           0       18.627209    5.900242    4.414248
     73          1           0       14.465834    0.908910    5.077025
     74          1           0       15.754988   -0.241663    5.696722
     75          1           0       14.103320   -0.793027    5.187102
     76          1           0       14.058629   -3.631077    0.887989
     77          1           0        9.905492   -2.350102   -0.335836
     78          1           0       10.424584   -3.420312   -1.634013
     79          1           0       11.019969   -1.748883   -1.620049
     80         12           0      -17.973666    0.800111   -0.045901
     81          6           0      -15.322737   -1.545489    0.245555
     82          6           0      -19.927649   -1.557738    1.724556
     83          6           0      -20.587198    2.687430   -0.547718
     84          6           0      -15.916978    2.799524   -2.012871
     85          7           0      -17.656421   -1.359769    0.891020
     86          6           0      -16.441065   -1.997897    0.933418
     87          6           0      -16.461539   -3.268778    1.765746
     88          6           0      -18.009833   -3.303006    2.120513
     89          6           0      -18.576899   -1.978836    1.586018
     90          6           0      -18.655484   -4.594487    1.627131
     91          6           0      -15.548876   -3.126986    3.003674
     92          6           0      -14.750908   -4.392133    3.500838
     93          1           0      -15.251393   -5.788249    3.061308
     94          7           0      -19.977286    0.642859    0.574230
     95          6           0      -20.582658   -0.437758    1.216335
     96          6           0      -22.001358   -0.107604    1.425142
     97          6           0      -22.178994    1.190376    0.844287
     98          6           0      -20.855410    1.552369    0.301972
     99          6           0      -22.942377   -1.013437    2.018808
    100          6           0      -23.449907    2.030329    0.766722
    101          8           0      -23.471173    3.102236    0.141172
    102          6           0      -24.636502    1.682107    1.576691
    103          7           0      -18.244288    2.454198   -1.216409
    104          6           0      -19.402712    3.117643   -1.174103
    105          6           0      -19.368827    4.368101   -2.111698
    106          6           0      -17.840040    4.492203   -2.405544
    107          6           0      -17.276317    3.205378   -1.889788
    108          6           0      -20.308111    4.261636   -3.366635
    109          6           0      -17.352585    5.717938   -1.542310
    110          6           0      -16.765555    5.491064   -0.106589
    111          7           0      -16.007793    0.752844   -0.675677
    112          6           0      -15.314755    1.656449   -1.501451
    113          6           0      -13.953042    1.116846   -1.740066
    114          6           0      -13.963734   -0.130424   -1.126697
    115          6           0      -15.158546   -0.337118   -0.470268
    116          6           0      -13.079443    1.737339   -2.721004
    117          6           0      -13.160462   -1.345273   -1.012932
    118          8           0      -12.064637   -1.573349   -1.512781
    119          6           0      -14.025953   -2.354823   -0.122115
    120          6           0      -14.287471   -3.621794   -0.847458
    121          8           0      -15.283248   -3.881500   -1.516863
    122          8           0      -13.211240   -4.503327   -0.632269
    123          6           0      -13.159319   -5.801670   -1.265462
    124          1           0      -20.524769   -2.099538    2.461540
    125          1           0      -21.415593    3.373753   -0.737271
    126          1           0      -15.359411    3.530077   -2.602176
    127          1           0      -16.158525   -4.148390    1.197207
    128          1           0      -18.063333   -3.401202    3.204417
    129          1           0      -19.172940   -5.171423    2.392804
    130          1           0      -17.996520   -5.296822    1.116591
    131          1           0      -19.455586   -4.297063    0.947981
    132          1           0      -16.111213   -2.751897    3.858683
    133          1           0      -14.882999   -2.332444    2.665121
    134          1           0      -14.796647   -4.465030    4.586922
    135          1           0      -13.701694   -4.143786    3.340992
    136          1           0      -23.429225   -0.461556    2.823125
    137          1           0      -22.484867   -1.984524    2.205478
    138          1           0      -23.582735   -1.212001    1.158801
    139          1           0      -25.168713    0.802225    1.213962
    140          1           0      -25.355531    2.499935    1.533177
    141          1           0      -24.284968    1.387784    2.565158
    142          1           0      -19.778247    5.094324   -1.409465
    143          1           0      -17.644772    4.718646   -3.454032
    144          1           0      -21.254923    4.763743   -3.167356
    145          1           0      -20.377901    3.203052   -3.614803
    146          1           0      -19.783062    4.771695   -4.174091
    147          1           0      -18.092156    6.516538   -1.603776
    148          1           0      -16.418724    5.999315   -2.029872
    149          1           0      -17.234496    6.279593    0.481270
    150          1           0      -15.685025    5.632588   -0.059801
    151          1           0      -17.017192    4.545032    0.371566
    152          1           0      -13.646509    1.896615   -3.637269
    153          1           0      -12.290853    1.014219   -2.931600
    154          1           0      -12.546564    2.584591   -2.290225
    155          1           0      -13.374035   -2.556098    0.728505
    156          1           0      -12.568578   -5.813268   -2.181103
    157          1           0      -14.140565   -6.276281   -1.280615
    158          1           0      -12.681321   -6.387643   -0.479924
 ---------------------------------------------------------------------

 SCF Done:  E(RCAM-B3LYP) =  -4069.76934171     A.U. after   18 cycles

 Excitation energies and oscillator strengths:

 Excited State   1:      Singlet-A      1.6890 eV  734.08 nm  f=0.3640  <S**2>=0.000
     309 -> 315        0.20074
     311 -> 313        0.68042
     309 <- 315        0.11490
 This state for optimization and/or second-order correction.
 Total Energy, E(TD-HF/TD-DFT) =  -4069.70727344
 Copying the excited state density for this state as the 1-particle RhoCI density.

 Excited State   2:      Singlet-A      1.7491 eV  708.86 nm  f=0.3665  <S**2>=0.000
     310 -> 316        0.18982
     312 -> 314        0.68126
     310 <- 316        0.10803

 Excited State   3:      Singlet-A      2.1999 eV  563.59 nm  f=0.0720  <S**2>=0.000
     309 -> 313        0.61856
     311 -> 315       -0.32994

 Excited State   4:      Singlet-A      2.2728 eV  545.50 nm  f=0.0722  <S**2>=0.000
     310 -> 314        0.62313
     312 -> 316       -0.32197

 Excited State   5:      Singlet-A      3.0046 eV  412.65 nm  f=0.0000  <S**2>=0.000
     312 -> 313        0.70709

 The electronic state is 1-A.
 Alpha  occ. eigenvalues --  -46.90193 -46.88483 -19.25046 -19.23958 -19.19861
 Alpha  occ. eigenvalues --  -19.19295 -19.18833 -19.18826 -19.18716 -19.18052
 Alpha  occ. eigenvalues --  -14.42411 -14.42102 -14.41956 -14.41262 -14.40120
 Alpha  occ. eigenvalues --  -14.39662 -14.39521 -14.38895 -10.39460 -10.38698
 Alpha  occ. eigenvalues --  -10.35351 -10.35265 -10.34947 -10.34305 -10.32422
 Alpha  occ. eigenvalues --  -10.31987 -10.31370 -10.31163 -10.30985 -10.30961
 Alpha  occ. eigenvalues --  -10.30909 -10.30747 -10.30720 -10.30686 -10.30429
 Alpha  occ. eigenvalues --  -10.30366 -10.30292 -10.30193 -10.29935 -10.29830
 Alpha  occ. eigenvalues --  -10.29209 -10.29165 -10.29006 -10.28848 -10.28835
 Alpha  occ. eigenvalues --  -10.28800 -10.28707 -10.28374 -10.28360 -10.28213
 Alpha  occ. eigenvalues --  -10.28137 -10.28079 -10.28045 -10.28018 -10.27828
 Alpha  occ. eigenvalues --  -10.27653 -10.27560 -10.27532 -10.27425 -10.27421
 Alpha  occ. eigenvalues --  -10.27371 -10.27258 -10.27217 -10.27119 -10.27019
 Alpha  occ. eigenvalues --  -10.26995 -10.26970 -10.26893 -10.26786 -10.26782
 Alpha  occ. eigenvalues --  -10.26567 -10.26487 -10.26408 -10.26397 -10.26347
 Alpha  occ. eigenvalues --  -10.26171 -10.25766 -10.25731 -10.25622 -10.25502
 Alpha  occ. eigenvalues --  -10.25317 -10.25288 -10.25255 -10.25070 -10.25032
 Alpha  occ. eigenvalues --  -10.24673  -3.18499  -3.17026  -1.93363  -1.92987
 Alpha  occ. eigenvalues --   -1.92777  -1.91933  -1.91494  -1.91314  -1.17033
 Alpha  occ. eigenvalues --   -1.14632  -1.10198  -1.09634  -1.09183  -1.08794
 Alpha  occ. eigenvalues --   -1.07675  -1.07223  -1.04736  -1.04583  -1.04018
 Alpha  occ. eigenvalues --   -1.03657  -1.03070  -1.02378  -1.01583  -1.01351
 Alpha  occ. eigenvalues --   -0.91956  -0.91924  -0.89859  -0.88933  -0.88796
 Alpha  occ. eigenvalues --   -0.88634  -0.88362  -0.88235  -0.87310  -0.87068
 Alpha  occ. eigenvalues --   -0.86712  -0.86160  -0.86100  -0.85339  -0.84666
 Alpha  occ. eigenvalues --   -0.84108  -0.84026  -0.83275  -0.82832  -0.82621
 Alpha  occ. eigenvalues --   -0.82596  -0.81968  -0.81070  -0.80807  -0.80415
 Alpha  occ. eigenvalues --   -0.80233  -0.78922  -0.77880  -0.77326  -0.77080
 Alpha  occ. eigenvalues --   -0.76829  -0.76368  -0.76277  -0.75761  -0.74946
 Alpha  occ. eigenvalues --   -0.74755  -0.72836  -0.72101  -0.71702  -0.71278
 Alpha  occ. eigenvalues --   -0.69210  -0.68884  -0.68878  -0.68508  -0.68097
 Alpha  occ. eigenvalues --   -0.67814  -0.66681  -0.66661  -0.65565  -0.65172
 Alpha  occ. eigenvalues --   -0.64977  -0.64733  -0.64654  -0.64434  -0.64159
 Alpha  occ. eigenvalues --   -0.64009  -0.62390  -0.61507  -0.60304  -0.60265
 Alpha  occ. eigenvalues --   -0.59337  -0.59251  -0.59017  -0.58958  -0.58666
 Alpha  occ. eigenvalues --   -0.58036  -0.57847  -0.57782  -0.57241  -0.57139
 Alpha  occ. eigenvalues --   -0.56291  -0.56251  -0.55820  -0.55464  -0.55303
 Alpha  occ. eigenvalues --   -0.55011  -0.54879  -0.54487  -0.54250  -0.53931
 Alpha  occ. eigenvalues --   -0.53844  -0.53823  -0.53515  -0.53297  -0.53125
 Alpha  occ. eigenvalues --   -0.53037  -0.52740  -0.52597  -0.52468  -0.52299
 Alpha  occ. eigenvalues --   -0.51997  -0.51781  -0.51727  -0.51503  -0.51472
 Alpha  occ. eigenvalues --   -0.51277  -0.50737  -0.50646  -0.50579  -0.50140
 Alpha  occ. eigenvalues --   -0.49878  -0.49779  -0.49756  -0.49665  -0.49531
 Alpha  occ. eigenvalues --   -0.49458  -0.49191  -0.48998  -0.48929  -0.48880
 Alpha  occ. eigenvalues --   -0.48497  -0.48487  -0.48359  -0.48233  -0.48052
 Alpha  occ. eigenvalues --   -0.47778  -0.47567  -0.47334  -0.47283  -0.46929
 Alpha  occ. eigenvalues --   -0.46921  -0.46881  -0.46651  -0.46574  -0.46269
 Alpha  occ. eigenvalues --   -0.46076  -0.45965  -0.45778  -0.45577  -0.45363
 Alpha  occ. eigenvalues --   -0.45284  -0.45158  -0.45071  -0.44990  -0.44868
 Alpha  occ. eigenvalues --   -0.44585  -0.44333  -0.44224  -0.44204  -0.44020
 Alpha  occ. eigenvalues --   -0.43926  -0.43902  -0.43651  -0.43634  -0.43553
 Alpha  occ. eigenvalues --   -0.43391  -0.43286  -0.43187  -0.42928  -0.42861
 Alpha  occ. eigenvalues --   -0.42524  -0.42366  -0.41972  -0.41922  -0.41666
 Alpha  occ. eigenvalues --   -0.41472  -0.41382  -0.41275  -0.41258  -0.40992
 Alpha  occ. eigenvalues --   -0.40834  -0.40636  -0.40316  -0.40099  -0.39999
 Alpha  occ. eigenvalues --   -0.39824  -0.39780  -0.39343  -0.38621  -0.38547
 Alpha  occ. eigenvalues --   -0.37964  -0.37719  -0.37395  -0.37394  -0.37082
 Alpha  occ. eigenvalues --   -0.37082  -0.36721  -0.36606  -0.36357  -0.36093
 Alpha  occ. eigenvalues --   -0.35680  -0.35653  -0.34218  -0.34147  -0.34080
 Alpha  occ. eigenvalues --   -0.34008  -0.33325  -0.33266  -0.31358  -0.31169
 Alpha  occ. eigenvalues --   -0.30932  -0.30793  -0.30719  -0.30656  -0.30251
 Alpha  occ. eigenvalues --   -0.30126  -0.29314  -0.28901  -0.24259  -0.23851
 Alpha  occ. eigenvalues --   -0.21294  -0.20754
 Alpha virt. eigenvalues --   -0.08744  -0.08115  -0.02533  -0.01676   0.00266
 Alpha virt. eigenvalues --    0.00289   0.01051   0.02213   0.02451   0.03360
 Alpha virt. eigenvalues --    0.04809   0.04859   0.05118   0.05220   0.05761

 Mulliken charges:
               1
     1  Mg  12.004996
     2  C    6.016880
     3  C    5.966942
     4  C    5.979848
     5  C    6.025907
     6  N    7.006828
     7  C    5.969262
     8  C    6.001145
     9  C    5.984785
    10  C    6.045399
    11  C    5.998784
    12  C    6.003014
    13  C    6.008062
    14  H    0.985978
    15  N    6.986481
    16  C    6.051161
    17  C    6.015973
    18  C    6.012156
    19  C    6.044152
    20  C    5.994991
    21  C    6.011382
    22  O    8.018275
    23  C    5.995556
    24  N    7.004124
    25  C    6.028887
    26  C    5.986732
    27  C    6.015998
    28  C    5.959105
    29  C    5.997095
    30  C    6.001064
    31  C    6.002027
    32  N    7.007483
    33  C    5.951202
    34  C    5.974072
    35  C    5.996806
    36  C    5.963611
    37  C    5.996661
    38  C    5.985357
    39  O    7.966728
    40  C    5.999322
    41  C    5.993270
    42  O    7.998007
    43  O    7.998566
    44  C    6.002154
    45  H    1.005641
    46  H    1.009703
    47  H    0.990897
    48  H    1.006003
    49  H    1.006923
    50  H    1.004883
    51  H    1.011419
    52  H    0.995916
    53  H    1.005064
    54  H    0.991755
    55  H    1.000154
    56  H    1.003888
    57  H    1.020110
    58  H    1.019890
    59  H    1.017243
    60  H    1.011454
    61  H    1.012615
    62  H    1.006641
    63  H    1.002247
    64  H    0.994622
    65  H    0.996443
    66  H    1.012815
    67  H    1.001711
    68  H    1.003587
    69  H    0.986027
    70  H    1.002572
    71  H    0.994677
    72  H    0.995098
    73  H    0.982781
    74  H    0.984533
    75  H    0.988575
    76  H    0.990047
    77  H    0.998171
    78  H    0.994019
    79  H    0.995651
    80  Mg  12.000029
    81  C    5.999617
    82  C    6.000149
    83  C    6.000477
    84  C    5.999829
    85  N    6.999835
    86  C    6.000505
    87  C    5.999792
    88  C    6.000213
    89  C    5.999563
    90  C    6.000034
    91  C    5.999959
    92  C    5.999972
    93  H    1.000015
    94  N    7.000203
    95  C    5.999281
    96  C    5.999759
    97  C    5.999662
    98  C    5.999510
    99  C    6.000119
   100  C    5.999782
   101  O    7.999515
   102  C    6.000103
   103  N    7.000135
   104  C    5.999417
   105  C    6.000067
   106  C    5.999852
   107  C    6.000380
   108  C    6.000055
   109  C    5.999977
   110  C    5.999892
   111  N    6.999905
   112  C    6.000498
   113  C    6.000636
   114  C    5.999979
   115  C    6.000578
   116  C    5.999855
   117  C    6.000301
   118  O    8.000507
   119  C    6.000049
   120  C    6.000009
   121  O    8.000034
   122  O    8.000071
   123  C    5.999930
   124  H    0.999797
   125  H    0.999882
   126  H    1.000170
   127  H    1.000033
   128  H    0.999931
   129  H    0.999921
   130  H    0.999820
   131  H    0.999982
   132  H    1.000141
   133  H    0.999948
   134  H    1.000099
   135  H    1.000078
   136  H    0.999703
   137  H    0.999757
   138  H    0.999664
   139  H    0.999822
   140  H    0.999721
   141  H    0.999942
   142  H    1.000033
   143  H    1.000005
   144  H    0.999979
   145  H    0.999973
   146  H    0.999799
   147  H    1.000092
   148  H    1.000001
   149  H    1.000112
   150  H    1.000041
   151  H    1.000092
   152  H    1.000217
   153  H    1.000324
   154  H    1.000407
   155  H    1.000246
   156  H    1.000046
   157  H    1.000002
   158  H    1.000167
 Sum of Mulliken charges = 624.00000

 Dipole moment (field-independent basis, Debye):
    X=              8.2723    Y=              1.2017    Z=             -6.6168  Tot=             10.6610
 Quadrupole moment (field-independent basis, Debye-Ang):
   XX=            288.2643   YY=              0.0467   ZZ=             -4.4780
   XY=             21.3014   XZ=           -118.9456   YZ=              0.4690

 Normal termination of Gaussian 16 at Tue Sep 21 19:42:04 2021.
