 Gaussian 16, Revision A.03,
 Gaussian 16:  ES64L-G16RevA.03 25-Dec-2016

 -----------------------------------
 #p cam-b3lyp/Def2SVP td=(nstates=5)
 -----------------------------------

 --------------------------------
 TDDFT excited states in gaussian
 --------------------------------
 Symbolic Z-matrix:
 Charge =  0 Multiplicity = 1

                         Standard orientation:
 ---------------------------------------------------------------------
 Center     Atomic      Atomic             Coordinates (Angstroms)
 Number     Number       Type             X           Y           Z
 ---------------------------------------------------------------------
      1         12           0       17.865463    0.018141    0.333699
      2          6           0       15.116360   -1.094188   -1.525449
      3          6           0       18.418821    2.249419   -2.250071
      4          6           0       20.289435    1.382865    2.178663
      5          6           0       16.637379   -1.685675    3.128195
      6          7           0       16.653488    0.636269   -1.675518
      7          6           0       15.650224   -0.060596   -2.242718
      8          6           0       15.211603    0.490407   -3.578245
      9          6           0       16.504926    1.348669   -3.852533
     10          6           0       17.248593    1.494016   -2.528837
     11          6           0       17.429077    0.608083   -4.855665
     12          6           0       13.839673    1.169351   -3.479151
     13          6           0       13.494992    2.026740   -2.243611
     14          1           0       12.908217    3.403794   -2.530491
     15          7           0       19.165111    1.566033    0.017943
     16          6           0       19.296393    2.261620   -1.154679
     17          6           0       20.614805    2.908419   -1.178397
     18          6           0       21.144157    2.815805    0.170702
     19          6           0       20.188178    1.877961    0.834768
     20          6           0       21.087752    3.839913   -2.359220
     21          6           0       22.384323    3.523388    0.722411
     22          8           0       23.113257    4.135817   -0.007207
     23          6           0       22.724093    3.415692    2.180983
     24          7           0       18.231179   -0.000090    2.476471
     25          6           0       19.397205    0.567489    3.022898
     26          6           0       19.575795    0.249080    4.567570
     27          6           0       18.392952   -0.805455    4.807219
     28          6           0       17.717909   -0.878259    3.361555
     29          6           0       21.000488   -0.236209    5.139020
     30          6           0       17.355242   -0.494258    5.979950
     31          6           0       16.846075   -1.858993    6.661313
     32          7           0       16.240234   -1.219093    0.775666
     33          6           0       15.930010   -1.906300    1.931564
     34          6           0       14.778422   -2.764875    1.682631
     35          6           0       14.416667   -2.570773    0.324540
     36          6           0       15.301453   -1.546103   -0.170784
     37          6           0       14.209125   -3.797145    2.620288
     38          6           0       13.462186   -2.861789   -0.794432
     39          8           0       12.446707   -3.521180   -0.804796
     40          6           0       13.948591   -1.951537   -2.000978
     41          6           0       14.329683   -2.885762   -3.116350
     42          8           0       13.500294   -3.470078   -3.857624
     43          8           0       15.707077   -2.875138   -3.281997
     44          6           0       16.189556   -3.535491   -4.448685
     45          1           0       18.650367    2.890740   -3.103136
     46          1           0       21.151812    1.600452    2.812597
     47          1           0       16.387293   -2.361315    3.948973
     48          1           0       15.208292   -0.278372   -4.350718
     49          1           0       16.374948    2.354646   -4.249247
     50          1           0       18.448123    0.864789   -4.565255
     51          1           0       17.153537    0.850821   -5.880976
     52          1           0       17.499243   -0.479189   -4.810894
     53          1           0       13.114878    0.356979   -3.435847
     54          1           0       13.688049    1.757453   -4.384354
     55          1           0       14.408205    2.213982   -1.679276
     56          1           0       12.739224    1.496194   -1.665158
     57          1           0       20.651050    4.838970   -2.363131
     58          1           0       20.875374    3.355260   -3.312226
     59          1           0       22.163485    3.983014   -2.454609
     60          1           0       23.535732    4.087727    2.461656
     61          1           0       23.001719    2.405849    2.483702
     62          1           0       21.830872    3.832845    2.646759
     63          1           0       19.322662    1.225696    4.978465
     64          1           0       18.790947   -1.801619    4.998339
     65          1           0       21.549171    0.658842    5.429838
     66          1           0       21.556539   -0.806262    4.395257
     67          1           0       20.823242   -0.896004    5.988593
     68          1           0       16.432584   -0.070140    5.583970
     69          1           0       17.777004    0.204416    6.702917
     70          1           0       15.768432   -1.975106    6.545259
     71          1           0       17.078671   -1.840290    7.725641
     72          1           0       17.180609   -2.811598    6.251990
     73          1           0       13.902146   -3.295184    3.537215
     74          1           0       14.977293   -4.530718    2.865946
     75          1           0       13.322141   -4.282944    2.213974
     76          1           0       13.038926   -1.450455   -2.331179
     77          1           0       17.265586   -3.382336   -4.527924
     78          1           0       15.614918   -3.250704   -5.330211
     79          1           0       16.135045   -4.620223   -4.356948
     80         12           0      -17.768249    0.516414    0.358342
     81          6           0      -14.697404   -0.622699   -0.679036
     82          6           0      -18.764024   -2.873215    0.780805
     83          6           0      -20.978597    1.440525    0.877338
     84          6           0      -16.934314    3.685116   -0.358959
     85          7           0      -16.823831   -1.519014    0.073286
     86          6           0      -15.543940   -1.694730   -0.379885
     87          6           0      -15.151719   -3.173823   -0.360264
     88          6           0      -16.569451   -3.853143   -0.072304
     89          6           0      -17.448862   -2.689589    0.281165
     90          6           0      -17.096681   -4.764275   -1.240878
     91          6           0      -14.066419   -3.534704    0.754037
     92          6           0      -12.893176   -4.445490    0.483183
     93          1           0      -13.142884   -5.730037   -0.224027
     94          7           0      -19.644637   -0.548010    0.829667
     95          6           0      -19.790383   -1.858069    1.126648
     96          6           0      -21.092486   -2.135869    1.633407
     97          6           0      -21.765912   -0.875788    1.706457
     98          6           0      -20.798788    0.055590    1.052589
     99          6           0      -21.462765   -3.556036    1.916320
    100          6           0      -23.202171   -0.586527    2.108225
    101          8           0      -23.752203    0.492380    1.866347
    102          6           0      -24.026820   -1.646977    2.816483
    103          7           0      -18.877508    2.319439    0.124613
    104          6           0      -20.166388    2.463819    0.530771
    105          6           0      -20.573443    3.936322    0.522399
    106          6           0      -19.193091    4.660508    0.290105
    107          6           0      -18.267532    3.493628    0.007455
    108          6           0      -21.735102    4.448299   -0.379610
    109          6           0      -18.701176    5.642956    1.433444
    110          6           0      -17.792883    5.142349    2.536505
    111          7           0      -16.217824    1.376855   -0.453058
    112          6           0      -15.893979    2.703664   -0.581824
    113          6           0      -14.615171    2.918637   -1.154242
    114          6           0      -14.074766    1.636598   -1.168697
    115          6           0      -15.077643    0.742729   -0.712818
    116          6           0      -13.852708    4.172177   -1.563176
    117          6           0      -12.959336    0.860558   -1.493831
    118          8           0      -11.908819    1.223445   -1.990294
    119          6           0      -13.281459   -0.714024   -1.218766
    120          6           0      -13.152612   -1.423989   -2.485336
    121          8           0      -13.873527   -1.264358   -3.490216
    122          8           0      -12.102667   -2.286794   -2.517475
    123          6           0      -11.665958   -2.823596   -3.811262
    124          1           0      -18.925712   -3.938772    0.954467
    125          1           0      -21.914829    1.798670    1.310053
    126          1           0      -16.514669    4.686802   -0.251658
    127          1           0      -14.680552   -3.416469   -1.313605
    128          1           0      -16.515384   -4.544412    0.768892
    129          1           0      -17.227983   -5.769480   -0.841818
    130          1           0      -16.358403   -4.645323   -2.034097
    131          1           0      -18.102003   -4.533672   -1.594674
    132          1           0      -14.696124   -3.988679    1.519404
    133          1           0      -13.742731   -2.641414    1.287183
    134          1           0      -12.323457   -4.601166    1.399281
    135          1           0      -12.270743   -3.907973   -0.231274
    136          1           0      -21.956307   -3.525503    2.887018
    137          1           0      -20.571274   -4.170451    2.044594
    138          1           0      -22.106311   -4.042895    1.182778
    139          1           0      -23.482987   -2.188375    3.591150
    140          1           0      -24.566725   -2.243472    2.079816
    141          1           0      -24.785410   -1.076497    3.353241
    142          1           0      -20.996323    4.077353    1.517308
    143          1           0      -19.226623    5.379769   -0.527348
    144          1           0      -21.341048    5.057399   -1.193005
    145          1           0      -22.360792    5.073265    0.257377
    146          1           0      -22.249034    3.554762   -0.732259
    147          1           0      -19.599558    6.039751    1.904310
    148          1           0      -18.162327    6.481209    0.991193
    149          1           0      -18.185005    5.382175    3.525131
    150          1           0      -16.774913    5.529147    2.473310
    151          1           0      -17.759487    4.061656    2.398228
    152          1           0      -14.452320    5.049414   -1.317225
    153          1           0      -13.636943    4.126848   -2.630944
    154          1           0      -12.911781    4.197879   -1.014262
    155          1           0      -12.438338   -0.970618   -0.576700
    156          1           0      -10.627170   -3.153663   -3.827553
    157          1           0      -11.902049   -2.208871   -4.679349
    158          1           0      -12.179060   -3.781130   -3.901791
 ---------------------------------------------------------------------

 SCF Done:  E(RCAM-B3LYP) =  -4069.82658876     A.U. after   19 cycles

 Excitation energies and oscillator strengths:

 Excited State   1:      Singlet-A      1.7199 eV  720.90 nm  f=0.4353  <S**2>=0.000
     310 -> 316       -0.17804
     311 -> 313        0.68638
     310 <- 316       -0.10689
 This state for optimization and/or second-order correction.
 Total Energy, E(TD-HF/TD-DFT) =  -4069.76338514
 Copying the excited state density for this state as the 1-particle RhoCI density.

 Excited State   2:      Singlet-A      1.7468 eV  709.76 nm  f=0.3419  <S**2>=0.000
     309 -> 315        0.19406
     312 -> 314        0.68051
     309 <- 315        0.10943

 Excited State   3:      Singlet-A      2.1905 eV  566.02 nm  f=0.1756  <S**2>=0.000
     310 -> 313        0.66248
     311 -> 316        0.23739

 Excited State   4:      Singlet-A      2.2374 eV  554.14 nm  f=0.1041  <S**2>=0.000
     309 -> 314        0.63522
     312 -> 315       -0.29908

 Excited State   5:      Singlet-A      3.0923 eV  400.95 nm  f=0.0000  <S**2>=0.000
     312 -> 313        0.70709

 The electronic state is 1-A.
 Alpha  occ. eigenvalues --  -46.90387 -46.89063 -19.26029 -19.25019 -19.20001
 Alpha  occ. eigenvalues --  -19.19535 -19.19032 -19.18835 -19.18549 -19.18477
 Alpha  occ. eigenvalues --  -14.42252 -14.42090 -14.41803 -14.41500 -14.40514
 Alpha  occ. eigenvalues --  -14.39537 -14.39466 -14.39457 -10.39963 -10.38887
 Alpha  occ. eigenvalues --  -10.35777 -10.35324 -10.35298 -10.34476 -10.32823
 Alpha  occ. eigenvalues --  -10.31969 -10.31822 -10.31560 -10.31119 -10.31029
 Alpha  occ. eigenvalues --  -10.30841 -10.30831 -10.30579 -10.30387 -10.30200
 Alpha  occ. eigenvalues --  -10.30086 -10.30030 -10.30007 -10.29880 -10.29840
 Alpha  occ. eigenvalues --  -10.29573 -10.29541 -10.29256 -10.28965 -10.28951
 Alpha  occ. eigenvalues --  -10.28520 -10.28520 -10.28513 -10.28429 -10.28406
 Alpha  occ. eigenvalues --  -10.28380 -10.28315 -10.28222 -10.28057 -10.27985
 Alpha  occ. eigenvalues --  -10.27962 -10.27953 -10.27930 -10.27899 -10.27784
 Alpha  occ. eigenvalues --  -10.27782 -10.27742 -10.27714 -10.27639 -10.27462
 Alpha  occ. eigenvalues --  -10.27416 -10.27277 -10.26873 -10.26859 -10.26813
 Alpha  occ. eigenvalues --  -10.26564 -10.26417 -10.26372 -10.26285 -10.26257
 Alpha  occ. eigenvalues --  -10.26213 -10.26195 -10.26168 -10.26144 -10.26018
 Alpha  occ. eigenvalues --  -10.25939 -10.25877 -10.25676 -10.25164 -10.25003
 Alpha  occ. eigenvalues --  -10.24577  -3.18750  -3.17673  -1.93613  -1.93225
 Alpha  occ. eigenvalues --   -1.93040  -1.92555  -1.92088  -1.92022  -1.16446
 Alpha  occ. eigenvalues --   -1.15803  -1.11497  -1.10647  -1.09841  -1.09421
 Alpha  occ. eigenvalues --   -1.07038  -1.05800  -1.05331  -1.04776  -1.04599
 Alpha  occ. eigenvalues --   -1.04112  -1.03878  -1.03436  -1.02954  -1.01888
 Alpha  occ. eigenvalues --   -0.92568  -0.92503  -0.89006  -0.88981  -0.88328
 Alpha  occ. eigenvalues --   -0.88216  -0.88156  -0.87738  -0.87735  -0.87378
 Alpha  occ. eigenvalues --   -0.87337  -0.86379  -0.86041  -0.85657  -0.84841
 Alpha  occ. eigenvalues --   -0.84239  -0.83723  -0.83343  -0.82703  -0.82638
 Alpha  occ. eigenvalues --   -0.81875  -0.81802  -0.81120  -0.80798  -0.80359
 Alpha  occ. eigenvalues --   -0.80280  -0.78348  -0.77529  -0.77436  -0.77281
 Alpha  occ. eigenvalues --   -0.77052  -0.76696  -0.76412  -0.76205  -0.75452
 Alpha  occ. eigenvalues --   -0.75314  -0.73500  -0.72806  -0.72051  -0.71503
 Alpha  occ. eigenvalues --   -0.69925  -0.69596  -0.69395  -0.69171  -0.68210
 Alpha  occ. eigenvalues --   -0.68082  -0.67151  -0.67086  -0.65892  -0.65587
 Alpha  occ. eigenvalues --   -0.65080  -0.64884  -0.64830  -0.64729  -0.64620
 Alpha  occ. eigenvalues --   -0.64167  -0.63709  -0.62193  -0.60140  -0.60023
 Alpha  occ. eigenvalues --   -0.59790  -0.59265  -0.59024  -0.58948  -0.58248
 Alpha  occ. eigenvalues --   -0.58170  -0.57867  -0.57786  -0.57339  -0.57254
 Alpha  occ. eigenvalues --   -0.56286  -0.56203  -0.56084  -0.55482  -0.55356
 Alpha  occ. eigenvalues --   -0.55053  -0.54941  -0.54838  -0.54293  -0.54024
 Alpha  occ. eigenvalues --   -0.53655  -0.53257  -0.53208  -0.53086  -0.53056
 Alpha  occ. eigenvalues --   -0.52779  -0.52749  -0.52558  -0.52182  -0.52037
 Alpha  occ. eigenvalues --   -0.51918  -0.51629  -0.51436  -0.51390  -0.51080
 Alpha  occ. eigenvalues --   -0.50713  -0.50691  -0.50547  -0.50528  -0.50225
 Alpha  occ. eigenvalues --   -0.50038  -0.49933  -0.49803  -0.49710  -0.49545
 Alpha  occ. eigenvalues --   -0.49497  -0.49185  -0.49050  -0.48926  -0.48749
 Alpha  occ. eigenvalues --   -0.48723  -0.48686  -0.48517  -0.48369  -0.48173
 Alpha  occ. eigenvalues --   -0.47778  -0.47561  -0.47507  -0.47305  -0.47232
 Alpha  occ. eigenvalues --   -0.47101  -0.46943  -0.46816  -0.46665  -0.46475
 Alpha  occ. eigenvalues --   -0.46309  -0.46123  -0.46073  -0.45920  -0.45845
 Alpha  occ. eigenvalues --   -0.45685  -0.45547  -0.45318  -0.45272  -0.45198
 Alpha  occ. eigenvalues --   -0.44942  -0.44874  -0.44438  -0.44241  -0.43949
 Alpha  occ. eigenvalues --   -0.43901  -0.43886  -0.43848  -0.43629  -0.43588
 Alpha  occ. eigenvalues --   -0.43379  -0.43330  -0.43261  -0.43171  -0.42978
 Alpha  occ. eigenvalues --   -0.42918  -0.42775  -0.42218  -0.42205  -0.42180
 Alpha  occ. eigenvalues --   -0.41994  -0.41841  -0.41787  -0.41730  -0.41470
 Alpha  occ. eigenvalues --   -0.41271  -0.41229  -0.41068  -0.40580  -0.40364
 Alpha  occ. eigenvalues --   -0.39953  -0.39914  -0.39796  -0.39475  -0.39094
 Alpha  occ. eigenvalues --   -0.38934  -0.38474  -0.38193  -0.38115  -0.37294
 Alpha  occ. eigenvalues --   -0.37263  -0.37184  -0.36773  -0.36564  -0.36310
 Alpha  occ. eigenvalues --   -0.35985  -0.35614  -0.34680  -0.34513  -0.34385
 Alpha  occ. eigenvalues --   -0.33387  -0.33150  -0.32839  -0.31365  -0.31295
 Alpha  occ. eigenvalues --   -0.31199  -0.31181  -0.30895  -0.30845  -0.30602
 Alpha  occ. eigenvalues --   -0.30371  -0.30053  -0.29724  -0.24027  -0.23793
 Alpha  occ. eigenvalues --   -0.21424  -0.21387
 Alpha virt. eigenvalues --   -0.09043  -0.08628  -0.02072  -0.01150   0.00101
 Alpha virt. eigenvalues --    0.00269   0.00772   0.01885   0.02015   0.02518
 Alpha virt. eigenvalues --    0.04445   0.04812   0.05496   0.05928   0.06193

 Mulliken charges:
               1
     1  Mg   0.821328
     2  C    0.141399
     3  C   -0.072392
     4  C   -0.088188
     5  C   -0.079413
     6  N   -0.220269
     7  C   -0.143054
     8  C    0.066430
     9  C   -0.054776
    10  C   -0.010658
    11  C    0.063587
    12  C    0.064036
    13  C   -0.078596
    14  H    0.015591
    15  N   -0.372573
    16  C    0.163219
    17  C   -0.137165
    18  C   -0.058535
    19  C    0.190592
    20  C    0.093537
    21  C   -0.010347
    22  O   -0.168292
    23  C    0.051855
    24  N   -0.300573
    25  C   -0.021041
    26  C   -0.011926
    27  C   -0.040267
    28  C    0.045010
    29  C    0.055018
    30  C    0.036447
    31  C   -0.036865
    32  N   -0.352629
    33  C    0.125097
    34  C   -0.196536
    35  C    0.022507
    36  C    0.045484
    37  C    0.117940
    38  C    0.064010
    39  O   -0.137398
    40  C   -0.139028
    41  C    0.228282
    42  O   -0.237453
    43  O   -0.322925
    44  C    0.183482
    45  H   -0.018112
    46  H   -0.048461
    47  H   -0.045735
    48  H    0.002328
    49  H   -0.000413
    50  H    0.003807
    51  H    0.026733
    52  H    0.004864
    53  H    0.013134
    54  H    0.020400
    55  H    0.050635
    56  H    0.037488
    57  H    0.040203
    58  H    0.005498
    59  H    0.031846
    60  H    0.019325
    61  H    0.059859
    62  H    0.032468
    63  H    0.026031
    64  H    0.015618
    65  H    0.028243
    66  H    0.025954
    67  H    0.028313
    68  H    0.025572
    69  H    0.018981
    70  H    0.017224
    71  H    0.020645
    72  H    0.021728
    73  H    0.015691
    74  H    0.029755
    75  H    0.034190
    76  H    0.055889
    77  H    0.031217
    78  H    0.037737
    79  H    0.027390
    80  Mg   0.838515
    81  C    0.011616
    82  C   -0.053535
    83  C   -0.054156
    84  C   -0.074773
    85  N   -0.259014
    86  C   -0.044580
    87  C   -0.039969
    88  C   -0.067770
    89  C    0.025075
    90  C    0.071344
    91  C    0.050791
    92  C   -0.046930
    93  H    0.016681
    94  N   -0.276092
    95  C    0.108783
    96  C   -0.140197
    97  C   -0.038925
    98  C    0.073771
    99  C    0.126625
   100  C   -0.001553
   101  O   -0.216541
   102  C    0.046187
   103  N   -0.278496
   104  C    0.028259
   105  C   -0.031843
   106  C    0.005492
   107  C    0.043866
   108  C    0.083023
   109  C   -0.011455
   110  C    0.012520
   111  N   -0.385150
   112  C    0.091456
   113  C   -0.180254
   114  C    0.092754
   115  C    0.102447
   116  C    0.138699
   117  C   -0.042481
   118  O   -0.171514
   119  C    0.016089
   120  C    0.193117
   121  O   -0.252956
   122  O   -0.327383
   123  C    0.186321
   124  H   -0.035453
   125  H   -0.008413
   126  H   -0.024003
   127  H    0.024662
   128  H    0.018100
   129  H    0.010034
   130  H    0.028660
   131  H    0.018990
   132  H   -0.011605
   133  H    0.007813
   134  H    0.032313
   135  H    0.033436
   136  H    0.009111
   137  H    0.014692
   138  H    0.039567
   139  H    0.033198
   140  H    0.047596
   141  H    0.024769
   142  H    0.009777
   143  H    0.009894
   144  H    0.015139
   145  H    0.018469
   146  H    0.029838
   147  H    0.004348
   148  H    0.004777
   149  H    0.014752
   150  H    0.015408
   151  H    0.016104
   152  H    0.004348
   153  H    0.043864
   154  H    0.038635
   155  H    0.030699
   156  H    0.035290
   157  H    0.058247
   158  H    0.019081
 Sum of Mulliken charges =  -0.00000

 Dipole moment (field-independent basis, Debye):
    X=              3.8566    Y=             -1.7844    Z=              6.2978  Tot=              7.5974
 Quadrupole moment (field-independent basis, Debye-Ang):
   XX=           -398.0595   YY=           -496.1504   ZZ=           -478.8240
   XY=              8.2683   XZ=            -18.6366   YZ=             -7.4703

 Normal termination of Gaussian 16 at Wed Sep 15 19:45:44 2021.
