 Gaussian 16, Revision A.03,
 Gaussian 16:  ES64L-G16RevA.03 25-Dec-2016

 ----------------------------------------------------------
 #p cam-b3lyp/Def2SVP td=(nstates=5) density=(transition=1)
 ----------------------------------------------------------

 --------------------------------
 TDDFT excited states in gaussian
 --------------------------------
 Symbolic Z-matrix:
 Charge =  0 Multiplicity = 1

                         Standard orientation:
 ---------------------------------------------------------------------
 Center     Atomic      Atomic             Coordinates (Angstroms)
 Number     Number       Type             X           Y           Z
 ---------------------------------------------------------------------
      1         12           0      -23.283022    0.624785    0.166197
      2          6           0      -21.271075   -2.036500    1.237214
      3          6           0      -25.490369   -1.752907   -1.251616
      4          6           0      -25.068340    3.178692   -1.182758
      5          6           0      -20.707582    2.791872    0.935529
      6          7           0      -23.411272   -1.587730    0.181943
      7          6           0      -22.529585   -2.434464    0.859929
      8          6           0      -23.201424   -3.844066    1.034056
      9          6           0      -24.459169   -3.722871    0.165882
     10          6           0      -24.441623   -2.256269   -0.390194
     11          6           0      -24.431512   -4.773460   -0.976805
     12          6           0      -23.427498   -4.094844    2.519990
     13          6           0      -23.441366   -5.534322    3.007737
     14          1           0      -23.545123   -6.661974    1.956059
     15          7           0      -25.040227    0.752682   -1.037677
     16          6           0      -25.777378   -0.337688   -1.537449
     17          6           0      -26.884273    0.126032   -2.355464
     18          6           0      -26.866233    1.575996   -2.325291
     19          6           0      -25.615387    1.889685   -1.509814
     20          6           0      -27.966215   -0.787784   -2.945024
     21          6           0      -27.813005    2.593986   -2.931554
     22          8           0      -27.620397    3.791286   -2.767004
     23          6           0      -29.076873    2.115349   -3.535960
     24          7           0      -22.930906    2.720105   -0.012109
     25          6           0      -23.867475    3.564057   -0.527854
     26          6           0      -23.426705    5.034347   -0.304250
     27          6           0      -22.040527    4.929446    0.442383
     28          6           0      -21.892140    3.392302    0.582452
     29          6           0      -23.356115    5.782458   -1.647553
     30          6           0      -22.001687    5.591867    1.845167
     31          6           0      -21.296237    6.940654    1.743046
     32          7           0      -21.304288    0.499724    0.834491
     33          6           0      -20.333287    1.421434    1.043276
     34          6           0      -19.075384    0.684642    1.316373
     35          6           0      -19.398794   -0.626935    1.506439
     36          6           0      -20.770841   -0.689187    1.152588
     37          6           0      -17.761255    1.413740    1.540459
     38          6           0      -18.926432   -1.961036    1.900131
     39          8           0      -17.798832   -2.320704    2.216355
     40          6           0      -20.145239   -2.859406    1.815186
     41          6           0      -19.722677   -4.020423    1.016060
     42          8           0      -19.579666   -4.140273   -0.208244
     43          8           0      -19.409229   -5.035512    1.896626
     44          6           0      -18.899525   -6.261343    1.321586
     45          1           0      -26.188113   -2.515356   -1.603509
     46          1           0      -25.755014    3.940995   -1.556785
     47          1           0      -19.914357    3.530679    1.068054
     48          1           0      -22.435792   -4.480854    0.589227
     49          1           0      -25.286787   -4.047542    0.796472
     50          1           0      -24.302408   -4.360750   -1.977501
     51          1           0      -25.453520   -5.138847   -1.073192
     52          1           0      -23.647607   -5.517023   -0.834221
     53          1           0      -24.350370   -3.558317    2.742412
     54          1           0      -22.684384   -3.535441    3.087056
     55          1           0      -24.237476   -5.643610    3.742952
     56          1           0      -22.493495   -5.581862    3.544970
     57          1           0      -27.755186   -1.851612   -2.834585
     58          1           0      -28.079951   -0.587133   -4.011181
     59          1           0      -28.928002   -0.505230   -2.518599
     60          1           0      -29.691895    1.675795   -2.750300
     61          1           0      -28.884787    1.526979   -4.433161
     62          1           0      -29.694149    2.940929   -3.890340
     63          1           0      -24.204736    5.523706    0.281217
     64          1           0      -21.305993    5.302120   -0.272729
     65          1           0      -22.398995    6.235516   -1.904308
     66          1           0      -24.059108    6.586619   -1.431295
     67          1           0      -23.560813    5.165682   -2.522195
     68          1           0      -21.300270    5.064122    2.491632
     69          1           0      -22.985097    5.722765    2.297087
     70          1           0      -21.955238    7.615632    2.288930
     71          1           0      -21.297378    7.372265    0.742434
     72          1           0      -20.286646    6.974033    2.153520
     73          1           0      -17.759227    2.467767    1.261534
     74          1           0      -16.925921    0.939746    1.026506
     75          1           0      -17.595931    1.491340    2.615629
     76          1           0      -20.420522   -3.139021    2.831592
     77          1           0      -18.080887   -5.994943    0.652542
     78          1           0      -19.644504   -6.818885    0.753489
     79          1           0      -18.321762   -6.719316    2.123707
     80         12           0       23.103101    0.568527    0.100387
     81          6           0       22.465918   -2.393266   -1.446506
     82          6           0       23.178601   -0.978565    3.172470
     83          6           0       23.553038    3.610162    1.516997
     84          6           0       22.543834    2.176835   -2.996761
     85          7           0       22.627078   -1.439606    0.803937
     86          6           0       22.724694   -2.501635   -0.039636
     87          6           0       22.924180   -3.801579    0.663121
     88          6           0       22.887309   -3.286010    2.194086
     89          6           0       22.899050   -1.797168    2.076814
     90          6           0       21.605822   -3.806803    2.989444
     91          6           0       24.355202   -4.392020    0.260134
     92          6           0       24.560551   -5.900501    0.414823
     93          1           0       23.615067   -6.835090    1.209873
     94          7           0       23.437046    1.263415    2.044612
     95          6           0       23.404807    0.446525    3.186601
     96          6           0       23.629423    1.305350    4.326191
     97          6           0       23.769441    2.628311    3.859789
     98          6           0       23.632995    2.510135    2.414577
     99          6           0       23.741719    0.724685    5.755187
    100          6           0       23.936544    3.973917    4.741855
    101          8           0       24.193933    5.074879    4.238766
    102          6           0       23.834362    4.020832    6.257471
    103          7           0       23.116765    2.634374   -0.694647
    104          6           0       23.290285    3.686334    0.140731
    105          6           0       22.974911    5.009489   -0.554922
    106          6           0       22.971464    4.559326   -2.127761
    107          6           0       22.979182    3.028271   -1.995744
    108          6           0       21.695754    5.800091   -0.017035
    109          6           0       24.287179    4.928273   -2.983530
    110          6           0       24.143754    5.606396   -4.333614
    111          7           0       22.654785    0.074931   -1.879062
    112          6           0       22.447802    0.788492   -2.999690
    113          6           0       22.239777   -0.136076   -4.157927
    114          6           0       22.303643   -1.409750   -3.544623
    115          6           0       22.430582   -1.186068   -2.151853
    116          6           0       22.059166    0.140388   -5.608617
    117          6           0       22.218869   -2.781367   -3.881262
    118          8           0       22.048482   -3.331411   -4.988688
    119          6           0       22.315812   -3.489540   -2.532334
    120          6           0       21.107030   -4.251843   -2.318040
    121          8           0       19.963765   -3.917153   -2.324937
    122          8           0       21.516064   -5.533355   -1.961294
    123          6           0       20.531697   -6.621729   -1.592731
    124          1           0       23.438740   -1.418894    4.136889
    125          1           0       23.602117    4.592035    1.993087
    126          1           0       22.172267    2.604649   -3.929586
    127          1           0       22.226603   -4.629976    0.541247
    128          1           0       23.769426   -3.614015    2.743947
    129          1           0       21.762701   -4.044093    4.041417
    130          1           0       21.141975   -4.616359    2.426123
    131          1           0       20.889063   -2.984990    2.983001
    132          1           0       25.158414   -3.906979    0.815171
    133          1           0       24.484200   -4.127008   -0.789567
    134          1           0       25.567362   -6.017040    0.817883
    135          1           0       24.633034   -6.342512   -0.578166
    136          1           0       23.691305   -0.363029    5.802764
    137          1           0       22.943738    1.182341    6.338953
    138          1           0       24.685771    1.079389    6.169415
    139          1           0       24.720805    3.491435    6.604876
    140          1           0       23.066760    3.351003    6.645566
    141          1           0       23.599247    5.030900    6.592384
    142          1           0       23.835113    5.665979   -0.418541
    143          1           0       22.107666    4.971852   -2.649452
    144          1           0       20.967454    5.962727   -0.811886
    145          1           0       21.999878    6.750992    0.418966
    146          1           0       21.163437    5.207864    0.727663
    147          1           0       24.947171    4.069156   -3.102753
    148          1           0       24.880220    5.587689   -2.350549
    149          1           0       24.652014    4.967102   -5.054630
    150          1           0       24.539226    6.621684   -4.344611
    151          1           0       23.094674    5.609080   -4.632759
    152          1           0       22.153101    1.188738   -5.891405
    153          1           0       21.071387   -0.176111   -5.944613
    154          1           0       22.808260   -0.427100   -6.160446
    155          1           0       23.170861   -4.164277   -2.481637
    156          1           0       19.513877   -6.231135   -1.599633
    157          1           0       20.723719   -6.957699   -0.572857
    158          1           0       20.670983   -7.402009   -2.340923
 ---------------------------------------------------------------------

 SCF Done:  E(RCAM-B3LYP) =  -4069.80551822     A.U. after   19 cycles

 Excitation energies and oscillator strengths:

 Excited State   1:      Singlet-A      1.6782 eV  738.80 nm  f=0.3952  <S**2>=0.000
     310 -> 316        0.17298
     312 -> 313        0.68712
     310 <- 316        0.10455
 This state for optimization and/or second-order correction.
 Total Energy, E(TD-HF/TD-DFT) =  -4069.74384644
 Copying the excited state density for this state as the 1-particle RhoCI density.

 Excited State   2:      Singlet-A      1.7389 eV  713.01 nm  f=0.3970  <S**2>=0.000
     309 -> 315        0.19176
     311 -> 314        0.68294
     309 <- 315        0.10976

 Excited State   3:      Singlet-A      2.1968 eV  564.39 nm  f=0.1200  <S**2>=0.000
     310 -> 313        0.64517
     312 -> 316       -0.27390

 Excited State   4:      Singlet-A      2.2287 eV  556.30 nm  f=0.1030  <S**2>=0.000
     309 -> 314        0.63902
     311 -> 315       -0.29488

 Excited State   5:      Singlet-A      3.1778 eV  390.15 nm  f=0.0000  <S**2>=0.000
     312 -> 314        0.70710

 The electronic state is 1-A.
 Alpha  occ. eigenvalues --  -46.89378 -46.89103 -19.24440 -19.23659 -19.19778
 Alpha  occ. eigenvalues --  -19.19567 -19.19282 -19.19192 -19.19172 -19.18757
 Alpha  occ. eigenvalues --  -14.42455 -14.42175 -14.41726 -14.41648 -14.40105
 Alpha  occ. eigenvalues --  -14.39529 -14.39368 -14.39188 -10.39346 -10.38629
 Alpha  occ. eigenvalues --  -10.36208 -10.35466 -10.35388 -10.34452 -10.31978
 Alpha  occ. eigenvalues --  -10.31878 -10.31724 -10.31191 -10.31141 -10.30977
 Alpha  occ. eigenvalues --  -10.30953 -10.30653 -10.30635 -10.30623 -10.30192
 Alpha  occ. eigenvalues --  -10.30070 -10.29971 -10.29846 -10.29723 -10.29524
 Alpha  occ. eigenvalues --  -10.29331 -10.29043 -10.28992 -10.28832 -10.28751
 Alpha  occ. eigenvalues --  -10.28579 -10.28389 -10.28276 -10.28228 -10.28166
 Alpha  occ. eigenvalues --  -10.28164 -10.28156 -10.28032 -10.27941 -10.27936
 Alpha  occ. eigenvalues --  -10.27801 -10.27762 -10.27756 -10.27655 -10.27600
 Alpha  occ. eigenvalues --  -10.27582 -10.27549 -10.27493 -10.27439 -10.27384
 Alpha  occ. eigenvalues --  -10.27376 -10.27341 -10.26781 -10.26641 -10.26513
 Alpha  occ. eigenvalues --  -10.26481 -10.26414 -10.26278 -10.26213 -10.26188
 Alpha  occ. eigenvalues --  -10.26145 -10.26094 -10.26043 -10.25870 -10.25513
 Alpha  occ. eigenvalues --  -10.25492 -10.25341 -10.25247 -10.24994 -10.24759
 Alpha  occ. eigenvalues --  -10.24726  -3.17785  -3.17501  -1.92704  -1.92414
 Alpha  occ. eigenvalues --   -1.92222  -1.92096  -1.91915  -1.91832  -1.15778
 Alpha  occ. eigenvalues --   -1.15608  -1.10445  -1.09995  -1.09493  -1.08303
 Alpha  occ. eigenvalues --   -1.07179  -1.06849  -1.05540  -1.04437  -1.04307
 Alpha  occ. eigenvalues --   -1.03554  -1.02774  -1.02624  -1.02607  -1.01613
 Alpha  occ. eigenvalues --   -0.93471  -0.93355  -0.89255  -0.88767  -0.88586
 Alpha  occ. eigenvalues --   -0.88240  -0.87951  -0.87495  -0.87094  -0.87043
 Alpha  occ. eigenvalues --   -0.86884  -0.86840  -0.86199  -0.85583  -0.84303
 Alpha  occ. eigenvalues --   -0.84295  -0.83868  -0.83452  -0.82713  -0.82369
 Alpha  occ. eigenvalues --   -0.82342  -0.81587  -0.81166  -0.80881  -0.80277
 Alpha  occ. eigenvalues --   -0.80006  -0.78390  -0.78083  -0.77449  -0.77246
 Alpha  occ. eigenvalues --   -0.77101  -0.76800  -0.76179  -0.75943  -0.75165
 Alpha  occ. eigenvalues --   -0.74522  -0.72568  -0.72521  -0.71963  -0.70993
 Alpha  occ. eigenvalues --   -0.69235  -0.69047  -0.68617  -0.68476  -0.68203
 Alpha  occ. eigenvalues --   -0.67910  -0.67057  -0.65962  -0.65411  -0.65316
 Alpha  occ. eigenvalues --   -0.65182  -0.64903  -0.64619  -0.64493  -0.64229
 Alpha  occ. eigenvalues --   -0.63882  -0.62112  -0.61793  -0.60427  -0.60109
 Alpha  occ. eigenvalues --   -0.59904  -0.59632  -0.59160  -0.59079  -0.58779
 Alpha  occ. eigenvalues --   -0.58773  -0.58450  -0.58337  -0.57733  -0.57624
 Alpha  occ. eigenvalues --   -0.56004  -0.55872  -0.55752  -0.55480  -0.55270
 Alpha  occ. eigenvalues --   -0.55073  -0.54759  -0.54212  -0.53748  -0.53618
 Alpha  occ. eigenvalues --   -0.53585  -0.53401  -0.53303  -0.53022  -0.52954
 Alpha  occ. eigenvalues --   -0.52895  -0.52803  -0.52738  -0.52179  -0.52114
 Alpha  occ. eigenvalues --   -0.51874  -0.51707  -0.51674  -0.51608  -0.51384
 Alpha  occ. eigenvalues --   -0.51361  -0.50784  -0.50757  -0.50520  -0.50318
 Alpha  occ. eigenvalues --   -0.49814  -0.49783  -0.49679  -0.49604  -0.49373
 Alpha  occ. eigenvalues --   -0.49291  -0.49236  -0.49103  -0.49009  -0.48894
 Alpha  occ. eigenvalues --   -0.48632  -0.48284  -0.48150  -0.48123  -0.47929
 Alpha  occ. eigenvalues --   -0.47846  -0.47592  -0.47384  -0.47246  -0.47117
 Alpha  occ. eigenvalues --   -0.46906  -0.46718  -0.46569  -0.46434  -0.46383
 Alpha  occ. eigenvalues --   -0.46224  -0.46146  -0.46018  -0.45872  -0.45562
 Alpha  occ. eigenvalues --   -0.45219  -0.45166  -0.44975  -0.44720  -0.44666
 Alpha  occ. eigenvalues --   -0.44435  -0.44376  -0.44328  -0.44240  -0.44204
 Alpha  occ. eigenvalues --   -0.43958  -0.43876  -0.43669  -0.43579  -0.43385
 Alpha  occ. eigenvalues --   -0.43162  -0.43119  -0.43023  -0.42788  -0.42649
 Alpha  occ. eigenvalues --   -0.42605  -0.42348  -0.42301  -0.41865  -0.41724
 Alpha  occ. eigenvalues --   -0.41608  -0.41515  -0.41274  -0.41229  -0.41112
 Alpha  occ. eigenvalues --   -0.41055  -0.41030  -0.40789  -0.40421  -0.40185
 Alpha  occ. eigenvalues --   -0.39962  -0.39700  -0.39385  -0.38914  -0.38451
 Alpha  occ. eigenvalues --   -0.38398  -0.38009  -0.37947  -0.37763  -0.37744
 Alpha  occ. eigenvalues --   -0.37513  -0.36736  -0.36556  -0.36433  -0.36294
 Alpha  occ. eigenvalues --   -0.36051  -0.35832  -0.34467  -0.34349  -0.34209
 Alpha  occ. eigenvalues --   -0.34073  -0.33132  -0.32604  -0.31562  -0.31443
 Alpha  occ. eigenvalues --   -0.31261  -0.31227  -0.31078  -0.30998  -0.30262
 Alpha  occ. eigenvalues --   -0.30152  -0.30026  -0.29970  -0.23810  -0.23789
 Alpha  occ. eigenvalues --   -0.21109  -0.20923
 Alpha virt. eigenvalues --   -0.08655  -0.08492  -0.01678  -0.01450   0.00020
 Alpha virt. eigenvalues --    0.00198   0.01837   0.02330   0.02522   0.02816
 Alpha virt. eigenvalues --    0.04691   0.05149   0.05219   0.05356   0.05885

 Mulliken charges:
               1
     1  Mg  12.000432
     2  C    5.970745
     3  C    6.012655
     4  C    6.029712
     5  C    5.988410
     6  N    6.985106
     7  C    6.038211
     8  C    5.994172
     9  C    6.012764
    10  C    5.967297
    11  C    6.002239
    12  C    5.995298
    13  C    5.999980
    14  H    1.007228
    15  N    7.009372
    16  C    5.954218
    17  C    5.982575
    18  C    5.980127
    19  C    5.963671
    20  C    6.003989
    21  C    5.985861
    22  O    7.969085
    23  C    6.008500
    24  N    7.007282
    25  C    5.962159
    26  C    6.008691
    27  C    5.987453
    28  C    6.029655
    29  C    6.002694
    30  C    5.995136
    31  C    5.998003
    32  N    6.995655
    33  C    6.041408
    34  C    6.029621
    35  C    6.002376
    36  C    6.040606
    37  C    5.995193
    38  C    6.018034
    39  O    8.027993
    40  C    6.001086
    41  C    6.003447
    42  O    8.007753
    43  O    8.000553
    44  C    5.998289
    45  H    0.986549
    46  H    0.998628
    47  H    1.011868
    48  H    0.997247
    49  H    0.992665
    50  H    1.001168
    51  H    1.000694
    52  H    0.985868
    53  H    1.010309
    54  H    0.991851
    55  H    1.003481
    56  H    0.995485
    57  H    0.981981
    58  H    0.981164
    59  H    0.981587
    60  H    0.992311
    61  H    0.992071
    62  H    0.983969
    63  H    1.001167
    64  H    1.004103
    65  H    0.990376
    66  H    0.999636
    67  H    1.005131
    68  H    0.994864
    69  H    1.010331
    70  H    1.005932
    71  H    1.005944
    72  H    0.998575
    73  H    1.019724
    74  H    1.020019
    75  H    1.022438
    76  H    1.007508
    77  H    1.000640
    78  H    1.007137
    79  H    1.002844
    80  Mg  11.999988
    81  C    6.000024
    82  C    5.999964
    83  C    6.000007
    84  C    5.999999
    85  N    7.000036
    86  C    5.999981
    87  C    5.999969
    88  C    6.000037
    89  C    5.999952
    90  C    6.000016
    91  C    5.999991
    92  C    5.999986
    93  H    0.999976
    94  N    7.000002
    95  C    5.999984
    96  C    5.999985
    97  C    5.999978
    98  C    5.999998
    99  C    6.000002
   100  C    5.999984
   101  O    7.999997
   102  C    6.000008
   103  N    6.999947
   104  C    6.000007
   105  C    6.000022
   106  C    5.999972
   107  C    6.000066
   108  C    6.000002
   109  C    5.999973
   110  C    5.999995
   111  N    7.000012
   112  C    6.000014
   113  C    6.000026
   114  C    5.999987
   115  C    5.999980
   116  C    6.000006
   117  C    6.000018
   118  O    8.000039
   119  C    6.000000
   120  C    5.999994
   121  O    7.999951
   122  O    8.000025
   123  C    6.000012
   124  H    1.000001
   125  H    1.000001
   126  H    1.000005
   127  H    0.999980
   128  H    1.000029
   129  H    0.999989
   130  H    0.999955
   131  H    0.999940
   132  H    1.000043
   133  H    1.000015
   134  H    1.000052
   135  H    1.000017
   136  H    0.999979
   137  H    0.999939
   138  H    1.000022
   139  H    1.000032
   140  H    0.999948
   141  H    0.999977
   142  H    1.000036
   143  H    0.999981
   144  H    0.999956
   145  H    1.000016
   146  H    0.999953
   147  H    1.000030
   148  H    1.000048
   149  H    1.000032
   150  H    1.000044
   151  H    0.999970
   152  H    1.000035
   153  H    0.999984
   154  H    1.000066
   155  H    1.000045
   156  H    0.999936
   157  H    1.000005
   158  H    1.000028
 Sum of Mulliken charges = 624.00000

 Dipole moment (field-independent basis, Debye):
    X=              9.9413    Y=             -0.3211    Z=              5.0270  Tot=             11.1447
 Quadrupole moment (field-independent basis, Debye-Ang):
   XX=           -458.4274   YY=              2.5026   ZZ=             -4.2738
   XY=             11.8912   XZ=           -121.6889   YZ=              2.7902

 Normal termination of Gaussian 16 at Wed Sep 22 21:36:44 2021.
