 Gaussian 16, Revision A.03,
 Gaussian 16:  ES64L-G16RevA.03 25-Dec-2016

 -----------------------------------
 #p cam-b3lyp/Def2SVP td=(nstates=5)
 -----------------------------------

 --------------------------------
 TDDFT excited states in gaussian
 --------------------------------
 Symbolic Z-matrix:
 Charge =  0 Multiplicity = 1

                         Standard orientation:
 ---------------------------------------------------------------------
 Center     Atomic      Atomic             Coordinates (Angstroms)
 Number     Number       Type             X           Y           Z
 ---------------------------------------------------------------------
      1         12           0       28.548853    0.119971    0.287972
      2          6           0       25.170564   -0.381059    0.210509
      3          6           0       28.923416   -3.405026   -0.023037
      4          6           0       31.873064    0.598537   -0.038381
      5          6           0       28.030455    3.507330   -0.339879
      6          7           0       27.116807   -1.714117   -0.274340
      7          6           0       25.784435   -1.647942    0.003372
      8          6           0       25.156292   -3.000748   -0.187157
      9          6           0       26.390607   -3.997741   -0.296781
     10          6           0       27.604744   -3.022627   -0.181832
     11          6           0       26.263782   -5.289766    0.424406
     12          6           0       24.025257   -3.204661   -1.302755
     13          6           0       24.099435   -2.371469   -2.547849
     14          1           0       23.953040   -3.099177   -3.876872
     15          7           0       30.161663   -1.227925    0.249575
     16          6           0       30.126780   -2.584722    0.156615
     17          6           0       31.440071   -3.155805    0.104120
     18          6           0       32.340812   -1.974864    0.219673
     19          6           0       31.462568   -0.786390    0.152908
     20          6           0       31.819137   -4.556489    0.012628
     21          6           0       33.855028   -1.940734    0.369129
     22          8           0       34.491619   -2.927109    0.252860
     23          6           0       34.706704   -0.717092    0.564496
     24          7           0       29.738773    1.760553   -0.250990
     25          6           0       31.074179    1.718052   -0.127568
     26          6           0       31.738368    3.108065   -0.621236
     27          6           0       30.492372    4.078968   -0.330891
     28          6           0       29.374757    3.063879   -0.364203
     29          6           0       33.021485    3.527988    0.101231
     30          6           0       30.423382    5.269255   -1.304592
     31          6           0       30.207920    6.695798   -0.785569
     32          7           0       26.935613    1.324410   -0.118345
     33          6           0       26.833901    2.695695   -0.317109
     34          6           0       25.488296    3.120969   -0.325783
     35          6           0       24.755670    1.973793   -0.069249
     36          6           0       25.681550    0.877959    0.054064
     37          6           0       24.966204    4.515318   -0.486077
     38          6           0       23.507426    1.380322    0.174796
     39          8           0       22.409327    1.933003    0.176110
     40          6           0       23.675936   -0.165682    0.193093
     41          6           0       22.960810   -0.575051    1.472281
     42          8           0       22.074379   -1.453531    1.529599
     43          8           0       23.570233    0.083407    2.514213
     44          6           0       23.295934   -0.259738    3.931072
     45          1           0       28.968747   -4.473341   -0.244348
     46          1           0       32.913363    0.728124   -0.343668
     47          1           0       27.878918    4.581059   -0.465890
     48          1           0       24.563570   -3.231444    0.698790
     49          1           0       26.453215   -4.277986   -1.347880
     50          1           0       27.135326   -5.535438    1.031049
     51          1           0       25.960681   -6.102682   -0.235460
     52          1           0       25.465996   -5.211391    1.163043
     53          1           0       23.011131   -3.003735   -0.957193
     54          1           0       24.103852   -4.210470   -1.716578
     55          1           0       24.908333   -1.641754   -2.561734
     56          1           0       23.182252   -1.782820   -2.586007
     57          1           0       31.057790   -5.157493    0.508885
     58          1           0       32.789985   -4.784693    0.450872
     59          1           0       31.845984   -4.803268   -1.049342
     60          1           0       33.953822   -0.166591    1.129108
     61          1           0       34.942803   -0.210016   -0.370522
     62          1           0       35.639786   -0.841846    1.114192
     63          1           0       31.848973    3.012717   -1.701836
     64          1           0       30.394973    4.521812    0.660014
     65          1           0       32.753655    4.347407    0.768814
     66          1           0       33.830696    3.669881   -0.614519
     67          1           0       33.424632    2.748100    0.746571
     68          1           0       29.617391    5.049072   -2.005101
     69          1           0       31.308208    5.230020   -1.940099
     70          1           0       30.872325    7.485328   -1.137049
     71          1           0       30.120140    6.744786    0.300577
     72          1           0       29.168684    6.875650   -1.058924
     73          1           0       24.060604    4.731342    0.081289
     74          1           0       24.763720    4.687191   -1.543479
     75          1           0       25.662540    5.279044   -0.137295
     76          1           0       23.160401   -0.472653   -0.716088
     77          1           0       24.190450   -0.220299    4.552428
     78          1           0       22.884521   -1.268807    3.960748
     79          1           0       22.576835    0.314878    4.513523
     80         12           0      -28.129521    0.649375    0.236298
     81          6           0      -26.873524   -2.492024   -0.602532
     82          6           0      -25.717243    2.099882   -1.754059
     83          6           0      -29.535659    3.493171    1.075288
     84          6           0      -31.172993   -0.999685    1.376657
     85          7           0      -26.394424   -0.195339   -1.017704
     86          6           0      -26.086491   -1.507703   -1.242438
     87          6           0      -24.871937   -1.631126   -2.092359
     88          6           0      -24.529517   -0.141781   -2.496517
     89          6           0      -25.609684    0.699634   -1.710973
     90          6           0      -23.043954    0.255918   -2.307344
     91          6           0      -25.090230   -2.527899   -3.335169
     92          6           0      -24.006570   -3.600895   -3.425828
     93          1           0      -23.223252   -3.720365   -4.767896
     94          7           0      -27.661165    2.549944   -0.250443
     95          6           0      -26.604156    2.982257   -1.050044
     96          6           0      -26.645602    4.437783   -0.993819
     97          6           0      -27.750368    4.883637   -0.129625
     98          6           0      -28.359670    3.604799    0.354727
     99          6           0      -25.816834    5.276250   -1.831649
    100          6           0      -28.141430    6.298832   -0.017651
    101          8           0      -27.557662    7.213546   -0.560277
    102          6           0      -29.360908    6.769167    0.695457
    103          7           0      -30.028016    1.127788    1.030528
    104          6           0      -30.232400    2.383214    1.544522
    105          6           0      -31.601282    2.467137    2.186191
    106          6           0      -32.253629    1.186199    1.821688
    107          6           0      -31.147548    0.396108    1.323774
    108          6           0      -31.600656    2.842293    3.724721
    109          6           0      -33.272412    1.326699    0.639001
    110          6           0      -34.395163    0.395518    0.627553
    111          7           0      -28.910428   -1.344249    0.410105
    112          6           0      -30.099957   -1.861710    0.939402
    113          6           0      -29.965241   -3.276448    1.091857
    114          6           0      -28.758499   -3.586269    0.475810
    115          6           0      -28.150787   -2.359303    0.028155
    116          6           0      -30.988607   -4.142647    1.728422
    117          6           0      -27.916867   -4.647220    0.087692
    118          8           0      -28.043351   -5.840886    0.246414
    119          6           0      -26.668587   -4.004899   -0.557465
    120          6           0      -25.469156   -4.451476    0.168753
    121          8           0      -25.002028   -3.920946    1.190678
    122          8           0      -25.028772   -5.643339   -0.359451
    123          6           0      -23.795421   -6.246524    0.118861
    124          1           0      -24.890485    2.490931   -2.349799
    125          1           0      -30.137666    4.355348    1.372946
    126          1           0      -32.093392   -1.451014    1.753045
    127          1           0      -24.074166   -1.857986   -1.384553
    128          1           0      -24.680247    0.067751   -3.555070
    129          1           0      -22.549474   -0.714963   -2.257892
    130          1           0      -22.819611    0.929569   -1.480255
    131          1           0      -22.682948    0.771027   -3.197200
    132          1           0      -24.982327   -2.004637   -4.285072
    133          1           0      -26.089124   -2.951279   -3.231577
    134          1           0      -24.638025   -4.488384   -3.386979
    135          1           0      -23.383603   -3.506096   -2.537655
    136          1           0      -25.157034    4.627697   -2.408365
    137          1           0      -25.126347    5.939748   -1.310115
    138          1           0      -26.448961    5.821635   -2.533295
    139          1           0      -29.246139    6.205089    1.621080
    140          1           0      -30.238508    6.440559    0.138113
    141          1           0      -29.326598    7.844480    0.871797
    142          1           0      -32.054353    3.319611    1.681453
    143          1           0      -32.662549    0.574872    2.626218
    144          1           0      -30.607500    3.163753    4.038973
    145          1           0      -32.055088    2.098290    4.379911
    146          1           0      -32.136257    3.766367    3.940477
    147          1           0      -32.733582    1.260782   -0.306286
    148          1           0      -33.722215    2.319433    0.635780
    149          1           0      -35.200332    0.814263    1.232232
    150          1           0      -34.109755   -0.601595    0.964452
    151          1           0      -34.875048    0.412708   -0.351506
    152          1           0      -31.440575   -3.650834    2.589679
    153          1           0      -30.621411   -5.130546    2.006953
    154          1           0      -31.785058   -4.182947    0.985298
    155          1           0      -26.457278   -4.395657   -1.552922
    156          1           0      -23.777309   -6.702894    1.108611
    157          1           0      -22.982215   -5.525920    0.034517
    158          1           0      -23.642783   -7.093318   -0.549246
 ---------------------------------------------------------------------

 SCF Done:  E(RCAM-B3LYP) =  -4069.73007882     A.U. after   19 cycles

 Excitation energies and oscillator strengths:

 Excited State   1:      Singlet-A      1.6348 eV  758.43 nm  f=0.3862  <S**2>=0.000
     309 -> 316        0.16910
     311 -> 313        0.68879
     309 <- 316        0.10872
 This state for optimization and/or second-order correction.
 Total Energy, E(TD-HF/TD-DFT) =  -4069.67000273
 Copying the excited state density for this state as the 1-particle RhoCI density.

 Excited State   2:      Singlet-A      1.6751 eV  740.15 nm  f=0.3690  <S**2>=0.000
     310 -> 315       -0.18826
     312 -> 314        0.68340
     310 <- 315       -0.11090

 Excited State   3:      Singlet-A      2.1489 eV  576.98 nm  f=0.1480  <S**2>=0.000
     309 -> 313        0.65218
     311 -> 316       -0.25539

 Excited State   4:      Singlet-A      2.1859 eV  567.20 nm  f=0.1024  <S**2>=0.000
     310 -> 314        0.63557
     312 -> 315        0.29767

 Excited State   5:      Singlet-A      3.0687 eV  404.03 nm  f=0.0000  <S**2>=0.000
     312 -> 313        0.70710

 The electronic state is 1-A.
 Alpha  occ. eigenvalues --  -46.89967 -46.88943 -19.26241 -19.24869 -19.20343
 Alpha  occ. eigenvalues --  -19.19364 -19.18496 -19.18357 -19.17381 -19.17257
 Alpha  occ. eigenvalues --  -14.42600 -14.42326 -14.42053 -14.41931 -14.40268
 Alpha  occ. eigenvalues --  -14.40072 -14.39678 -14.39169 -10.40495 -10.39090
 Alpha  occ. eigenvalues --  -10.34295 -10.34210 -10.33705 -10.33594 -10.32839
 Alpha  occ. eigenvalues --  -10.32111 -10.31677 -10.31624 -10.31620 -10.31572
 Alpha  occ. eigenvalues --  -10.31570 -10.31063 -10.31051 -10.31029 -10.30944
 Alpha  occ. eigenvalues --  -10.30778 -10.30715 -10.30474 -10.30195 -10.29866
 Alpha  occ. eigenvalues --  -10.29408 -10.29092 -10.28984 -10.28914 -10.28874
 Alpha  occ. eigenvalues --  -10.28555 -10.28547 -10.28481 -10.28452 -10.28371
 Alpha  occ. eigenvalues --  -10.28316 -10.28313 -10.28219 -10.28218 -10.28124
 Alpha  occ. eigenvalues --  -10.27988 -10.27979 -10.27969 -10.27821 -10.27811
 Alpha  occ. eigenvalues --  -10.27537 -10.27529 -10.27361 -10.27296 -10.27249
 Alpha  occ. eigenvalues --  -10.27209 -10.27174 -10.27141 -10.26808 -10.26796
 Alpha  occ. eigenvalues --  -10.26795 -10.26750 -10.26710 -10.26465 -10.26442
 Alpha  occ. eigenvalues --  -10.26362 -10.26239 -10.26224 -10.26086 -10.25553
 Alpha  occ. eigenvalues --  -10.25533 -10.25187 -10.25182 -10.25100 -10.24864
 Alpha  occ. eigenvalues --  -10.24722  -3.18438  -3.17433  -1.93296  -1.92930
 Alpha  occ. eigenvalues --   -1.92714  -1.92336  -1.91897  -1.91723  -1.15700
 Alpha  occ. eigenvalues --   -1.15449  -1.11434  -1.10057  -1.09843  -1.09376
 Alpha  occ. eigenvalues --   -1.07272  -1.06709  -1.05188  -1.04985  -1.04384
 Alpha  occ. eigenvalues --   -1.03802  -1.02988  -1.02957  -1.02177  -1.01572
 Alpha  occ. eigenvalues --   -0.93713  -0.92653  -0.90765  -0.89863  -0.89592
 Alpha  occ. eigenvalues --   -0.89051  -0.88759  -0.88426  -0.87964  -0.87709
 Alpha  occ. eigenvalues --   -0.87274  -0.87242  -0.86296  -0.85909  -0.85264
 Alpha  occ. eigenvalues --   -0.84574  -0.84544  -0.84019  -0.83456  -0.83123
 Alpha  occ. eigenvalues --   -0.82572  -0.82200  -0.81410  -0.81006  -0.80824
 Alpha  occ. eigenvalues --   -0.80613  -0.78670  -0.78540  -0.77976  -0.77830
 Alpha  occ. eigenvalues --   -0.77119  -0.77017  -0.76720  -0.76306  -0.75500
 Alpha  occ. eigenvalues --   -0.75383  -0.73610  -0.73409  -0.72033  -0.71778
 Alpha  occ. eigenvalues --   -0.70055  -0.69414  -0.69337  -0.69109  -0.68429
 Alpha  occ. eigenvalues --   -0.67992  -0.67515  -0.66593  -0.66467  -0.66297
 Alpha  occ. eigenvalues --   -0.65930  -0.65517  -0.65274  -0.64739  -0.64683
 Alpha  occ. eigenvalues --   -0.64426  -0.63620  -0.62032  -0.60739  -0.60306
 Alpha  occ. eigenvalues --   -0.59496  -0.59464  -0.59420  -0.58961  -0.58913
 Alpha  occ. eigenvalues --   -0.58089  -0.57916  -0.57648  -0.57411  -0.57244
 Alpha  occ. eigenvalues --   -0.56555  -0.56405  -0.55897  -0.55823  -0.55482
 Alpha  occ. eigenvalues --   -0.55353  -0.55144  -0.55137  -0.54489  -0.54432
 Alpha  occ. eigenvalues --   -0.54241  -0.53997  -0.53299  -0.53208  -0.53193
 Alpha  occ. eigenvalues --   -0.52832  -0.52548  -0.52534  -0.52290  -0.52102
 Alpha  occ. eigenvalues --   -0.52095  -0.51871  -0.51829  -0.51741  -0.51681
 Alpha  occ. eigenvalues --   -0.51375  -0.51284  -0.51230  -0.51104  -0.50717
 Alpha  occ. eigenvalues --   -0.50617  -0.50413  -0.50006  -0.50006  -0.49739
 Alpha  occ. eigenvalues --   -0.49656  -0.49487  -0.49386  -0.49208  -0.49117
 Alpha  occ. eigenvalues --   -0.49022  -0.48849  -0.48562  -0.48507  -0.48253
 Alpha  occ. eigenvalues --   -0.47895  -0.47621  -0.47585  -0.47330  -0.47247
 Alpha  occ. eigenvalues --   -0.47133  -0.47107  -0.46999  -0.46925  -0.46789
 Alpha  occ. eigenvalues --   -0.46599  -0.46438  -0.46314  -0.46208  -0.46167
 Alpha  occ. eigenvalues --   -0.45738  -0.45640  -0.45554  -0.45342  -0.45305
 Alpha  occ. eigenvalues --   -0.45044  -0.44933  -0.44909  -0.44585  -0.44478
 Alpha  occ. eigenvalues --   -0.44178  -0.44047  -0.44024  -0.43683  -0.43427
 Alpha  occ. eigenvalues --   -0.43407  -0.43230  -0.43096  -0.43062  -0.42966
 Alpha  occ. eigenvalues --   -0.42732  -0.42661  -0.42563  -0.42398  -0.42100
 Alpha  occ. eigenvalues --   -0.42084  -0.41968  -0.41751  -0.41663  -0.41582
 Alpha  occ. eigenvalues --   -0.41507  -0.41333  -0.41310  -0.41168  -0.40672
 Alpha  occ. eigenvalues --   -0.40587  -0.40264  -0.40253  -0.39212  -0.39056
 Alpha  occ. eigenvalues --   -0.38699  -0.38484  -0.38009  -0.37736  -0.37390
 Alpha  occ. eigenvalues --   -0.37331  -0.36971  -0.36904  -0.36384  -0.36318
 Alpha  occ. eigenvalues --   -0.36172  -0.35626  -0.34806  -0.34346  -0.33887
 Alpha  occ. eigenvalues --   -0.33712  -0.33106  -0.33027  -0.31591  -0.31382
 Alpha  occ. eigenvalues --   -0.30917  -0.30677  -0.30528  -0.29880  -0.29657
 Alpha  occ. eigenvalues --   -0.29568  -0.29440  -0.28372  -0.24483  -0.24308
 Alpha  occ. eigenvalues --   -0.21740  -0.21574
 Alpha virt. eigenvalues --   -0.09687  -0.09163  -0.02511  -0.01980   0.00123
 Alpha virt. eigenvalues --    0.00250   0.00980   0.02349   0.02672   0.02675
 Alpha virt. eigenvalues --    0.04088   0.04549   0.04892   0.04994   0.05460

 Mulliken charges:
               1
     1  Mg   0.824949
     2  C    0.019321
     3  C   -0.076946
     4  C   -0.075307
     5  C   -0.091255
     6  N   -0.272142
     7  C   -0.046326
     8  C    0.019157
     9  C   -0.037950
    10  C    0.011826
    11  C    0.090878
    12  C    0.034499
    13  C   -0.113665
    14  H    0.011932
    15  N   -0.363508
    16  C    0.155780
    17  C   -0.164922
    18  C   -0.053228
    19  C    0.113972
    20  C    0.136384
    21  C   -0.034867
    22  O   -0.178691
    23  C    0.046386
    24  N   -0.288411
    25  C    0.057804
    26  C   -0.083507
    27  C   -0.035987
    28  C    0.048054
    29  C    0.096423
    30  C    0.030971
    31  C    0.010218
    32  N   -0.351626
    33  C    0.123542
    34  C   -0.172826
    35  C    0.107913
    36  C    0.078496
    37  C    0.118785
    38  C   -0.023661
    39  O   -0.180941
    40  C   -0.040755
    41  C    0.244523
    42  O   -0.225280
    43  O   -0.349242
    44  C    0.180467
    45  H   -0.016077
    46  H   -0.017618
    47  H   -0.037871
    48  H    0.015011
    49  H    0.022352
    50  H    0.014224
    51  H    0.019000
    52  H    0.005481
    53  H    0.034696
    54  H    0.020718
    55  H    0.042996
    56  H    0.033992
    57  H    0.010766
    58  H    0.039546
    59  H    0.029649
    60  H    0.015079
    61  H    0.049016
    62  H    0.031124
    63  H    0.029331
    64  H    0.016142
    65  H    0.016717
    66  H    0.016757
    67  H    0.012747
    68  H    0.006066
    69  H    0.002126
    70  H    0.033181
    71  H    0.005115
    72  H    0.010962
    73  H    0.037311
    74  H    0.037069
    75  H    0.010969
    76  H    0.037014
    77  H    0.035834
    78  H    0.037905
    79  H    0.041432
    80  Mg   0.815995
    81  C    0.061247
    82  C   -0.041726
    83  C   -0.115231
    84  C   -0.090457
    85  N   -0.274139
    86  C   -0.072862
    87  C    0.029153
    88  C   -0.105848
    89  C    0.020207
    90  C    0.061876
    91  C    0.063532
    92  C   -0.082826
    93  H    0.023011
    94  N   -0.454285
    95  C    0.183562
    96  C   -0.155233
    97  C   -0.020263
    98  C    0.249188
    99  C    0.147977
   100  C   -0.059481
   101  O   -0.208396
   102  C    0.069709
   103  N   -0.300508
   104  C    0.044365
   105  C   -0.028486
   106  C   -0.022843
   107  C    0.032421
   108  C    0.076701
   109  C    0.046889
   110  C    0.037673
   111  N   -0.321502
   112  C    0.100605
   113  C   -0.177557
   114  C    0.038596
   115  C    0.077980
   116  C    0.134570
   117  C    0.030836
   118  O   -0.149632
   119  C   -0.065434
   120  C    0.186059
   121  O   -0.240187
   122  O   -0.329531
   123  C    0.188543
   124  H   -0.024496
   125  H   -0.026457
   126  H   -0.025940
   127  H    0.025429
   128  H    0.016569
   129  H    0.017437
   130  H    0.029712
   131  H    0.010092
   132  H    0.027899
   133  H    0.028705
   134  H    0.041899
   135  H    0.032861
   136  H   -0.022411
   137  H    0.032765
   138  H    0.041394
   139  H    0.021177
   140  H    0.040047
   141  H    0.031072
   142  H    0.007549
   143  H    0.001017
   144  H    0.012650
   145  H    0.023862
   146  H    0.005933
   147  H    0.014797
   148  H   -0.004821
   149  H    0.004476
   150  H    0.009393
   151  H    0.010863
   152  H    0.014700
   153  H    0.043133
   154  H    0.027820
   155  H    0.023733
   156  H    0.040286
   157  H    0.029989
   158  H    0.032599
 Sum of Mulliken charges =  -0.00000

 Dipole moment (field-independent basis, Debye):
    X=              0.6240    Y=              3.5451    Z=              1.3732  Tot=              3.8526
 Quadrupole moment (field-independent basis, Debye-Ang):
   XX=           -292.6922   YY=           -539.7299   ZZ=           -493.0575
   XY=             77.6380   XZ=             32.3130   YZ=             11.2842

 Normal termination of Gaussian 16 at Wed Sep 15 00:41:10 2021.
