 Gaussian 16, Revision A.03,
 Gaussian 16:  ES64L-G16RevA.03 25-Dec-2016

 ----------------------------------------------------------
 #p cam-b3lyp/Def2SVP td=(nstates=5) density=(transition=1)
 ----------------------------------------------------------

 --------------------------------
 TDDFT excited states in gaussian
 --------------------------------
 Symbolic Z-matrix:
 Charge =  0 Multiplicity = 1

                         Standard orientation:
 ---------------------------------------------------------------------
 Center     Atomic      Atomic             Coordinates (Angstroms)
 Number     Number       Type             X           Y           Z
 ---------------------------------------------------------------------
      1         12           0       24.786845   -0.827538    0.253071
      2          6           0       24.799780    2.208966   -1.669952
      3          6           0       25.288671    1.232588    3.094714
      4          6           0       24.942038   -3.656288    2.295227
      5          6           0       24.709718   -2.685127   -2.522487
      6          7           0       25.226408    1.529429    0.587554
      7          6           0       25.053625    2.508836   -0.325800
      8          6           0       25.348141    3.907245    0.326807
      9          6           0       25.702207    3.468863    1.792789
     10          6           0       25.311805    1.975782    1.883519
     11          6           0       27.202603    3.750379    2.153524
     12          6           0       24.160380    4.867359    0.266200
     13          6           0       24.469702    6.276781   -0.119095
     14          1           0       23.309007    7.266551   -0.295278
     15          7           0       24.862598   -1.183694    2.362944
     16          6           0       25.077009   -0.203880    3.326597
     17          6           0       25.067329   -0.842916    4.627569
     18          6           0       24.872296   -2.203588    4.457553
     19          6           0       24.962324   -2.422603    2.974544
     20          6           0       25.376701   -0.149751    5.923301
     21          6           0       24.796770   -3.385666    5.508456
     22          8           0       24.625772   -4.559424    5.286723
     23          6           0       24.767892   -3.041767    6.981936
     24          7           0       24.972730   -2.824329   -0.026827
     25          6           0       25.019136   -3.837403    0.895082
     26          6           0       25.305587   -5.209604    0.241735
     27          6           0       24.983648   -4.937108   -1.289105
     28          6           0       24.848116   -3.366764   -1.271606
     29          6           0       26.743449   -5.741294    0.542427
     30          6           0       23.700666   -5.648082   -1.817404
     31          6           0       22.379124   -5.139898   -1.245491
     32          7           0       24.788992   -0.420442   -1.678563
     33          6           0       24.683127   -1.310286   -2.783671
     34          6           0       24.666792   -0.567047   -4.041665
     35          6           0       24.655952    0.781458   -3.642270
     36          6           0       24.717028    0.840070   -2.224752
     37          6           0       24.600754   -1.142699   -5.379678
     38          6           0       24.624595    2.130591   -4.197749
     39          8           0       24.512122    2.489470   -5.357937
     40          6           0       24.807723    3.138666   -2.939654
     41          6           0       23.589878    4.040173   -3.156057
     42          8           0       22.388163    3.772204   -2.976618
     43          8           0       23.999151    5.196028   -3.649303
     44          6           0       23.035425    6.369714   -3.689500
     45          1           0       25.368453    1.881706    3.968857
     46          1           0       24.990192   -4.596155    2.850689
     47          1           0       24.610580   -3.350653   -3.382202
     48          1           0       26.132862    4.332149   -0.298206
     49          1           0       25.074102    3.974785    2.527247
     50          1           0       27.374425    4.357464    3.042356
     51          1           0       27.808671    4.078558    1.308871
     52          1           0       27.782458    2.893523    2.497285
     53          1           0       23.992677    5.054219    1.327036
     54          1           0       23.278863    4.431752   -0.205496
     55          1           0       25.108890    6.478540   -0.980176
     56          1           0       25.032845    6.644031    0.738937
     57          1           0       25.432931    0.930590    5.792376
     58          1           0       26.302203   -0.463859    6.408387
     59          1           0       24.627932   -0.260982    6.707738
     60          1           0       23.916564   -2.414226    7.245404
     61          1           0       25.742458   -2.571109    7.111944
     62          1           0       24.842242   -4.016479    7.464162
     63          1           0       24.643432   -5.891003    0.777073
     64          1           0       25.814982   -4.984798   -1.992809
     65          1           0       26.740708   -6.614880    1.194250
     66          1           0       27.489900   -5.033025    0.900253
     67          1           0       27.077970   -6.003749   -0.461387
     68          1           0       23.900332   -6.719726   -1.820397
     69          1           0       23.628955   -5.432792   -2.883387
     70          1           0       22.457654   -4.407972   -0.442437
     71          1           0       21.887967   -6.017879   -0.826686
     72          1           0       21.754320   -4.568742   -1.931188
     73          1           0       24.606366   -0.418243   -6.194320
     74          1           0       23.675175   -1.718102   -5.392296
     75          1           0       25.432146   -1.842399   -5.476231
     76          1           0       25.659825    3.806742   -3.064810
     77          1           0       23.657575    7.255989   -3.816120
     78          1           0       22.507333    6.517464   -2.747976
     79          1           0       22.266491    6.274923   -4.457098
     80         12           0      -25.306430   -0.609570   -0.314362
     81          6           0      -23.081705    2.341955    0.076299
     82          6           0      -27.303766    1.020007    1.871740
     83          6           0      -26.980909   -3.294577   -0.500054
     84          6           0      -22.527918   -2.195581   -1.875887
     85          7           0      -25.147985    1.405392    0.851531
     86          6           0      -24.272791    2.467145    0.696975
     87          6           0      -24.727083    3.771115    1.362786
     88          6           0      -25.831413    3.185716    2.296118
     89          6           0      -26.141958    1.771817    1.668852
     90          6           0      -25.454214    3.076919    3.739998
     91          6           0      -25.176308    4.937459    0.420052
     92          6           0      -24.963639    6.338980    0.886132
     93          1           0      -26.061610    7.326864    0.504870
     94          7           0      -26.995697   -1.090359    0.545233
     95          6           0      -27.747271   -0.258306    1.401178
     96          6           0      -29.007486   -0.901699    1.637331
     97          6           0      -28.951111   -2.098616    0.798953
     98          6           0      -27.638955   -2.170289    0.265156
     99          6           0      -30.196431   -0.286765    2.464442
    100          6           0      -30.084397   -3.053278    0.578493
    101          8           0      -29.952117   -4.098004   -0.104481
    102          6           0      -31.456031   -2.822166    1.098883
    103          7           0      -24.824258   -2.532015   -0.915810
    104          6           0      -25.724398   -3.517238   -0.921725
    105          6           0      -25.197030   -4.853904   -1.535135
    106          6           0      -23.970440   -4.279487   -2.337310
    107          6           0      -23.711191   -2.915007   -1.641960
    108          6           0      -24.743940   -5.869941   -0.437783
    109          6           0      -24.305894   -4.053131   -3.871241
    110          6           0      -24.877031   -5.220895   -4.702822
    111          7           0      -23.246848   -0.061858   -0.851537
    112          6           0      -22.298910   -0.813415   -1.536597
    113          6           0      -21.078993   -0.051696   -1.668140
    114          6           0      -21.354100    1.193468   -1.088584
    115          6           0      -22.656476    1.127864   -0.521583
    116          6           0      -19.848085   -0.453061   -2.409157
    117          6           0      -20.787084    2.507566   -0.815567
    118          8           0      -19.726020    3.049968   -1.094675
    119          6           0      -22.002119    3.305584   -0.109697
    120          6           0      -21.441623    3.876791    1.102855
    121          8           0      -20.975535    3.257431    2.072100
    122          8           0      -21.104252    5.172223    0.833498
    123          6           0      -20.467649    5.954705    1.843904
    124          1           0      -27.963153    1.662231    2.459589
    125          1           0      -27.524004   -4.237406   -0.590627
    126          1           0      -21.717116   -2.729912   -2.376200
    127          1           0      -23.897144    4.122455    1.976231
    128          1           0      -26.767824    3.727664    2.167071
    129          1           0      -25.287314    2.019498    3.945292
    130          1           0      -26.293387    3.386471    4.362784
    131          1           0      -24.567505    3.619247    4.067629
    132          1           0      -26.253658    4.838577    0.290326
    133          1           0      -24.717855    4.761197   -0.552642
    134          1           0      -24.036035    6.631117    0.394295
    135          1           0      -24.648926    6.391008    1.928504
    136          1           0      -31.040628    0.073519    1.877286
    137          1           0      -29.847031    0.487900    3.146496
    138          1           0      -30.488767   -1.139505    3.078461
    139          1           0      -31.454318   -3.030371    2.169118
    140          1           0      -32.092623   -3.533143    0.571526
    141          1           0      -31.725862   -1.805144    0.816297
    142          1           0      -26.018888   -5.250336   -2.132318
    143          1           0      -23.050555   -4.859905   -2.273210
    144          1           0      -25.448054   -6.701299   -0.480107
    145          1           0      -24.647810   -5.470191    0.571181
    146          1           0      -23.775321   -6.188568   -0.825558
    147          1           0      -23.382680   -3.796742   -4.390349
    148          1           0      -24.930892   -3.161270   -3.913053
    149          1           0      -25.832744   -4.851448   -5.074299
    150          1           0      -25.049421   -6.008507   -3.968743
    151          1           0      -24.234026   -5.494437   -5.539240
    152          1           0      -20.158348   -1.318347   -2.995370
    153          1           0      -19.120573   -0.738747   -1.649465
    154          1           0      -19.403295    0.347301   -3.000470
    155          1           0      -22.360936    4.087870   -0.778314
    156          1           0      -20.350767    5.397479    2.773647
    157          1           0      -21.153660    6.780154    2.034380
    158          1           0      -19.551432    6.411354    1.472297
 ---------------------------------------------------------------------

 SCF Done:  E(RCAM-B3LYP) =  -4069.79220571     A.U. after   19 cycles

 Excitation energies and oscillator strengths:

 Excited State   1:      Singlet-A      1.6510 eV  750.98 nm  f=0.3631  <S**2>=0.000
     310 -> 315        0.18392
     312 -> 314        0.68501
     310 <- 315        0.11251
 This state for optimization and/or second-order correction.
 Total Energy, E(TD-HF/TD-DFT) =  -4069.73153360
 Copying the excited state density for this state as the 1-particle RhoCI density.

 Excited State   2:      Singlet-A      1.6590 eV  747.35 nm  f=0.3945  <S**2>=0.000
     309 -> 316       -0.15611
     311 -> 313        0.69149
     309 <- 316       -0.10431

 Excited State   3:      Singlet-A      2.1782 eV  569.22 nm  f=0.2152  <S**2>=0.000
     309 -> 313        0.66759
     311 -> 316        0.21706

 Excited State   4:      Singlet-A      2.2173 eV  559.17 nm  f=0.0918  <S**2>=0.000
     310 -> 314        0.62582
     312 -> 315       -0.32033

 Excited State   5:      Singlet-A      2.8826 eV  430.11 nm  f=0.0000  <S**2>=0.000
     312 -> 313        0.70710

 The electronic state is 1-A.
 Alpha  occ. eigenvalues --  -46.88893 -46.88275 -19.24921 -19.24805 -19.19887
 Alpha  occ. eigenvalues --  -19.19497 -19.19413 -19.19345 -19.17980 -19.17431
 Alpha  occ. eigenvalues --  -14.42440 -14.42304 -14.41532 -14.41427 -14.40085
 Alpha  occ. eigenvalues --  -14.39701 -14.39660 -14.39567 -10.39138 -10.38445
 Alpha  occ. eigenvalues --  -10.35973 -10.35572 -10.35373 -10.33989 -10.32184
 Alpha  occ. eigenvalues --  -10.31404 -10.31385 -10.31352 -10.31220 -10.31117
 Alpha  occ. eigenvalues --  -10.31069 -10.31020 -10.30799 -10.30729 -10.30694
 Alpha  occ. eigenvalues --  -10.30609 -10.30447 -10.30360 -10.29983 -10.29894
 Alpha  occ. eigenvalues --  -10.29847 -10.29069 -10.29053 -10.28953 -10.28849
 Alpha  occ. eigenvalues --  -10.28757 -10.28723 -10.28579 -10.28396 -10.28393
 Alpha  occ. eigenvalues --  -10.28349 -10.28340 -10.28307 -10.28270 -10.28120
 Alpha  occ. eigenvalues --  -10.28117 -10.28110 -10.28107 -10.28011 -10.27997
 Alpha  occ. eigenvalues --  -10.27920 -10.27765 -10.27514 -10.27419 -10.27381
 Alpha  occ. eigenvalues --  -10.27267 -10.27047 -10.26872 -10.26815 -10.26711
 Alpha  occ. eigenvalues --  -10.26596 -10.26385 -10.26204 -10.26188 -10.26076
 Alpha  occ. eigenvalues --  -10.26052 -10.26000 -10.25939 -10.25729 -10.25691
 Alpha  occ. eigenvalues --  -10.25615 -10.25593 -10.25537 -10.25533 -10.25402
 Alpha  occ. eigenvalues --  -10.25381  -3.17554  -3.16965  -1.92424  -1.92006
 Alpha  occ. eigenvalues --   -1.91877  -1.91851  -1.91438  -1.91271  -1.16532
 Alpha  occ. eigenvalues --   -1.15923  -1.11436  -1.10221  -1.10017  -1.07464
 Alpha  occ. eigenvalues --   -1.07014  -1.05265  -1.04910  -1.04031  -1.03770
 Alpha  occ. eigenvalues --   -1.03657  -1.03108  -1.02530  -1.02198  -1.01683
 Alpha  occ. eigenvalues --   -0.93700  -0.90845  -0.89551  -0.89236  -0.88794
 Alpha  occ. eigenvalues --   -0.88731  -0.88043  -0.87978  -0.87459  -0.87336
 Alpha  occ. eigenvalues --   -0.86936  -0.86835  -0.86430  -0.86238  -0.84740
 Alpha  occ. eigenvalues --   -0.84102  -0.84037  -0.83564  -0.83142  -0.82347
 Alpha  occ. eigenvalues --   -0.82071  -0.81489  -0.81062  -0.81010  -0.80850
 Alpha  occ. eigenvalues --   -0.80147  -0.78564  -0.78116  -0.77485  -0.77285
 Alpha  occ. eigenvalues --   -0.77284  -0.76937  -0.76223  -0.75960  -0.75442
 Alpha  occ. eigenvalues --   -0.75107  -0.73355  -0.72576  -0.71629  -0.70942
 Alpha  occ. eigenvalues --   -0.70048  -0.69288  -0.68733  -0.68643  -0.68171
 Alpha  occ. eigenvalues --   -0.67518  -0.66940  -0.66259  -0.65698  -0.65462
 Alpha  occ. eigenvalues --   -0.65132  -0.65101  -0.64901  -0.64550  -0.64477
 Alpha  occ. eigenvalues --   -0.64039  -0.62053  -0.61759  -0.60749  -0.59778
 Alpha  occ. eigenvalues --   -0.59576  -0.59521  -0.59260  -0.58922  -0.58860
 Alpha  occ. eigenvalues --   -0.58396  -0.57686  -0.57678  -0.57345  -0.56221
 Alpha  occ. eigenvalues --   -0.55904  -0.55630  -0.55625  -0.55472  -0.55007
 Alpha  occ. eigenvalues --   -0.54884  -0.54648  -0.54623  -0.54195  -0.53946
 Alpha  occ. eigenvalues --   -0.53697  -0.53313  -0.53230  -0.53196  -0.52875
 Alpha  occ. eigenvalues --   -0.52873  -0.52701  -0.52559  -0.52413  -0.52407
 Alpha  occ. eigenvalues --   -0.52101  -0.51757  -0.51501  -0.51418  -0.51223
 Alpha  occ. eigenvalues --   -0.51019  -0.50948  -0.50874  -0.50299  -0.50094
 Alpha  occ. eigenvalues --   -0.49904  -0.49845  -0.49782  -0.49717  -0.49588
 Alpha  occ. eigenvalues --   -0.49494  -0.49270  -0.49209  -0.49208  -0.48934
 Alpha  occ. eigenvalues --   -0.48732  -0.48634  -0.48420  -0.48328  -0.48150
 Alpha  occ. eigenvalues --   -0.48114  -0.47858  -0.47570  -0.47504  -0.47433
 Alpha  occ. eigenvalues --   -0.47261  -0.46707  -0.46636  -0.46526  -0.46382
 Alpha  occ. eigenvalues --   -0.46322  -0.46195  -0.46166  -0.45948  -0.45812
 Alpha  occ. eigenvalues --   -0.45484  -0.45394  -0.45219  -0.45115  -0.44977
 Alpha  occ. eigenvalues --   -0.44893  -0.44838  -0.44394  -0.44361  -0.44142
 Alpha  occ. eigenvalues --   -0.43949  -0.43948  -0.43703  -0.43623  -0.43511
 Alpha  occ. eigenvalues --   -0.43271  -0.43138  -0.43089  -0.42972  -0.42949
 Alpha  occ. eigenvalues --   -0.42844  -0.42682  -0.42479  -0.42128  -0.42110
 Alpha  occ. eigenvalues --   -0.42010  -0.41796  -0.41631  -0.41390  -0.41337
 Alpha  occ. eigenvalues --   -0.40892  -0.40682  -0.40633  -0.40347  -0.40169
 Alpha  occ. eigenvalues --   -0.39811  -0.39562  -0.39485  -0.39266  -0.39182
 Alpha  occ. eigenvalues --   -0.38614  -0.38576  -0.38240  -0.38030  -0.37761
 Alpha  occ. eigenvalues --   -0.37502  -0.37181  -0.36604  -0.36401  -0.36037
 Alpha  occ. eigenvalues --   -0.35821  -0.35618  -0.34612  -0.34310  -0.33887
 Alpha  occ. eigenvalues --   -0.33133  -0.33107  -0.32708  -0.31565  -0.31421
 Alpha  occ. eigenvalues --   -0.31394  -0.30967  -0.30780  -0.30337  -0.30130
 Alpha  occ. eigenvalues --   -0.29963  -0.29889  -0.29805  -0.24268  -0.24089
 Alpha  occ. eigenvalues --   -0.21726  -0.20938
 Alpha virt. eigenvalues --   -0.09655  -0.08680  -0.02014  -0.00774   0.00294
 Alpha virt. eigenvalues --    0.00674   0.01745   0.02257   0.02410   0.03431
 Alpha virt. eigenvalues --    0.03930   0.04978   0.05173   0.05285   0.05976

 Mulliken charges:
               1
     1  Mg  12.000709
     2  C    5.977990
     3  C    6.023481
     4  C    6.028264
     5  C    5.992532
     6  N    6.990727
     7  C    6.029315
     8  C    5.995231
     9  C    6.006176
    10  C    5.966827
    11  C    6.002571
    12  C    5.994219
    13  C    5.998089
    14  H    1.000581
    15  N    7.009816
    16  C    5.948254
    17  C    5.985506
    18  C    5.981534
    19  C    5.956339
    20  C    6.006968
    21  C    5.987833
    22  O    7.973466
    23  C    6.003671
    24  N    7.012168
    25  C    5.957549
    26  C    6.007232
    27  C    5.995856
    28  C    6.033739
    29  C    6.005441
    30  C    5.994481
    31  C    5.993052
    32  N    6.994204
    33  C    6.040995
    34  C    6.028551
    35  C    6.004154
    36  C    6.036201
    37  C    5.997936
    38  C    6.014343
    39  O    8.028295
    40  C    6.002887
    41  C    6.003473
    42  O    8.005007
    43  O    8.000105
    44  C    5.997588
    45  H    0.989777
    46  H    0.993894
    47  H    1.012755
    48  H    0.996380
    49  H    1.001222
    50  H    0.997123
    51  H    0.987020
    52  H    1.002359
    53  H    1.009731
    54  H    0.996325
    55  H    0.996651
    56  H    1.005874
    57  H    0.981584
    58  H    0.979343
    59  H    0.980435
    60  H    0.992254
    61  H    0.995023
    62  H    0.985517
    63  H    1.002491
    64  H    0.997551
    65  H    1.000080
    66  H    1.001216
    67  H    0.986110
    68  H    1.010552
    69  H    0.995897
    70  H    1.011759
    71  H    1.008731
    72  H    0.995794
    73  H    1.015425
    74  H    1.018630
    75  H    1.018743
    76  H    1.008847
    77  H    1.004629
    78  H    1.005310
    79  H    1.001612
    80  Mg  12.000049
    81  C    6.000827
    82  C    6.000380
    83  C    5.999263
    84  C    5.999839
    85  N    7.000641
    86  C    5.999198
    87  C    6.000327
    88  C    5.999992
    89  C    6.000267
    90  C    5.999889
    91  C    6.000065
    92  C    5.999970
    93  H    0.999894
    94  N    6.999829
    95  C    6.000839
    96  C    6.000408
    97  C    6.000348
    98  C    6.000708
    99  C    5.999974
   100  C    6.000260
   101  O    8.000789
   102  C    5.999877
   103  N    6.999465
   104  C    6.000789
   105  C    5.999852
   106  C    6.000135
   107  C    5.999599
   108  C    5.999997
   109  C    6.000105
   110  C    6.000001
   111  N    7.000143
   112  C    5.999224
   113  C    5.999268
   114  C    6.000029
   115  C    5.998964
   116  C    6.000086
   117  C    5.999713
   118  O    7.999420
   119  C    5.999780
   120  C    5.999895
   121  O    7.999939
   122  O    7.999963
   123  C    6.000086
   124  H    1.000503
   125  H    0.999927
   126  H    0.999615
   127  H    1.000021
   128  H    1.000006
   129  H    1.000007
   130  H    1.000050
   131  H    1.000376
   132  H    0.999735
   133  H    1.000122
   134  H    1.000111
   135  H    0.999971
   136  H    1.000456
   137  H    1.000336
   138  H    1.000388
   139  H    1.000208
   140  H    1.000343
   141  H    1.000102
   142  H    0.999868
   143  H    0.999951
   144  H    0.999905
   145  H    0.999952
   146  H    1.000170
   147  H    1.000014
   148  H    0.999841
   149  H    0.999816
   150  H    0.999880
   151  H    0.999915
   152  H    0.999657
   153  H    0.999507
   154  H    0.999512
   155  H    0.999882
   156  H    0.999943
   157  H    0.999867
   158  H    0.999960
 Sum of Mulliken charges = 624.00000

 Dipole moment (field-independent basis, Debye):
    X=             -1.1361    Y=              1.5452    Z=            -10.5977  Tot=             10.7699
 Quadrupole moment (field-independent basis, Debye-Ang):
   XX=            -34.0114   YY=             -0.0253   ZZ=             -8.3245
   XY=             39.0487   XZ=           -268.4225   YZ=              8.9886

 Normal termination of Gaussian 16 at Wed Sep 22 09:38:47 2021.
