 Gaussian 16, Revision A.03,
 Gaussian 16:  ES64L-G16RevA.03 25-Dec-2016

 ----------------------------------------------------------
 #p cam-b3lyp/Def2SVP td=(nstates=5) density=(transition=1)
 ----------------------------------------------------------

 --------------------------------
 TDDFT excited states in gaussian
 --------------------------------
 Symbolic Z-matrix:
 Charge =  0 Multiplicity = 1

                         Standard orientation:
 ---------------------------------------------------------------------
 Center     Atomic      Atomic             Coordinates (Angstroms)
 Number     Number       Type             X           Y           Z
 ---------------------------------------------------------------------
      1         12           0       20.913398    0.522901   -0.372652
      2          6           0       19.012881   -2.329198   -0.012657
      3          6           0       23.631299   -1.333522    0.562093
      4          6           0       22.730411    3.368669   -0.439580
      5          6           0       18.016574    2.411447   -0.734498
      6          7           0       21.176117   -1.617500    0.341897
      7          6           0       20.356122   -2.588614    0.215224
      8          6           0       20.927712   -4.063633    0.540777
      9          6           0       22.371427   -3.637296    1.019875
     10          6           0       22.416217   -2.066393    0.709186
     11          6           0       22.656591   -3.836524    2.599773
     12          6           0       20.928207   -5.081412   -0.680875
     13          6           0       20.735527   -6.606415   -0.361726
     14          1           0       20.823962   -7.007527    1.079771
     15          7           0       22.861498    0.946156   -0.078623
     16          6           0       23.918489    0.004430    0.236172
     17          6           0       25.173344    0.748795    0.259468
     18          6           0       24.915383    2.131057    0.082665
     19          6           0       23.464047    2.197281   -0.201693
     20          6           0       26.421930   -0.038609    0.433459
     21          6           0       25.869648    3.347379    0.035711
     22          8           0       25.536775    4.493782   -0.020627
     23          6           0       27.358775    3.013013    0.256551
     24          7           0       20.488466    2.647640   -0.452057
     25          6           0       21.356710    3.609037   -0.463976
     26          6           0       20.675563    5.001859   -0.344302
     27          6           0       19.172686    4.697773   -0.553393
     28          6           0       19.190869    3.151917   -0.605908
     29          6           0       20.999366    5.663074    1.012327
     30          6           0       18.590640    5.401274   -1.817703
     31          6           0       18.427314    6.924951   -1.695585
     32          7           0       18.882704    0.158363   -0.381660
     33          6           0       17.837556    1.026217   -0.643840
     34          6           0       16.640311    0.228060   -0.675041
     35          6           0       16.993943   -1.125404   -0.392920
     36          6           0       18.408133   -1.059065   -0.264620
     37          6           0       15.332421    0.732227   -0.881655
     38          6           0       16.571595   -2.484771   -0.276429
     39          8           0       15.391656   -2.946533   -0.286256
     40          6           0       17.876703   -3.290389    0.094386
     41          6           0       17.650669   -3.907823    1.383754
     42          8           0       17.783034   -3.332080    2.463452
     43          8           0       17.129242   -5.154536    1.148499
     44          6           0       16.606574   -5.804045    2.369186
     45          1           0       24.511687   -1.893869    0.882195
     46          1           0       23.385447    4.242624   -0.470291
     47          1           0       17.143676    3.040704   -0.922818
     48          1           0       20.329278   -4.382922    1.394405
     49          1           0       23.127579   -4.217554    0.491442
     50          1           0       21.694458   -3.902677    3.108527
     51          1           0       23.218828   -2.984336    2.981253
     52          1           0       23.240594   -4.714059    2.879128
     53          1           0       21.920273   -4.956770   -1.114076
     54          1           0       20.358496   -4.781508   -1.561086
     55          1           0       21.426578   -7.258039   -0.896318
     56          1           0       19.720243   -6.898180   -0.630532
     57          1           0       26.619190   -0.217630    1.490796
     58          1           0       27.259597    0.358143   -0.140303
     59          1           0       26.250715   -1.005462   -0.039212
     60          1           0       27.849123    2.537859   -0.593662
     61          1           0       27.303021    2.361965    1.128393
     62          1           0       27.992008    3.844829    0.563650
     63          1           0       21.089834    5.537344   -1.198214
     64          1           0       18.616103    4.978411    0.340756
     65          1           0       21.264401    4.980856    1.820359
     66          1           0       20.207682    6.222642    1.511650
     67          1           0       21.837806    6.330157    0.812234
     68          1           0       17.590518    5.012642   -2.004529
     69          1           0       19.209341    5.169894   -2.685412
     70          1           0       18.860043    7.226167   -0.741574
     71          1           0       17.375885    7.151655   -1.518309
     72          1           0       18.745002    7.558386   -2.523447
     73          1           0       15.439524    1.433272   -1.709492
     74          1           0       14.894127    1.292537   -0.055952
     75          1           0       14.656865   -0.110794   -1.030332
     76          1           0       17.906961   -4.066402   -0.670911
     77          1           0       15.747795   -5.209500    2.682090
     78          1           0       17.386271   -5.958256    3.114367
     79          1           0       16.246221   -6.791223    2.079410
     80         12           0      -20.436306    0.716378    0.463720
     81          6           0      -19.268281   -2.039803   -1.540768
     82          6           0      -21.550401   -1.457944    2.741198
     83          6           0      -22.226470    3.230888    1.768827
     84          6           0      -19.626041    2.792184   -2.245294
     85          7           0      -20.450379   -1.457546    0.538987
     86          6           0      -19.764101   -2.383794   -0.264741
     87          6           0      -19.754834   -3.817223    0.390814
     88          6           0      -20.547493   -3.586387    1.712922
     89          6           0      -20.826875   -2.059874    1.703026
     90          6           0      -21.807639   -4.389323    1.913737
     91          6           0      -18.258819   -4.417415    0.566725
     92          6           0      -18.042542   -5.817026   -0.021884
     93          1           0      -17.556465   -6.884188    1.027999
     94          7           0      -21.609846    0.893549    2.130246
     95          6           0      -21.971473   -0.098867    2.949711
     96          6           0      -22.852558    0.377680    4.017273
     97          6           0      -23.116395    1.744182    3.656712
     98          6           0      -22.317842    2.022335    2.458368
     99          6           0      -23.323814   -0.472558    5.117837
    100          6           0      -24.153767    2.650219    4.391406
    101          8           0      -24.306110    3.824872    4.100673
    102          6           0      -25.010811    2.154949    5.512368
    103          7           0      -20.836395    2.656653   -0.145963
    104          6           0      -21.522368    3.562908    0.655491
    105          6           0      -21.514880    4.991648    0.019231
    106          6           0      -20.384642    4.880437   -1.070963
    107          6           0      -20.215991    3.362765   -1.138716
    108          6           0      -22.883220    5.595069   -0.436771
    109          6           0      -19.054308    5.581643   -0.682118
    110          6           0      -18.289702    6.325924   -1.747547
    111          7           0      -19.664217    0.461425   -1.519649
    112          6           0      -19.398579    1.395103   -2.480714
    113          6           0      -18.673980    0.709415   -3.638131
    114          6           0      -18.559371   -0.614178   -3.287853
    115          6           0      -19.237143   -0.731896   -2.026094
    116          6           0      -18.129582    1.469338   -4.826236
    117          6           0      -18.101004   -1.937115   -3.672867
    118          8           0      -17.499604   -2.186467   -4.738532
    119          6           0      -18.646104   -3.000001   -2.544564
    120          6           0      -19.689638   -3.977047   -3.044527
    121          8           0      -20.724785   -3.572483   -3.609905
    122          8           0      -19.265049   -5.303630   -2.958989
    123          6           0      -20.054720   -6.192660   -3.803147
    124          1           0      -21.843421   -2.097878    3.575861
    125          1           0      -22.785220    4.006320    2.296358
    126          1           0      -19.294042    3.517776   -2.991405
    127          1           0      -20.290831   -4.414096   -0.346861
    128          1           0      -19.908782   -4.006671    2.490998
    129          1           0      -22.051594   -5.025871    1.063106
    130          1           0      -22.538161   -3.582334    1.868352
    131          1           0      -21.776623   -5.027576    2.797299
    132          1           0      -18.120518   -4.398672    1.647395
    133          1           0      -17.540085   -3.692461    0.185598
    134          1           0      -17.362818   -5.697101   -0.865502
    135          1           0      -18.989793   -6.190142   -0.413338
    136          1           0      -24.391388   -0.585284    5.304127
    137          1           0      -23.074942    0.089979    6.016959
    138          1           0      -22.771973   -1.401510    5.263099
    139          1           0      -24.309173    1.852007    6.290488
    140          1           0      -25.499202    1.249253    5.151712
    141          1           0      -25.680886    2.978631    5.755436
    142          1           0      -21.149995    5.627813    0.825650
    143          1           0      -20.721310    5.179439   -2.063333
    144          1           0      -23.622245    4.882724   -0.070720
    145          1           0      -22.950738    5.795832   -1.505612
    146          1           0      -23.148100    6.487593    0.131449
    147          1           0      -18.515090    4.693072   -0.354373
    148          1           0      -19.121636    6.245663    0.179893
    149          1           0      -17.956808    7.250149   -1.275078
    150          1           0      -18.907818    6.608757   -2.600236
    151          1           0      -17.375903    5.754238   -1.911427
    152          1           0      -18.396179    2.516713   -4.685874
    153          1           0      -18.668973    1.139752   -5.713948
    154          1           0      -17.064328    1.265788   -4.933442
    155          1           0      -17.784670   -3.504965   -2.107469
    156          1           0      -19.530913   -6.604077   -4.664853
    157          1           0      -20.983610   -5.753267   -4.167017
    158          1           0      -20.348412   -7.028253   -3.168347
 ---------------------------------------------------------------------

 SCF Done:  E(RCAM-B3LYP) =  -4069.81276458     A.U. after   18 cycles

 Excitation energies and oscillator strengths:

 Excited State   1:      Singlet-A      1.6980 eV  730.17 nm  f=0.4196  <S**2>=0.000
     309 -> 316        0.17306
     312 -> 314        0.68837
     309 <- 316        0.10784
 This state for optimization and/or second-order correction.
 Total Energy, E(TD-HF/TD-DFT) =  -4069.75036386
 Copying the excited state density for this state as the 1-particle RhoCI density.

 Excited State   2:      Singlet-A      1.7724 eV  699.51 nm  f=0.3806  <S**2>=0.000
     310 -> 315       -0.19901
     311 -> 313        0.67933
     310 <- 315       -0.10974

 Excited State   3:      Singlet-A      2.2144 eV  559.90 nm  f=0.1107  <S**2>=0.000
     310 -> 313        0.64302
     311 -> 315        0.28129

 Excited State   4:      Singlet-A      2.2865 eV  542.24 nm  f=0.0918  <S**2>=0.000
     309 -> 314        0.63011
     312 -> 316       -0.31285

 Excited State   5:      Singlet-A      3.1341 eV  395.60 nm  f=0.0000  <S**2>=0.000
     312 -> 313        0.70710

 The electronic state is 1-A.
 Alpha  occ. eigenvalues --  -46.88384 -46.88354 -19.26671 -19.24785 -19.20825
 Alpha  occ. eigenvalues --  -19.20151 -19.19899 -19.19295 -19.18523 -19.18226
 Alpha  occ. eigenvalues --  -14.42539 -14.42206 -14.41623 -14.41525 -14.39665
 Alpha  occ. eigenvalues --  -14.39656 -14.39341 -14.38931 -10.40808 -10.38541
 Alpha  occ. eigenvalues --  -10.36476 -10.36261 -10.34902 -10.34747 -10.31826
 Alpha  occ. eigenvalues --  -10.31717 -10.31565 -10.31260 -10.30932 -10.30669
 Alpha  occ. eigenvalues --  -10.30657 -10.30622 -10.30462 -10.30411 -10.30325
 Alpha  occ. eigenvalues --  -10.30309 -10.30094 -10.29926 -10.29754 -10.29475
 Alpha  occ. eigenvalues --  -10.29421 -10.29201 -10.29109 -10.28975 -10.28972
 Alpha  occ. eigenvalues --  -10.28916 -10.28910 -10.28836 -10.28534 -10.28211
 Alpha  occ. eigenvalues --  -10.28174 -10.28080 -10.28020 -10.27774 -10.27755
 Alpha  occ. eigenvalues --  -10.27689 -10.27603 -10.27546 -10.27440 -10.27336
 Alpha  occ. eigenvalues --  -10.27261 -10.27195 -10.27164 -10.27125 -10.27091
 Alpha  occ. eigenvalues --  -10.27053 -10.26916 -10.26906 -10.26668 -10.26549
 Alpha  occ. eigenvalues --  -10.26480 -10.26263 -10.26145 -10.26124 -10.26114
 Alpha  occ. eigenvalues --  -10.25893 -10.25693 -10.25655 -10.25508 -10.25472
 Alpha  occ. eigenvalues --  -10.25401 -10.25383 -10.25316 -10.25191 -10.24639
 Alpha  occ. eigenvalues --  -10.24439  -3.17006  -3.16997  -1.91890  -1.91887
 Alpha  occ. eigenvalues --   -1.91459  -1.91445  -1.91334  -1.91301  -1.16316
 Alpha  occ. eigenvalues --   -1.15510  -1.12505  -1.10086  -1.09014  -1.07931
 Alpha  occ. eigenvalues --   -1.07213  -1.06735  -1.05372  -1.04304  -1.03893
 Alpha  occ. eigenvalues --   -1.03445  -1.03270  -1.02617  -1.01857  -1.00860
 Alpha  occ. eigenvalues --   -0.92606  -0.92511  -0.89308  -0.89090  -0.88717
 Alpha  occ. eigenvalues --   -0.88347  -0.88007  -0.87830  -0.87471  -0.87303
 Alpha  occ. eigenvalues --   -0.87203  -0.86949  -0.86843  -0.86095  -0.84260
 Alpha  occ. eigenvalues --   -0.83900  -0.83636  -0.83470  -0.82692  -0.82314
 Alpha  occ. eigenvalues --   -0.81912  -0.81728  -0.81179  -0.81039  -0.80267
 Alpha  occ. eigenvalues --   -0.80206  -0.78536  -0.78406  -0.77583  -0.77378
 Alpha  occ. eigenvalues --   -0.76903  -0.76372  -0.76198  -0.75741  -0.74828
 Alpha  occ. eigenvalues --   -0.74680  -0.72423  -0.72194  -0.71452  -0.70945
 Alpha  occ. eigenvalues --   -0.69402  -0.68975  -0.68779  -0.68378  -0.68171
 Alpha  occ. eigenvalues --   -0.67885  -0.66979  -0.66692  -0.65809  -0.65396
 Alpha  occ. eigenvalues --   -0.65314  -0.64966  -0.64870  -0.64742  -0.64328
 Alpha  occ. eigenvalues --   -0.64069  -0.62567  -0.61541  -0.60264  -0.60011
 Alpha  occ. eigenvalues --   -0.59747  -0.59356  -0.59120  -0.58892  -0.58498
 Alpha  occ. eigenvalues --   -0.58307  -0.58270  -0.57867  -0.57653  -0.57294
 Alpha  occ. eigenvalues --   -0.56232  -0.55979  -0.55708  -0.55403  -0.55147
 Alpha  occ. eigenvalues --   -0.55092  -0.54899  -0.54539  -0.53963  -0.53746
 Alpha  occ. eigenvalues --   -0.53490  -0.53342  -0.53141  -0.53108  -0.52939
 Alpha  occ. eigenvalues --   -0.52713  -0.52576  -0.52434  -0.52058  -0.51896
 Alpha  occ. eigenvalues --   -0.51806  -0.51593  -0.51460  -0.51360  -0.51249
 Alpha  occ. eigenvalues --   -0.51108  -0.51103  -0.50929  -0.50800  -0.50705
 Alpha  occ. eigenvalues --   -0.50372  -0.50225  -0.49582  -0.49421  -0.49347
 Alpha  occ. eigenvalues --   -0.49132  -0.49130  -0.48944  -0.48766  -0.48600
 Alpha  occ. eigenvalues --   -0.48517  -0.48451  -0.48295  -0.48181  -0.48121
 Alpha  occ. eigenvalues --   -0.47929  -0.47823  -0.47775  -0.47211  -0.47024
 Alpha  occ. eigenvalues --   -0.46999  -0.46731  -0.46617  -0.46459  -0.46441
 Alpha  occ. eigenvalues --   -0.46222  -0.46020  -0.45995  -0.45922  -0.45650
 Alpha  occ. eigenvalues --   -0.45591  -0.45343  -0.45108  -0.44845  -0.44544
 Alpha  occ. eigenvalues --   -0.44395  -0.44302  -0.44271  -0.44155  -0.44116
 Alpha  occ. eigenvalues --   -0.44008  -0.43791  -0.43727  -0.43588  -0.43510
 Alpha  occ. eigenvalues --   -0.43194  -0.43173  -0.42972  -0.42910  -0.42824
 Alpha  occ. eigenvalues --   -0.42763  -0.42653  -0.42641  -0.42253  -0.41700
 Alpha  occ. eigenvalues --   -0.41699  -0.41683  -0.41656  -0.41453  -0.41176
 Alpha  occ. eigenvalues --   -0.41095  -0.40760  -0.40641  -0.40534  -0.40192
 Alpha  occ. eigenvalues --   -0.40151  -0.39797  -0.39474  -0.39381  -0.39109
 Alpha  occ. eigenvalues --   -0.38267  -0.38206  -0.37969  -0.37785  -0.37606
 Alpha  occ. eigenvalues --   -0.37401  -0.37388  -0.36869  -0.36547  -0.36391
 Alpha  occ. eigenvalues --   -0.36308  -0.36081  -0.35127  -0.34411  -0.34297
 Alpha  occ. eigenvalues --   -0.33883  -0.33426  -0.32860  -0.31743  -0.31525
 Alpha  occ. eigenvalues --   -0.31362  -0.31185  -0.30672  -0.30372  -0.30362
 Alpha  occ. eigenvalues --   -0.30133  -0.29755  -0.29156  -0.24144  -0.23656
 Alpha  occ. eigenvalues --   -0.21228  -0.20750
 Alpha virt. eigenvalues --   -0.08409  -0.08400  -0.01681  -0.01290  -0.00021
 Alpha virt. eigenvalues --   -0.00016   0.01814   0.02104   0.02353   0.02615
 Alpha virt. eigenvalues --    0.02831   0.04565   0.05478   0.05571   0.05950

 Mulliken charges:
               1
     1  Mg  12.000014
     2  C    5.999911
     3  C    6.000176
     4  C    6.000053
     5  C    5.999839
     6  N    6.999965
     7  C    6.000212
     8  C    5.999935
     9  C    6.000082
    10  C    5.999699
    11  C    6.000060
    12  C    5.999952
    13  C    6.000013
    14  H    0.999980
    15  N    7.000037
    16  C    5.999610
    17  C    5.999863
    18  C    5.999768
    19  C    5.999795
    20  C    6.000093
    21  C    5.999899
    22  O    7.999773
    23  C    6.000056
    24  N    7.000009
    25  C    5.999826
    26  C    6.000043
    27  C    5.999895
    28  C    6.000280
    29  C    6.000047
    30  C    5.999948
    31  C    6.000010
    32  N    6.999993
    33  C    6.000363
    34  C    6.000219
    35  C    6.000099
    36  C    6.000184
    37  C    5.999894
    38  C    6.000182
    39  O    8.000351
    40  C    5.999983
    41  C    6.000021
    42  O    8.000024
    43  O    8.000022
    44  C    5.999983
    45  H    0.999892
    46  H    0.999926
    47  H    1.000122
    48  H    0.999978
    49  H    0.999945
    50  H    0.999880
    51  H    0.999998
    52  H    0.999903
    53  H    1.000070
    54  H    1.000001
    55  H    1.000017
    56  H    1.000008
    57  H    0.999790
    58  H    0.999841
    59  H    0.999874
    60  H    0.999912
    61  H    0.999946
    62  H    0.999835
    63  H    1.000017
    64  H    1.000016
    65  H    0.999982
    66  H    0.999896
    67  H    0.999995
    68  H    1.000024
    69  H    1.000077
    70  H    0.999998
    71  H    1.000033
    72  H    1.000043
    73  H    1.000195
    74  H    1.000229
    75  H    1.000204
    76  H    1.000100
    77  H    1.000019
    78  H    0.999998
    79  H    1.000070
    80  Mg  12.003056
    81  C    6.028828
    82  C    5.978061
    83  C    5.980946
    84  C    6.024958
    85  N    7.006654
    86  C    5.959134
    87  C    6.010672
    88  C    5.986374
    89  C    6.034492
    90  C    5.999203
    91  C    6.004775
    92  C    6.003047
    93  H    0.989409
    94  N    6.992040
    95  C    6.045168
    96  C    6.023817
    97  C    6.011966
    98  C    6.043950
    99  C    5.991608
   100  C    6.013005
   101  O    8.023836
   102  C    5.997679
   103  N    7.000664
   104  C    6.031411
   105  C    5.991629
   106  C    6.009950
   107  C    5.966364
   108  C    6.001835
   109  C    6.001586
   110  C    6.002279
   111  N    7.002433
   112  C    5.951799
   113  C    5.968920
   114  C    5.997525
   115  C    5.961032
   116  C    6.004862
   117  C    5.983513
   118  O    7.970776
   119  C    5.993621
   120  C    5.994531
   121  O    7.996504
   122  O    7.997092
   123  C    6.003770
   124  H    1.008170
   125  H    1.008083
   126  H    0.990806
   127  H    0.998161
   128  H    1.005848
   129  H    1.012769
   130  H    0.993076
   131  H    1.002292
   132  H    0.988128
   133  H    1.004393
   134  H    1.003736
   135  H    0.998054
   136  H    1.024385
   137  H    1.020650
   138  H    1.020429
   139  H    1.005577
   140  H    1.005172
   141  H    1.014967
   142  H    1.000057
   143  H    1.000652
   144  H    0.994400
   145  H    1.012282
   146  H    1.001815
   147  H    1.000798
   148  H    0.987217
   149  H    0.994725
   150  H    0.998817
   151  H    1.004097
   152  H    0.979517
   153  H    0.978666
   154  H    0.979963
   155  H    0.991086
   156  H    0.996968
   157  H    0.996563
   158  H    0.992906
 Sum of Mulliken charges = 624.00000

 Dipole moment (field-independent basis, Debye):
    X=             -6.0644    Y=              1.7911    Z=              9.5044  Tot=             11.4157
 Quadrupole moment (field-independent basis, Debye-Ang):
   XX=            244.6676   YY=             -2.2339   ZZ=              3.8936
   XY=            -41.8751   XZ=           -200.2703   YZ=              4.1038

 Normal termination of Gaussian 16 at Thu Sep 23 06:56:01 2021.
