 Gaussian 16, Revision A.03,
 Gaussian 16:  ES64L-G16RevA.03 25-Dec-2016

 ----------------------------------------------------------
 #p cam-b3lyp/Def2SVP td=(nstates=5) density=(transition=1)
 ----------------------------------------------------------

 --------------------------------
 TDDFT excited states in gaussian
 --------------------------------
 Symbolic Z-matrix:
 Charge =  0 Multiplicity = 1

                         Standard orientation:
 ---------------------------------------------------------------------
 Center     Atomic      Atomic             Coordinates (Angstroms)
 Number     Number       Type             X           Y           Z
 ---------------------------------------------------------------------
      1         12           0       20.489686    0.313229    0.341504
      2          6           0       18.450518   -1.928641   -1.359427
      3          6           0       21.951042    1.167915   -2.571133
      4          6           0       22.949098    1.869260    2.064638
      5          6           0       19.507635   -1.221155    3.380417
      6          7           0       20.107793   -0.290599   -1.663230
      7          6           0       19.141722   -1.096545   -2.225088
      8          6           0       19.301258   -1.141126   -3.769773
      9          6           0       20.746981   -0.581217   -3.941706
     10          6           0       20.917366    0.251434   -2.679562
     11          6           0       21.868196   -1.675107   -4.035942
     12          6           0       18.082347   -0.433719   -4.389795
     13          6           0       17.517466   -1.120058   -5.574784
     14          1           0       16.139679   -0.756375   -5.899676
     15          7           0       22.054274    1.537496   -0.209347
     16          6           0       22.447659    1.808273   -1.480731
     17          6           0       23.340396    2.939442   -1.449848
     18          6           0       23.636715    3.152694   -0.055268
     19          6           0       22.923113    2.097152    0.669491
     20          6           0       23.895824    3.585371   -2.668327
     21          6           0       24.630582    4.132712    0.649234
     22          8           0       24.756358    4.191584    1.874061
     23          6           0       25.390650    5.167463   -0.132530
     24          7           0       21.330693    0.033296    2.397668
     25          6           0       22.302293    0.951819    2.880679
     26          6           0       22.503491    0.881449    4.358302
     27          6           0       21.230770    0.049635    4.721901
     28          6           0       20.593401   -0.363277    3.397817
     29          6           0       23.864896    0.239899    4.792164
     30          6           0       20.189859    0.846641    5.590136
     31          6           0       19.775181    2.233734    5.036613
     32          7           0       19.170358   -1.171594    0.946450
     33          6           0       18.836546   -1.655009    2.221046
     34          6           0       17.848888   -2.649903    2.028846
     35          6           0       17.662778   -2.753955    0.655977
     36          6           0       18.486729   -1.855901    0.061730
     37          6           0       17.130138   -3.381197    3.117543
     38          6           0       17.000409   -3.488731   -0.316891
     39          8           0       16.194138   -4.427786   -0.186708
     40          6           0       17.433089   -3.018322   -1.738272
     41          6           0       16.097140   -2.527733   -2.378686
     42          8           0       15.459415   -1.517190   -2.033140
     43          8           0       15.752604   -3.418630   -3.389418
     44          6           0       14.385166   -3.316417   -3.991266
     45          1           0       22.405631    1.288381   -3.556753
     46          1           0       23.573949    2.388090    2.795568
     47          1           0       19.018613   -1.579058    4.288895
     48          1           0       19.204842   -2.164636   -4.130467
     49          1           0       20.766876    0.098144   -4.793350
     50          1           0       21.528984   -2.711245   -4.052375
     51          1           0       22.492009   -1.660900   -3.143124
     52          1           0       22.412571   -1.536558   -4.969827
     53          1           0       18.460341    0.512102   -4.775397
     54          1           0       17.340090   -0.303955   -3.601727
     55          1           0       17.501615   -2.179656   -5.319098
     56          1           0       18.208271   -0.994628   -6.408313
     57          1           0       23.302558    3.348038   -3.551190
     58          1           0       24.969296    3.395007   -2.693895
     59          1           0       23.800565    4.667224   -2.574829
     60          1           0       26.270076    5.373906    0.477887
     61          1           0       24.816643    6.090695   -0.214926
     62          1           0       25.722771    4.788346   -1.099500
     63          1           0       22.432121    1.847104    4.860780
     64          1           0       21.541528   -0.845245    5.262049
     65          1           0       24.250966   -0.360052    3.967640
     66          1           0       23.843128   -0.416557    5.662188
     67          1           0       24.661490    0.938756    5.049004
     68          1           0       20.612135    0.886959    6.594352
     69          1           0       19.349320    0.157031    5.667068
     70          1           0       18.703684    2.308120    4.849902
     71          1           0       20.343924    2.385438    4.118793
     72          1           0       20.020419    3.048335    5.717413
     73          1           0       17.298349   -4.440120    2.921564
     74          1           0       16.081322   -3.087191    3.077237
     75          1           0       17.512194   -3.215621    4.124951
     76          1           0       17.789812   -3.888180   -2.289172
     77          1           0       13.683570   -3.477208   -3.173039
     78          1           0       14.128433   -4.014148   -4.788300
     79          1           0       14.465171   -2.279825   -4.318764
     80         12           0      -20.302068   -0.553800   -0.316703
     81          6           0      -19.978876    2.850176    0.089224
     82          6           0      -16.896479   -0.796414   -0.402667
     83          6           0      -20.650960   -3.720316    0.557462
     84          6           0      -23.783481   -0.124659   -0.164769
     85          7           0      -18.672782    0.869973    0.302452
     86          6           0      -18.762142    2.219420    0.179893
     87          6           0      -17.423282    2.895223    0.213957
     88          6           0      -16.531327    1.750021   -0.365676
     89          6           0      -17.436328    0.535289   -0.222513
     90          6           0      -16.029057    2.039749   -1.809210
     91          6           0      -16.977765    3.289808    1.710540
     92          6           0      -16.144081    4.647749    1.842680
     93          1           0      -14.799048    4.310781    2.437137
     94          7           0      -18.952680   -2.086896   -0.168329
     95          6           0      -17.603020   -2.030482   -0.140168
     96          6           0      -17.036604   -3.355064    0.080842
     97          6           0      -18.121749   -4.220689    0.328592
     98          6           0      -19.316560   -3.334204    0.248288
     99          6           0      -15.505171   -3.580723    0.088724
    100          6           0      -17.944783   -5.636749    0.801185
    101          8           0      -16.836250   -6.094453    0.900702
    102          6           0      -19.095373   -6.567522    1.229436
    103          7           0      -21.996332   -1.842513    0.020139
    104          6           0      -21.863490   -3.045038    0.366692
    105          6           0      -23.143204   -3.698390    0.737864
    106          6           0      -24.195408   -2.545801    0.496293
    107          6           0      -23.312656   -1.443162    0.100463
    108          6           0      -23.361324   -5.035347   -0.048132
    109          6           0      -25.038560   -2.215969    1.813858
    110          6           0      -26.391875   -1.440775    1.632383
    111          7           0      -21.657085    0.995994   -0.170256
    112          6           0      -23.038809    1.016594   -0.227907
    113          6           0      -23.522091    2.367993   -0.292100
    114          6           0      -22.318376    3.152906   -0.219202
    115          6           0      -21.258404    2.284602   -0.042810
    116          6           0      -24.938440    2.831361   -0.408702
    117          6           0      -21.824152    4.486132   -0.249375
    118          8           0      -22.337863    5.608853   -0.336856
    119          6           0      -20.314889    4.357993    0.142705
    120          6           0      -19.556039    5.243515   -0.788519
    121          8           0      -19.235566    6.415693   -0.546635
    122          8           0      -19.320951    4.585381   -1.964063
    123          6           0      -18.606066    5.501159   -2.896883
    124          1           0      -15.833691   -0.977101   -0.578864
    125          1           0      -20.729804   -4.753001    0.901972
    126          1           0      -24.853626    0.000875    0.016898
    127          1           0      -17.523654    3.710133   -0.501833
    128          1           0      -15.623607    1.670135    0.232685
    129          1           0      -14.942861    2.125677   -1.801467
    130          1           0      -16.406549    3.024348   -2.087125
    131          1           0      -16.431991    1.262378   -2.457639
    132          1           0      -16.472579    2.512839    2.284106
    133          1           0      -17.855580    3.433271    2.339766
    134          1           0      -16.696953    5.225518    2.583518
    135          1           0      -16.052007    5.312629    0.983792
    136          1           0      -15.106520   -3.994497    1.014916
    137          1           0      -14.923940   -2.695477   -0.171748
    138          1           0      -15.284903   -4.258000   -0.735758
    139          1           0      -19.779327   -6.808681    0.416367
    140          1           0      -19.663219   -6.198242    2.083788
    141          1           0      -18.596231   -7.430495    1.671211
    142          1           0      -23.029220   -3.877255    1.806947
    143          1           0      -24.883087   -2.638634   -0.343949
    144          1           0      -23.459712   -5.825204    0.696225
    145          1           0      -22.540494   -5.242607   -0.734940
    146          1           0      -24.340216   -5.120932   -0.519623
    147          1           0      -24.433932   -1.630689    2.506981
    148          1           0      -25.230113   -3.182408    2.277822
    149          1           0      -27.337871   -1.876808    1.952253
    150          1           0      -26.582349   -1.247571    0.577573
    151          1           0      -26.341146   -0.473678    2.132660
    152          1           0      -25.688525    2.066316   -0.608192
    153          1           0      -24.821815    3.537546   -1.229786
    154          1           0      -25.029170    3.384836    0.526018
    155          1           0      -20.096538    4.619812    1.178570
    156          1           0      -19.284891    6.290625   -3.217862
    157          1           0      -18.377939    5.033287   -3.854590
    158          1           0      -17.707116    5.851290   -2.389110
 ---------------------------------------------------------------------

 SCF Done:  E(RCAM-B3LYP) =  -4069.80361991     A.U. after   19 cycles

 Excitation energies and oscillator strengths:

 Excited State   1:      Singlet-A      1.6607 eV  746.58 nm  f=0.3783  <S**2>=0.000
     309 -> 316        0.16218
     311 -> 313        0.68870
     309 <- 316        0.10406
 This state for optimization and/or second-order correction.
 Total Energy, E(TD-HF/TD-DFT) =  -4069.74259011
 Copying the excited state density for this state as the 1-particle RhoCI density.

 Excited State   2:      Singlet-A      1.6892 eV  733.99 nm  f=0.3601  <S**2>=0.000
     310 -> 315        0.16430
     312 -> 314        0.68770
     310 <- 315        0.10168

 Excited State   3:      Singlet-A      2.2122 eV  560.47 nm  f=0.1073  <S**2>=0.000
     310 -> 314        0.64119
     312 -> 315       -0.27965

 Excited State   4:      Singlet-A      2.2190 eV  558.74 nm  f=0.1276  <S**2>=0.000
     309 -> 313        0.64340
     311 -> 316       -0.27225

 Excited State   5:      Singlet-A      3.0755 eV  403.14 nm  f=0.0000  <S**2>=0.000
     312 -> 313        0.70710

 The electronic state is 1-A.
 Alpha  occ. eigenvalues --  -46.89204 -46.88325 -19.25543 -19.24749 -19.20015
 Alpha  occ. eigenvalues --  -19.19502 -19.19024 -19.18739 -19.17881 -19.17659
 Alpha  occ. eigenvalues --  -14.42095 -14.41946 -14.41889 -14.41486 -14.40292
 Alpha  occ. eigenvalues --  -14.39351 -14.38571 -14.38509 -10.40034 -10.38644
 Alpha  occ. eigenvalues --  -10.35736 -10.35289 -10.34054 -10.33641 -10.32297
 Alpha  occ. eigenvalues --  -10.31983 -10.31696 -10.31691 -10.30964 -10.30961
 Alpha  occ. eigenvalues --  -10.30664 -10.30561 -10.30326 -10.30245 -10.30234
 Alpha  occ. eigenvalues --  -10.30229 -10.29950 -10.29353 -10.29313 -10.29210
 Alpha  occ. eigenvalues --  -10.28763 -10.28373 -10.28371 -10.28330 -10.28312
 Alpha  occ. eigenvalues --  -10.28250 -10.28220 -10.28193 -10.28144 -10.28019
 Alpha  occ. eigenvalues --  -10.27914 -10.27888 -10.27831 -10.27759 -10.27676
 Alpha  occ. eigenvalues --  -10.27668 -10.27568 -10.27557 -10.27552 -10.27459
 Alpha  occ. eigenvalues --  -10.27414 -10.27242 -10.27178 -10.27149 -10.27018
 Alpha  occ. eigenvalues --  -10.27017 -10.26978 -10.26735 -10.26652 -10.26635
 Alpha  occ. eigenvalues --  -10.26595 -10.26562 -10.26534 -10.26406 -10.26379
 Alpha  occ. eigenvalues --  -10.26263 -10.26204 -10.26198 -10.25948 -10.25943
 Alpha  occ. eigenvalues --  -10.25834 -10.25753 -10.25744 -10.25572 -10.24414
 Alpha  occ. eigenvalues --  -10.23787  -3.17777  -3.16921  -1.92665  -1.92247
 Alpha  occ. eigenvalues --   -1.92069  -1.91802  -1.91380  -1.91224  -1.15931
 Alpha  occ. eigenvalues --   -1.14422  -1.11936  -1.09479  -1.08088  -1.07951
 Alpha  occ. eigenvalues --   -1.07033  -1.06654  -1.06409  -1.04814  -1.04573
 Alpha  occ. eigenvalues --   -1.03918  -1.03906  -1.03522  -1.02810  -1.02232
 Alpha  occ. eigenvalues --   -0.92537  -0.92480  -0.89713  -0.89097  -0.89056
 Alpha  occ. eigenvalues --   -0.88671  -0.88591  -0.88240  -0.87802  -0.87281
 Alpha  occ. eigenvalues --   -0.87133  -0.86859  -0.86610  -0.86540  -0.84604
 Alpha  occ. eigenvalues --   -0.84281  -0.83787  -0.83511  -0.82258  -0.82171
 Alpha  occ. eigenvalues --   -0.81809  -0.81629  -0.80994  -0.80896  -0.80397
 Alpha  occ. eigenvalues --   -0.80328  -0.78407  -0.78212  -0.77822  -0.77077
 Alpha  occ. eigenvalues --   -0.76939  -0.76788  -0.76039  -0.75954  -0.75474
 Alpha  occ. eigenvalues --   -0.75473  -0.73255  -0.72673  -0.72204  -0.72053
 Alpha  occ. eigenvalues --   -0.70471  -0.69796  -0.69294  -0.68772  -0.68133
 Alpha  occ. eigenvalues --   -0.67729  -0.67540  -0.66806  -0.66537  -0.65342
 Alpha  occ. eigenvalues --   -0.65340  -0.64833  -0.64665  -0.64459  -0.64442
 Alpha  occ. eigenvalues --   -0.64071  -0.62402  -0.61569  -0.60497  -0.59891
 Alpha  occ. eigenvalues --   -0.59789  -0.59604  -0.59165  -0.59145  -0.58784
 Alpha  occ. eigenvalues --   -0.58440  -0.57958  -0.57570  -0.57005  -0.56978
 Alpha  occ. eigenvalues --   -0.56674  -0.56192  -0.55986  -0.55652  -0.55623
 Alpha  occ. eigenvalues --   -0.55333  -0.55084  -0.55024  -0.54770  -0.54124
 Alpha  occ. eigenvalues --   -0.53571  -0.53553  -0.53051  -0.52938  -0.52928
 Alpha  occ. eigenvalues --   -0.52813  -0.52642  -0.52469  -0.52372  -0.51957
 Alpha  occ. eigenvalues --   -0.51938  -0.51684  -0.51675  -0.51463  -0.51216
 Alpha  occ. eigenvalues --   -0.51167  -0.50632  -0.50496  -0.50390  -0.50352
 Alpha  occ. eigenvalues --   -0.50192  -0.49898  -0.49670  -0.49639  -0.49392
 Alpha  occ. eigenvalues --   -0.49200  -0.49123  -0.48922  -0.48919  -0.48766
 Alpha  occ. eigenvalues --   -0.48606  -0.48524  -0.48322  -0.48089  -0.47980
 Alpha  occ. eigenvalues --   -0.47751  -0.47690  -0.47661  -0.47387  -0.47369
 Alpha  occ. eigenvalues --   -0.47037  -0.46904  -0.46795  -0.46618  -0.46302
 Alpha  occ. eigenvalues --   -0.46265  -0.46205  -0.45995  -0.45810  -0.45792
 Alpha  occ. eigenvalues --   -0.45705  -0.45473  -0.45358  -0.45085  -0.44647
 Alpha  occ. eigenvalues --   -0.44612  -0.44492  -0.44397  -0.44280  -0.44189
 Alpha  occ. eigenvalues --   -0.44185  -0.43963  -0.43757  -0.43470  -0.43447
 Alpha  occ. eigenvalues --   -0.43358  -0.43195  -0.43144  -0.43060  -0.42898
 Alpha  occ. eigenvalues --   -0.42699  -0.42588  -0.42370  -0.42168  -0.41968
 Alpha  occ. eigenvalues --   -0.41944  -0.41878  -0.41747  -0.41593  -0.41434
 Alpha  occ. eigenvalues --   -0.41143  -0.41070  -0.40849  -0.40747  -0.40654
 Alpha  occ. eigenvalues --   -0.40300  -0.40051  -0.39960  -0.39601  -0.39166
 Alpha  occ. eigenvalues --   -0.38601  -0.38265  -0.38208  -0.38039  -0.37688
 Alpha  occ. eigenvalues --   -0.37370  -0.36835  -0.36795  -0.36687  -0.36603
 Alpha  occ. eigenvalues --   -0.36467  -0.36082  -0.34946  -0.34190  -0.34094
 Alpha  occ. eigenvalues --   -0.33577  -0.33365  -0.33231  -0.31887  -0.31359
 Alpha  occ. eigenvalues --   -0.31320  -0.30829  -0.30578  -0.30061  -0.30032
 Alpha  occ. eigenvalues --   -0.29727  -0.29406  -0.28939  -0.24245  -0.24164
 Alpha  occ. eigenvalues --   -0.21196  -0.21143
 Alpha virt. eigenvalues --   -0.09009  -0.08778  -0.01780  -0.01517   0.00225
 Alpha virt. eigenvalues --    0.00528   0.01683   0.02191   0.02380   0.02420
 Alpha virt. eigenvalues --    0.04644   0.04955   0.05066   0.05826   0.06022

 Mulliken charges:
               1
     1  Mg  12.002508
     2  C    5.968065
     3  C    6.010027
     4  C    6.038295
     5  C    6.011398
     6  N    6.977493
     7  C    6.036777
     8  C    5.997422
     9  C    6.006756
    10  C    5.975377
    11  C    6.004122
    12  C    5.992909
    13  C    6.000359
    14  H    0.998943
    15  N    7.010808
    16  C    5.957115
    17  C    5.979810
    18  C    5.986393
    19  C    5.954372
    20  C    6.005437
    21  C    5.987107
    22  O    7.970314
    23  C    6.005849
    24  N    7.018037
    25  C    5.953098
    26  C    6.017036
    27  C    5.992476
    28  C    6.017780
    29  C    5.999934
    30  C    5.991329
    31  C    5.993229
    32  N    6.995120
    33  C    6.034943
    34  C    6.031190
    35  C    6.001533
    36  C    6.033382
    37  C    5.994838
    38  C    6.013391
    39  O    8.031299
    40  C    6.005396
    41  C    6.002762
    42  O    8.003261
    43  O    8.001576
    44  C    5.999088
    45  H    0.984923
    46  H    0.996229
    47  H    1.017857
    48  H    0.998927
    49  H    0.998379
    50  H    0.982627
    51  H    1.000556
    52  H    0.996375
    53  H    1.013505
    54  H    0.993911
    55  H    0.996150
    56  H    1.006142
    57  H    0.983265
    58  H    0.978990
    59  H    0.980075
    60  H    0.985792
    61  H    0.988653
    62  H    0.996106
    63  H    0.998216
    64  H    1.003146
    65  H    1.000189
    66  H    0.989226
    67  H    1.003179
    68  H    1.010690
    69  H    0.992859
    70  H    0.996848
    71  H    1.015250
    72  H    1.007369
    73  H    1.019943
    74  H    1.021318
    75  H    1.018620
    76  H    1.008204
    77  H    0.998886
    78  H    1.004667
    79  H    1.004573
    80  Mg  12.000007
    81  C    5.999460
    82  C    6.000392
    83  C    6.000621
    84  C    5.999846
    85  N    6.999735
    86  C    6.001026
    87  C    5.999716
    88  C    6.000380
    89  C    5.999116
    90  C    6.000094
    91  C    6.000034
    92  C    5.999973
    93  H    1.000111
    94  N    7.000293
    95  C    5.998858
    96  C    5.999401
    97  C    5.999653
    98  C    5.998992
    99  C    6.000199
   100  C    5.999753
   101  O    7.999426
   102  C    6.000081
   103  N    7.000019
   104  C    5.999078
   105  C    6.000272
   106  C    5.999708
   107  C    6.000884
   108  C    6.000074
   109  C    5.999789
   110  C    5.999947
   111  N    6.999953
   112  C    6.000846
   113  C    6.000890
   114  C    6.000006
   115  C    6.000783
   116  C    5.999940
   117  C    6.000423
   118  O    8.000848
   119  C    6.000012
   120  C    6.000104
   121  O    8.000201
   122  O    7.999963
   123  C    5.999945
   124  H    0.999623
   125  H    0.999833
   126  H    1.000310
   127  H    0.999944
   128  H    0.999752
   129  H    0.999820
   130  H    0.999620
   131  H    1.000017
   132  H    1.000249
   133  H    0.999886
   134  H    0.999980
   135  H    1.000021
   136  H    0.999390
   137  H    0.999428
   138  H    0.999445
   139  H    0.999760
   140  H    0.999723
   141  H    0.999650
   142  H    1.000010
   143  H    1.000073
   144  H    0.999979
   145  H    1.000129
   146  H    0.999783
   147  H    1.000065
   148  H    1.000351
   149  H    1.000211
   150  H    0.999982
   151  H    0.999909
   152  H    1.000561
   153  H    1.000502
   154  H    1.000546
   155  H    1.000228
   156  H    1.000053
   157  H    1.000178
   158  H    1.000137
 Sum of Mulliken charges = 624.00000

 Dipole moment (field-independent basis, Debye):
    X=             -7.8100    Y=             -6.6967    Z=              3.7807  Tot=             10.9606
 Quadrupole moment (field-independent basis, Debye-Ang):
   XX=           -305.2970   YY=             -2.9748   ZZ=              4.3034
   XY=           -147.9514   XZ=             76.7300   YZ=             -2.0860

 Normal termination of Gaussian 16 at Wed Sep 22 12:24:02 2021.
