 Gaussian 16, Revision A.03,
 Gaussian 16:  ES64L-G16RevA.03 25-Dec-2016

 ----------------------------------------------------------
 #p cam-b3lyp/Def2SVP td=(nstates=5) density=(transition=1)
 ----------------------------------------------------------

 --------------------------------
 TDDFT excited states in gaussian
 --------------------------------
 Symbolic Z-matrix:
 Charge =  0 Multiplicity = 1

                         Standard orientation:
 ---------------------------------------------------------------------
 Center     Atomic      Atomic             Coordinates (Angstroms)
 Number     Number       Type             X           Y           Z
 ---------------------------------------------------------------------
      1         12           0      -30.251913   -0.422883   -0.198642
      2          6           0      -27.107535    0.832659   -1.140288
      3          6           0      -28.688374   -3.247023    0.985305
      4          6           0      -33.099091   -1.166796    1.313219
      5          6           0      -31.706997    2.651929   -1.221433
      6          7           0      -28.143522   -0.993383    0.131385
      7          6           0      -26.985596   -0.324279   -0.342548
      8          6           0      -25.788220   -1.182366   -0.341092
      9          6           0      -26.349562   -2.541265    0.263138
     10          6           0      -27.835003   -2.272900    0.446233
     11          6           0      -25.957038   -3.775509   -0.584557
     12          6           0      -24.684483   -0.716016    0.558467
     13          6           0      -25.102135   -0.081429    1.893393
     14          1           0      -24.250301   -0.290405    3.205604
     15          7           0      -30.868692   -2.020600    0.977923
     16          6           0      -30.109840   -3.105246    1.225609
     17          6           0      -30.924326   -4.086834    1.897218
     18          6           0      -32.234270   -3.549474    1.945559
     19          6           0      -32.141370   -2.196632    1.373510
     20          6           0      -30.444553   -5.399102    2.456716
     21          6           0      -33.469238   -4.259860    2.498924
     22          8           0      -33.392517   -5.380528    2.963339
     23          6           0      -34.849383   -3.695197    2.661674
     24          7           0      -32.045303    0.689212    0.239584
     25          6           0      -33.129819    0.123401    0.855247
     26          6           0      -34.413391    0.998227    0.671901
     27          6           0      -33.821398    2.333494    0.127622
     28          6           0      -32.455053    1.872585   -0.330492
     29          6           0      -35.472547    0.430019   -0.303312
     30          6           0      -33.519173    3.465692    1.219042
     31          6           0      -33.971472    4.844231    0.898574
     32          7           0      -29.648389    1.296076   -1.077038
     33          6           0      -30.363526    2.313323   -1.576041
     34          6           0      -29.535608    3.088399   -2.575384
     35          6           0      -28.253304    2.466729   -2.442460
     36          6           0      -28.341281    1.483881   -1.416330
     37          6           0      -29.907755    4.261673   -3.470482
     38          6           0      -26.881827    2.607148   -2.838746
     39          8           0      -26.347413    3.416344   -3.580466
     40          6           0      -26.087106    1.513589   -2.017021
     41          6           0      -25.175921    2.256239   -1.061862
     42          8           0      -25.487902    2.909216   -0.121501
     43          8           0      -23.873478    1.956040   -1.399869
     44          6           0      -22.892547    2.370473   -0.391731
     45          1           0      -28.216517   -4.213103    1.175354
     46          1           0      -34.091947   -1.469326    1.650254
     47          1           0      -32.253856    3.505141   -1.628132
     48          1           0      -25.420273   -1.236166   -1.365694
     49          1           0      -26.086021   -2.748812    1.300185
     50          1           0      -25.588290   -4.440232    0.196843
     51          1           0      -25.191927   -3.446859   -1.287994
     52          1           0      -26.812069   -4.255646   -1.060885
     53          1           0      -23.916182   -0.132894    0.050051
     54          1           0      -24.016068   -1.503901    0.906382
     55          1           0      -26.123199   -0.427480    2.057489
     56          1           0      -25.174656    0.973418    1.627972
     57          1           0      -30.829583   -5.559371    3.464320
     58          1           0      -29.357154   -5.449002    2.401711
     59          1           0      -30.874448   -6.143326    1.785900
     60          1           0      -34.942365   -2.885635    3.384882
     61          1           0      -35.358092   -4.529106    3.145550
     62          1           0      -35.382110   -3.583611    1.716691
     63          1           0      -34.884384    1.102714    1.649237
     64          1           0      -34.386419    2.749903   -0.706718
     65          1           0      -35.512958    1.072607   -1.182643
     66          1           0      -36.399044    0.173007    0.209895
     67          1           0      -35.124572   -0.537068   -0.664528
     68          1           0      -32.461030    3.486365    1.478804
     69          1           0      -34.049919    3.117084    2.105142
     70          1           0      -34.627872    5.265369    1.659793
     71          1           0      -34.461103    4.927477   -0.071975
     72          1           0      -33.137034    5.543744    0.856562
     73          1           0      -29.235717    5.076966   -3.202542
     74          1           0      -30.985436    4.410119   -3.391810
     75          1           0      -29.609614    3.964342   -4.475789
     76          1           0      -25.529623    0.835059   -2.662319
     77          1           0      -23.294021    2.364537    0.621529
     78          1           0      -22.635578    3.386018   -0.693116
     79          1           0      -21.998790    1.779635   -0.590412
     80         12           0       29.257592    0.526737    0.654741
     81          6           0       29.296945   -2.506006   -1.289407
     82          6           0       27.694077    2.075439   -1.857776
     83          6           0       30.058176    3.422008    2.140412
     84          6           0       31.302996   -1.143092    2.963907
     85          7           0       28.642400   -0.132806   -1.324742
     86          6           0       28.569889   -1.434067   -1.850433
     87          6           0       27.704316   -1.474211   -3.167144
     88          6           0       27.277334    0.015642   -3.333244
     89          6           0       27.856764    0.699330   -2.066270
     90          6           0       27.699681    0.719972   -4.597579
     91          6           0       26.490265   -2.546139   -3.087882
     92          6           0       26.426052   -3.548059   -4.247271
     93          1           0       25.068925   -3.518102   -5.043930
     94          7           0       28.797690    2.482620    0.268855
     95          6           0       28.155899    2.944338   -0.809156
     96          6           0       28.036318    4.403116   -0.781540
     97          6           0       28.823817    4.787989    0.358048
     98          6           0       29.288587    3.545812    0.984203
     99          6           0       27.291580    5.173372   -1.785681
    100          6           0       29.159688    6.268873    0.719975
    101          8           0       29.776277    6.563272    1.730266
    102          6           0       28.731681    7.425981   -0.125180
    103          7           0       30.463859    1.024443    2.265225
    104          6           0       30.532637    2.317359    2.772987
    105          6           0       31.372323    2.357808    4.091878
    106          6           0       31.449758    0.839605    4.501015
    107          6           0       30.998719    0.180067    3.197966
    108          6           0       32.715400    3.158037    4.078148
    109          6           0       30.520930    0.451199    5.683849
    110          6           0       31.030200   -0.524935    6.714152
    111          7           0       30.180408   -1.401669    0.811375
    112          6           0       30.971123   -1.914330    1.800270
    113          6           0       31.199504   -3.398972    1.520078
    114          6           0       30.523298   -3.677652    0.356974
    115          6           0       29.978688   -2.419829   -0.074939
    116          6           0       31.940103   -4.306396    2.475871
    117          6           0       30.178440   -4.677874   -0.637575
    118          8           0       30.529303   -5.874832   -0.576853
    119          6           0       29.403349   -3.910418   -1.866465
    120          6           0       30.164604   -3.878016   -3.175276
    121          8           0       31.330194   -3.437890   -3.225725
    122          8           0       29.491473   -4.540962   -4.202315
    123          6           0       30.373166   -4.878894   -5.313611
    124          1           0       27.090656    2.618546   -2.587814
    125          1           0       30.216657    4.403305    2.591772
    126          1           0       31.839116   -1.624201    3.785185
    127          1           0       28.426379   -1.812047   -3.910251
    128          1           0       26.195867   -0.024071   -3.470522
    129          1           0       28.314011    0.099579   -5.250260
    130          1           0       28.396855    1.440693   -4.171597
    131          1           0       26.859724    1.081731   -5.191392
    132          1           0       25.609674   -1.905650   -3.047136
    133          1           0       26.516462   -3.038586   -2.116180
    134          1           0       26.660568   -4.525557   -3.825848
    135          1           0       27.205193   -3.306714   -4.971445
    136          1           0       27.785754    5.968733   -2.342742
    137          1           0       26.618971    5.798587   -1.199584
    138          1           0       26.599328    4.597800   -2.400568
    139          1           0       27.641860    7.383426   -0.129600
    140          1           0       29.064499    7.207659   -1.140292
    141          1           0       29.182282    8.305936    0.332174
    142          1           0       30.715682    2.868228    4.796471
    143          1           0       32.470964    0.495051    4.662155
    144          1           0       32.716229    3.657976    3.109826
    145          1           0       33.600748    2.551225    4.265824
    146          1           0       32.692278    4.010657    4.757956
    147          1           0       29.712000    0.019940    5.094461
    148          1           0       30.098241    1.294628    6.230183
    149          1           0       30.715825   -0.122315    7.677118
    150          1           0       32.118200   -0.594481    6.737834
    151          1           0       30.435837   -1.429827    6.585257
    152          1           0       32.275173   -3.688808    3.308988
    153          1           0       32.845172   -4.654315    1.978472
    154          1           0       31.306171   -5.151763    2.742660
    155          1           0       28.414098   -4.354817   -1.976015
    156          1           0       30.578801   -5.941051   -5.438961
    157          1           0       31.332883   -4.362299   -5.294215
    158          1           0       29.866938   -4.534350   -6.214979
 ---------------------------------------------------------------------

 SCF Done:  E(RCAM-B3LYP) =  -4069.78856211     A.U. after   17 cycles

 Excitation energies and oscillator strengths:

 Excited State   1:      Singlet-A      1.6651 eV  744.61 nm  f=0.3710  <S**2>=0.000
     309 -> 315       -0.17251
     311 -> 313        0.68782
     309 <- 315       -0.10780
 This state for optimization and/or second-order correction.
 Total Energy, E(TD-HF/TD-DFT) =  -4069.72737088
 Copying the excited state density for this state as the 1-particle RhoCI density.

 Excited State   2:      Singlet-A      1.6980 eV  730.19 nm  f=0.4198  <S**2>=0.000
     310 -> 316        0.17307
     312 -> 314        0.68838
     310 <- 316        0.10784

 Excited State   3:      Singlet-A      2.2662 eV  547.11 nm  f=0.1011  <S**2>=0.000
     309 -> 313        0.62923
     311 -> 315        0.31016

 Excited State   4:      Singlet-A      2.2865 eV  542.24 nm  f=0.0917  <S**2>=0.000
     310 -> 314        0.63011
     312 -> 316       -0.31285

 Excited State   5:      Singlet-A      3.1041 eV  399.42 nm  f=0.0000  <S**2>=0.000
     312 -> 313        0.70711

 The electronic state is 1-A.
 Alpha  occ. eigenvalues --  -46.88596 -46.88383 -19.26701 -19.24622 -19.20855
 Alpha  occ. eigenvalues --  -19.20445 -19.19929 -19.19140 -19.18550 -19.18263
 Alpha  occ. eigenvalues --  -14.42568 -14.42390 -14.41901 -14.41652 -14.39686
 Alpha  occ. eigenvalues --  -14.39610 -14.39549 -14.39370 -10.40838 -10.39261
 Alpha  occ. eigenvalues --  -10.36507 -10.35008 -10.34929 -10.34619 -10.31747
 Alpha  occ. eigenvalues --  -10.31594 -10.31455 -10.31225 -10.30962 -10.30961
 Alpha  occ. eigenvalues --  -10.30833 -10.30672 -10.30651 -10.30597 -10.30483
 Alpha  occ. eigenvalues --  -10.30337 -10.30123 -10.29964 -10.29956 -10.29784
 Alpha  occ. eigenvalues --  -10.29505 -10.29333 -10.29138 -10.29006 -10.28865
 Alpha  occ. eigenvalues --  -10.28730 -10.28564 -10.28531 -10.28522 -10.28350
 Alpha  occ. eigenvalues --  -10.28306 -10.28240 -10.28141 -10.28062 -10.28049
 Alpha  occ. eigenvalues --  -10.27837 -10.27759 -10.27719 -10.27468 -10.27450
 Alpha  occ. eigenvalues --  -10.27365 -10.27293 -10.27224 -10.27081 -10.27056
 Alpha  occ. eigenvalues --  -10.26946 -10.26766 -10.26636 -10.26576 -10.26523
 Alpha  occ. eigenvalues --  -10.26509 -10.26504 -10.26405 -10.26149 -10.26144
 Alpha  occ. eigenvalues --  -10.26019 -10.25922 -10.25722 -10.25534 -10.25527
 Alpha  occ. eigenvalues --  -10.25503 -10.25500 -10.25431 -10.25384 -10.25220
 Alpha  occ. eigenvalues --  -10.25144  -3.17241  -3.17035  -1.92102  -1.91916
 Alpha  occ. eigenvalues --   -1.91701  -1.91559  -1.91474  -1.91363  -1.17283
 Alpha  occ. eigenvalues --   -1.16346  -1.10424  -1.10113  -1.09967  -1.09044
 Alpha  occ. eigenvalues --   -1.08978  -1.07961  -1.04599  -1.04009  -1.03922
 Alpha  occ. eigenvalues --   -1.03353  -1.03299  -1.02646  -1.02643  -1.01886
 Alpha  occ. eigenvalues --   -0.93199  -0.92636  -0.89885  -0.89445  -0.89119
 Alpha  occ. eigenvalues --   -0.88748  -0.88402  -0.88036  -0.87541  -0.87332
 Alpha  occ. eigenvalues --   -0.87231  -0.86350  -0.86124  -0.85821  -0.84761
 Alpha  occ. eigenvalues --   -0.84290  -0.84185  -0.83665  -0.82730  -0.82722
 Alpha  occ. eigenvalues --   -0.81938  -0.81707  -0.81208  -0.80892  -0.80531
 Alpha  occ. eigenvalues --   -0.80235  -0.78435  -0.77963  -0.77612  -0.77523
 Alpha  occ. eigenvalues --   -0.76933  -0.76864  -0.76227  -0.76063  -0.75151
 Alpha  occ. eigenvalues --   -0.74709  -0.72720  -0.72452  -0.71707  -0.70974
 Alpha  occ. eigenvalues --   -0.69647  -0.69004  -0.68826  -0.68699  -0.68408
 Alpha  occ. eigenvalues --   -0.67917  -0.67102  -0.66721  -0.65881  -0.65343
 Alpha  occ. eigenvalues --   -0.65096  -0.64995  -0.64900  -0.64556  -0.64396
 Alpha  occ. eigenvalues --   -0.64357  -0.62597  -0.62118  -0.60293  -0.60022
 Alpha  occ. eigenvalues --   -0.59777  -0.59432  -0.59083  -0.58958  -0.58922
 Alpha  occ. eigenvalues --   -0.58528  -0.58337  -0.58154  -0.57397  -0.57323
 Alpha  occ. eigenvalues --   -0.56578  -0.56261  -0.56121  -0.55436  -0.55432
 Alpha  occ. eigenvalues --   -0.55120  -0.55118  -0.54928  -0.54621  -0.54090
 Alpha  occ. eigenvalues --   -0.53774  -0.53519  -0.53138  -0.53059  -0.52869
 Alpha  occ. eigenvalues --   -0.52604  -0.52461  -0.52388  -0.52301  -0.52141
 Alpha  occ. eigenvalues --   -0.51836  -0.51634  -0.51622  -0.51491  -0.51440
 Alpha  occ. eigenvalues --   -0.51278  -0.51176  -0.51138  -0.50946  -0.50829
 Alpha  occ. eigenvalues --   -0.50253  -0.50149  -0.49622  -0.49612  -0.49422
 Alpha  occ. eigenvalues --   -0.49377  -0.49268  -0.49161  -0.48955  -0.48795
 Alpha  occ. eigenvalues --   -0.48784  -0.48629  -0.48614  -0.48381  -0.48324
 Alpha  occ. eigenvalues --   -0.48149  -0.47958  -0.47571  -0.47241  -0.47213
 Alpha  occ. eigenvalues --   -0.47122  -0.47027  -0.46920  -0.46797  -0.46759
 Alpha  occ. eigenvalues --   -0.46488  -0.46394  -0.46025  -0.46020  -0.45951
 Alpha  occ. eigenvalues --   -0.45898  -0.45679  -0.45519  -0.45372  -0.45245
 Alpha  occ. eigenvalues --   -0.44690  -0.44574  -0.44388  -0.44332  -0.44145
 Alpha  occ. eigenvalues --   -0.44065  -0.44037  -0.43920  -0.43819  -0.43617
 Alpha  occ. eigenvalues --   -0.43617  -0.43247  -0.43203  -0.43001  -0.42853
 Alpha  occ. eigenvalues --   -0.42821  -0.42672  -0.42539  -0.42397  -0.42214
 Alpha  occ. eigenvalues --   -0.42143  -0.41917  -0.41728  -0.41710  -0.41134
 Alpha  occ. eigenvalues --   -0.41125  -0.40789  -0.40788  -0.40563  -0.40417
 Alpha  occ. eigenvalues --   -0.40181  -0.39838  -0.39505  -0.39170  -0.39137
 Alpha  occ. eigenvalues --   -0.38472  -0.38297  -0.37896  -0.37814  -0.37431
 Alpha  occ. eigenvalues --   -0.37419  -0.37350  -0.37054  -0.36459  -0.36421
 Alpha  occ. eigenvalues --   -0.36111  -0.35781  -0.35157  -0.35122  -0.34440
 Alpha  occ. eigenvalues --   -0.34245  -0.33040  -0.32889  -0.31555  -0.31394
 Alpha  occ. eigenvalues --   -0.31392  -0.31118  -0.30699  -0.30552  -0.30391
 Alpha  occ. eigenvalues --   -0.29919  -0.29783  -0.29670  -0.24325  -0.24173
 Alpha  occ. eigenvalues --   -0.21063  -0.20780
 Alpha virt. eigenvalues --   -0.08796  -0.08429  -0.01805  -0.01320  -0.00046
 Alpha virt. eigenvalues --    0.00201   0.01364   0.01784   0.02325   0.02508
 Alpha virt. eigenvalues --    0.02801   0.04532   0.05035   0.05414   0.05541

 Mulliken charges:
               1
     1  Mg  11.997947
     2  C    5.964886
     3  C    6.016010
     4  C    6.028588
     5  C    5.986497
     6  N    6.993966
     7  C    6.045354
     8  C    5.984146
     9  C    6.009456
    10  C    5.968100
    11  C    6.002220
    12  C    5.995878
    13  C    5.992998
    14  H    1.009784
    15  N    7.012878
    16  C    5.950631
    17  C    5.977638
    18  C    5.994326
    19  C    5.948226
    20  C    6.004827
    21  C    5.989318
    22  O    7.980608
    23  C    6.004525
    24  N    7.003407
    25  C    5.963301
    26  C    6.007066
    27  C    5.994381
    28  C    6.024927
    29  C    5.999914
    30  C    5.991494
    31  C    5.999832
    32  N    6.994925
    33  C    6.042374
    34  C    6.039887
    35  C    5.995174
    36  C    6.045128
    37  C    5.997262
    38  C    6.013919
    39  O    8.026152
    40  C    6.002566
    41  C    6.002800
    42  O    8.003520
    43  O    8.002078
    44  C    5.998226
    45  H    0.987307
    46  H    0.992311
    47  H    1.011886
    48  H    1.002577
    49  H    1.002114
    50  H    0.999767
    51  H    0.986453
    52  H    1.002151
    53  H    0.996941
    54  H    1.009920
    55  H    1.010524
    56  H    0.992986
    57  H    0.981794
    58  H    0.980253
    59  H    0.980290
    60  H    0.988849
    61  H    0.988308
    62  H    0.988181
    63  H    0.999830
    64  H    0.999868
    65  H    0.986360
    66  H    0.999527
    67  H    1.004800
    68  H    0.999135
    69  H    1.015367
    70  H    1.005727
    71  H    1.000527
    72  H    0.996692
    73  H    1.020506
    74  H    1.019680
    75  H    1.020979
    76  H    1.010144
    77  H    1.004101
    78  H    1.001511
    79  H    1.005499
    80  Mg  11.999987
    81  C    5.999852
    82  C    6.000106
    83  C    6.000069
    84  C    5.999867
    85  N    6.999960
    86  C    6.000202
    87  C    5.999942
    88  C    6.000065
    89  C    5.999850
    90  C    6.000011
    91  C    5.999979
    92  C    5.999983
    93  H    1.000037
    94  N    6.999999
    95  C    5.999757
    96  C    5.999858
    97  C    5.999940
    98  C    5.999771
    99  C    6.000092
   100  C    5.999908
   101  O    7.999882
   102  C    6.000021
   103  N    6.999993
   104  C    5.999891
   105  C    6.000011
   106  C    5.999960
   107  C    6.000164
   108  C    5.999999
   109  C    5.999981
   110  C    5.999996
   111  N    7.000033
   112  C    6.000264
   113  C    6.000166
   114  C    6.000029
   115  C    6.000201
   116  C    5.999943
   117  C    6.000122
   118  O    8.000161
   119  C    6.000014
   120  C    6.000020
   121  O    8.000025
   122  O    8.000015
   123  C    5.999977
   124  H    0.999936
   125  H    0.999960
   126  H    1.000068
   127  H    1.000016
   128  H    0.999952
   129  H    0.999934
   130  H    1.000038
   131  H    0.999965
   132  H    1.000050
   133  H    0.999984
   134  H    0.999997
   135  H    1.000012
   136  H    0.999845
   137  H    0.999863
   138  H    0.999872
   139  H    0.999952
   140  H    0.999968
   141  H    0.999917
   142  H    0.999999
   143  H    1.000005
   144  H    1.000025
   145  H    0.999946
   146  H    0.999991
   147  H    0.999991
   148  H    1.000071
   149  H    1.000033
   150  H    1.000016
   151  H    0.999982
   152  H    1.000120
   153  H    1.000131
   154  H    1.000124
   155  H    1.000048
   156  H    1.000031
   157  H    1.000022
   158  H    1.000031
 Sum of Mulliken charges = 624.00000

 Dipole moment (field-independent basis, Debye):
    X=              3.6300    Y=              8.8003    Z=             -5.1862  Tot=             10.8406
 Quadrupole moment (field-independent basis, Debye-Ang):
   XX=           -214.9117   YY=             -8.7373   ZZ=              4.1487
   XY=           -271.4607   XZ=            157.7158   YZ=              0.1998

 Normal termination of Gaussian 16 at Tue Sep 21 20:27:08 2021.
