 Gaussian 16, Revision A.03,
 Gaussian 16:  ES64L-G16RevA.03 25-Dec-2016

 ----------------------------------------------------------
 #p cam-b3lyp/Def2SVP td=(nstates=5) density=(transition=1)
 ----------------------------------------------------------

 --------------------------------
 TDDFT excited states in gaussian
 --------------------------------
 Symbolic Z-matrix:
 Charge =  0 Multiplicity = 1

                         Standard orientation:
 ---------------------------------------------------------------------
 Center     Atomic      Atomic             Coordinates (Angstroms)
 Number     Number       Type             X           Y           Z
 ---------------------------------------------------------------------
      1         12           0       -8.682261    0.436835    0.562956
      2          6           0       -7.856011   -2.052061   -1.785692
      3          6           0       -6.605315   -1.242570    2.789995
      4          6           0       -9.025722    2.949924    2.721192
      5          6           0       -9.902695    2.351522   -2.061527
      6          7           0       -7.258456   -1.369114    0.387811
      7          6           0       -7.156699   -2.325556   -0.603529
      8          6           0       -6.508040   -3.628304   -0.185053
      9          6           0       -6.127489   -3.375448    1.293283
     10          6           0       -6.659554   -1.925503    1.538835
     11          6           0       -6.726923   -4.428808    2.310961
     12          6           0       -5.237735   -4.093692   -1.027598
     13          6           0       -4.333625   -3.005470   -1.629231
     14          1           0       -2.965900   -2.718062   -0.941990
     15          7           0       -7.941596    0.784899    2.449212
     16          6           0       -7.163720   -0.037750    3.213337
     17          6           0       -6.990817    0.539229    4.553926
     18          6           0       -7.701947    1.778180    4.556335
     19          6           0       -8.260970    1.881935    3.173480
     20          6           0       -6.205817   -0.139325    5.670219
     21          6           0       -7.630083    2.700816    5.829794
     22          8           0       -6.931957    2.333398    6.764500
     23          6           0       -8.371554    4.103338    5.843870
     24          7           0       -9.239462    2.376376    0.321939
     25          6           0       -9.466363    3.215781    1.410221
     26          6           0      -10.179086    4.602377    0.928759
     27          6           0      -10.267704    4.344751   -0.671866
     28          6           0       -9.778466    2.937668   -0.795542
     29          6           0      -11.558906    4.836452    1.611299
     30          6           0       -9.415251    5.341994   -1.568009
     31          6           0      -10.103127    6.067115   -2.735071
     32          7           0       -8.981448    0.191435   -1.512946
     33          6           0       -9.471577    1.034505   -2.477135
     34          6           0       -9.393863    0.348256   -3.784029
     35          6           0       -8.858098   -0.936204   -3.498472
     36          6           0       -8.588354   -0.934371   -2.101377
     37          6           0       -9.776556    0.891816   -5.132702
     38          6           0       -8.406736   -2.179017   -4.152326
     39          8           0       -8.509369   -2.606274   -5.311540
     40          6           0       -7.915648   -3.027061   -2.988514
     41          6           0       -8.697074   -4.200791   -2.788674
     42          8           0       -9.809581   -4.169564   -2.201596
     43          8           0       -8.047085   -5.345955   -3.290133
     44          6           0       -8.640506   -6.651496   -3.019605
     45          1           0       -6.110332   -1.808852    3.581273
     46          1           0       -9.292960    3.720303    3.446943
     47          1           0      -10.357829    2.992874   -2.818550
     48          1           0       -7.319108   -4.344895   -0.308886
     49          1           0       -5.043640   -3.265789    1.299555
     50          1           0       -5.920872   -5.040565    2.716004
     51          1           0       -7.429504   -5.032717    1.736076
     52          1           0       -7.224535   -3.936357    3.147072
     53          1           0       -5.717387   -4.613736   -1.857777
     54          1           0       -4.665760   -4.813042   -0.441076
     55          1           0       -4.865970   -2.055810   -1.692157
     56          1           0       -4.150739   -3.258200   -2.672801
     57          1           0       -5.214774    0.277231    5.850392
     58          1           0       -6.251417   -1.224518    5.577837
     59          1           0       -6.732512   -0.051667    6.620326
     60          1           0       -9.384082    3.927152    5.479972
     61          1           0       -7.816848    4.770125    5.184256
     62          1           0       -8.269066    4.649667    6.781484
     63          1           0       -9.546056    5.406430    1.302907
     64          1           0      -11.325333    4.360970   -0.936009
     65          1           0      -12.324243    4.449299    0.938962
     66          1           0      -11.714950    5.874316    1.905786
     67          1           0      -11.667830    4.342649    2.576764
     68          1           0       -8.547315    4.780704   -1.915532
     69          1           0       -9.119277    6.089009   -0.831495
     70          1           0       -9.385616    6.433503   -3.469778
     71          1           0      -10.604572    6.891833   -2.229120
     72          1           0      -10.768347    5.314757   -3.159314
     73          1           0       -9.662631    1.969996   -5.023511
     74          1           0      -10.840441    0.659653   -5.180806
     75          1           0       -9.276481    0.425988   -5.982348
     76          1           0       -6.903924   -3.268761   -3.313490
     77          1           0       -9.613358   -6.862017   -3.463913
     78          1           0       -8.729251   -6.803649   -1.943530
     79          1           0       -7.878891   -7.390748   -3.268237
     80         12           0        8.656939    0.663114   -0.084608
     81          6           0        7.439488   -2.520791    0.811368
     82          6           0        5.362172    1.607597   -0.528560
     83          6           0        9.693443    3.756787   -1.089316
     84          6           0       11.808772   -0.483991    0.054570
     85          7           0        6.605787   -0.348658    0.156121
     86          6           0        6.330559   -1.612480    0.664260
     87          6           0        4.851119   -1.752606    0.961559
     88          6           0        4.202946   -0.551887    0.180985
     89          6           0        5.447365    0.274035   -0.055681
     90          6           0        3.380234   -0.937918   -1.110286
     91          6           0        4.520737   -1.639706    2.457306
     92          6           0        3.391680   -2.550055    2.952145
     93          1           0        1.939261   -2.247960    2.489230
     94          7           0        7.681803    2.457260   -0.632140
     95          6           0        6.340571    2.564484   -0.773899
     96          6           0        6.040467    3.859531   -1.292252
     97          6           0        7.256078    4.624659   -1.354733
     98          6           0        8.258250    3.611239   -1.075974
     99          6           0        4.637098    4.280978   -1.629186
    100          6           0        7.531711    6.070386   -1.768401
    101          8           0        8.650091    6.602622   -1.593757
    102          6           0        6.498056    6.929812   -2.487435
    103          7           0       10.469863    1.526095   -0.370235
    104          6           0       10.692760    2.809354   -0.860300
    105          6           0       12.161234    3.008508   -1.051990
    106          6           0       12.923902    1.699746   -0.635168
    107          6           0       11.703691    0.850038   -0.244950
    108          6           0       12.562702    3.603855   -2.435064
    109          6           0       13.924209    1.853918    0.530924
    110          6           0       15.380196    2.057406    0.069243
    111          7           0        9.498362   -1.088196    0.283993
    112          6           0       10.838480   -1.459438    0.383902
    113          6           0       11.013609   -2.891551    0.829062
    114          6           0        9.674955   -3.296320    0.956749
    115          6           0        8.810742   -2.188836    0.679160
    116          6           0       12.324837   -3.623187    1.050830
    117          6           0        8.872078   -4.457674    1.308907
    118          8           0        9.200311   -5.607608    1.603803
    119          6           0        7.376587   -3.925581    1.337010
    120          6           0        6.580690   -4.909502    0.457106
    121          8           0        6.949217   -5.402343   -0.589066
    122          8           0        5.424618   -5.280421    1.141173
    123          6           0        4.595182   -6.223883    0.391266
    124          1           0        4.310436    1.895847   -0.581803
    125          1           0       10.135068    4.708918   -1.390009
    126          1           0       12.846670   -0.807775   -0.043870
    127          1           0        4.398016   -2.670892    0.588804
    128          1           0        3.478204    0.025702    0.754843
    129          1           0        3.246688   -2.006574   -1.280782
    130          1           0        3.785422   -0.603273   -2.064940
    131          1           0        2.358373   -0.564813   -1.041582
    132          1           0        4.256413   -0.617970    2.728893
    133          1           0        5.376908   -1.934538    3.064387
    134          1           0        3.392042   -2.645007    4.037913
    135          1           0        3.566950   -3.587165    2.666922
    136          1           0        4.292453    3.439542   -2.230460
    137          1           0        4.508467    5.169245   -2.247511
    138          1           0        3.971245    4.381439   -0.772374
    139          1           0        6.075683    6.397487   -3.339846
    140          1           0        7.091050    7.796539   -2.779035
    141          1           0        5.668365    7.181539   -1.826880
    142          1           0       12.438894    3.868407   -0.441658
    143          1           0       13.421380    1.173344   -1.450753
    144          1           0       11.654406    3.698319   -3.030587
    145          1           0       13.233029    2.905983   -2.936086
    146          1           0       12.991069    4.575703   -2.187610
    147          1           0       13.760628    1.016946    1.209400
    148          1           0       13.742696    2.779545    1.077592
    149          1           0       15.392790    2.469231   -0.940077
    150          1           0       15.989759    1.159610   -0.034886
    151          1           0       15.839043    2.797577    0.725434
    152          1           0       12.764034   -3.224729    1.965569
    153          1           0       13.074455   -3.494382    0.270323
    154          1           0       12.057735   -4.672724    1.173212
    155          1           0        6.911126   -3.877052    2.321255
    156          1           0        3.852317   -5.762701   -0.260250
    157          1           0        4.131699   -6.832596    1.167511
    158          1           0        5.071504   -6.913722   -0.305379
 ---------------------------------------------------------------------

 SCF Done:  E(RCAM-B3LYP) =  -4069.83345923     A.U. after   17 cycles

 Excitation energies and oscillator strengths:

 Excited State   1:      Singlet-A      1.7016 eV  728.65 nm  f=0.3633  <S**2>=0.000
     310 -> 316       -0.18640
     311 -> 313        0.68363
     310 <- 316       -0.10948
 This state for optimization and/or second-order correction.
 Total Energy, E(TD-HF/TD-DFT) =  -4069.77092779
 Copying the excited state density for this state as the 1-particle RhoCI density.

 Excited State   2:      Singlet-A      1.7180 eV  721.68 nm  f=0.3736  <S**2>=0.000
     309 -> 315       -0.18149
     312 -> 314        0.68482
     309 <- 315       -0.10792

 Excited State   3:      Singlet-A      2.2324 eV  555.39 nm  f=0.1015  <S**2>=0.000
     310 -> 313        0.63574
     311 -> 316        0.29926

 Excited State   4:      Singlet-A      2.3104 eV  536.63 nm  f=0.0710  <S**2>=0.000
     309 -> 314        0.61619
     312 -> 315        0.33596

 Excited State   5:      Singlet-A      2.8391 eV  436.69 nm  f=0.0000  <S**2>=0.000
     312 -> 313        0.70702

 The electronic state is 1-A.
 Alpha  occ. eigenvalues --  -46.89127 -46.87613 -19.25963 -19.25761 -19.20411
 Alpha  occ. eigenvalues --  -19.20399 -19.19799 -19.19383 -19.19172 -19.19071
 Alpha  occ. eigenvalues --  -14.42844 -14.42639 -14.42280 -14.41241 -14.40158
 Alpha  occ. eigenvalues --  -14.39860 -14.39514 -14.39445 -10.40200 -10.39673
 Alpha  occ. eigenvalues --  -10.36677 -10.35812 -10.35541 -10.35054 -10.32268
 Alpha  occ. eigenvalues --  -10.32073 -10.31554 -10.31492 -10.31403 -10.31132
 Alpha  occ. eigenvalues --  -10.30838 -10.30833 -10.30791 -10.30712 -10.30695
 Alpha  occ. eigenvalues --  -10.30290 -10.30286 -10.30240 -10.30040 -10.29550
 Alpha  occ. eigenvalues --  -10.29482 -10.29319 -10.29186 -10.29097 -10.28710
 Alpha  occ. eigenvalues --  -10.28704 -10.28681 -10.28678 -10.28582 -10.28565
 Alpha  occ. eigenvalues --  -10.28537 -10.28528 -10.28506 -10.28490 -10.28344
 Alpha  occ. eigenvalues --  -10.28226 -10.27958 -10.27944 -10.27824 -10.27663
 Alpha  occ. eigenvalues --  -10.27648 -10.27511 -10.27356 -10.27345 -10.27314
 Alpha  occ. eigenvalues --  -10.27172 -10.27027 -10.26995 -10.26990 -10.26926
 Alpha  occ. eigenvalues --  -10.26854 -10.26760 -10.26748 -10.26542 -10.26390
 Alpha  occ. eigenvalues --  -10.26376 -10.26307 -10.26232 -10.26041 -10.25974
 Alpha  occ. eigenvalues --  -10.25955 -10.25661 -10.25649 -10.25632 -10.25535
 Alpha  occ. eigenvalues --  -10.25369  -3.17753  -3.16396  -1.92611  -1.92224
 Alpha  occ. eigenvalues --   -1.92057  -1.91293  -1.90827  -1.90740  -1.16295
 Alpha  occ. eigenvalues --   -1.15144  -1.10599  -1.09245  -1.09209  -1.08895
 Alpha  occ. eigenvalues --   -1.08165  -1.07196  -1.04679  -1.04345  -1.03746
 Alpha  occ. eigenvalues --   -1.03632  -1.03040  -1.02812  -1.02084  -1.01423
 Alpha  occ. eigenvalues --   -0.93331  -0.92545  -0.89401  -0.89357  -0.89077
 Alpha  occ. eigenvalues --   -0.88988  -0.88263  -0.88240  -0.87449  -0.87004
 Alpha  occ. eigenvalues --   -0.86977  -0.86273  -0.86114  -0.85756  -0.84723
 Alpha  occ. eigenvalues --   -0.84381  -0.84101  -0.83522  -0.83009  -0.82274
 Alpha  occ. eigenvalues --   -0.81858  -0.81696  -0.81193  -0.80965  -0.80287
 Alpha  occ. eigenvalues --   -0.80061  -0.78419  -0.78348  -0.77438  -0.77418
 Alpha  occ. eigenvalues --   -0.77258  -0.76980  -0.76700  -0.76127  -0.75096
 Alpha  occ. eigenvalues --   -0.75029  -0.72649  -0.72528  -0.71949  -0.71630
 Alpha  occ. eigenvalues --   -0.69524  -0.69354  -0.69105  -0.68791  -0.68629
 Alpha  occ. eigenvalues --   -0.68162  -0.67287  -0.67013  -0.65965  -0.65757
 Alpha  occ. eigenvalues --   -0.65476  -0.65389  -0.64778  -0.64459  -0.64406
 Alpha  occ. eigenvalues --   -0.64142  -0.62625  -0.62562  -0.60423  -0.60340
 Alpha  occ. eigenvalues --   -0.60118  -0.59811  -0.59258  -0.58906  -0.58847
 Alpha  occ. eigenvalues --   -0.58470  -0.57946  -0.57731  -0.57469  -0.57379
 Alpha  occ. eigenvalues --   -0.56340  -0.55986  -0.55789  -0.55423  -0.55160
 Alpha  occ. eigenvalues --   -0.55092  -0.54689  -0.54612  -0.54384  -0.53948
 Alpha  occ. eigenvalues --   -0.53773  -0.53471  -0.53267  -0.53106  -0.52850
 Alpha  occ. eigenvalues --   -0.52795  -0.52540  -0.52529  -0.52317  -0.52119
 Alpha  occ. eigenvalues --   -0.51825  -0.51791  -0.51720  -0.51376  -0.51200
 Alpha  occ. eigenvalues --   -0.51133  -0.50901  -0.50491  -0.50463  -0.50179
 Alpha  occ. eigenvalues --   -0.50169  -0.50012  -0.49766  -0.49562  -0.49530
 Alpha  occ. eigenvalues --   -0.49455  -0.49343  -0.49151  -0.49042  -0.48873
 Alpha  occ. eigenvalues --   -0.48757  -0.48548  -0.48467  -0.48330  -0.48214
 Alpha  occ. eigenvalues --   -0.48054  -0.47587  -0.47551  -0.47394  -0.47373
 Alpha  occ. eigenvalues --   -0.46818  -0.46812  -0.46638  -0.46633  -0.46503
 Alpha  occ. eigenvalues --   -0.46424  -0.46362  -0.46251  -0.45972  -0.45874
 Alpha  occ. eigenvalues --   -0.45593  -0.45489  -0.45162  -0.44987  -0.44892
 Alpha  occ. eigenvalues --   -0.44804  -0.44742  -0.44595  -0.44502  -0.44379
 Alpha  occ. eigenvalues --   -0.44326  -0.44316  -0.44113  -0.43568  -0.43470
 Alpha  occ. eigenvalues --   -0.43442  -0.43212  -0.43175  -0.43122  -0.42982
 Alpha  occ. eigenvalues --   -0.42860  -0.42658  -0.42583  -0.42441  -0.42333
 Alpha  occ. eigenvalues --   -0.42281  -0.41907  -0.41755  -0.41721  -0.41574
 Alpha  occ. eigenvalues --   -0.41257  -0.41204  -0.41023  -0.40802  -0.40467
 Alpha  occ. eigenvalues --   -0.40420  -0.40215  -0.40041  -0.39887  -0.39661
 Alpha  occ. eigenvalues --   -0.39158  -0.38682  -0.38280  -0.37906  -0.37886
 Alpha  occ. eigenvalues --   -0.37715  -0.37272  -0.37256  -0.37220  -0.36861
 Alpha  occ. eigenvalues --   -0.36825  -0.36610  -0.35126  -0.34949  -0.34940
 Alpha  occ. eigenvalues --   -0.34579  -0.33392  -0.32823  -0.31597  -0.31489
 Alpha  occ. eigenvalues --   -0.31387  -0.31167  -0.30945  -0.30917  -0.30526
 Alpha  occ. eigenvalues --   -0.30454  -0.29965  -0.29791  -0.24335  -0.23919
 Alpha  occ. eigenvalues --   -0.21045  -0.21024
 Alpha virt. eigenvalues --   -0.08540  -0.08377  -0.01999  -0.01748   0.00027
 Alpha virt. eigenvalues --    0.00089   0.01474   0.01776   0.01867   0.03259
 Alpha virt. eigenvalues --    0.03771   0.04740   0.04782   0.04981   0.05051

 Mulliken charges:
               1
     1  Mg  12.000324
     2  C    5.999445
     3  C    6.000529
     4  C    6.001020
     5  C    5.999695
     6  N    6.999928
     7  C    6.001096
     8  C    5.999766
     9  C    6.000257
    10  C    5.999191
    11  C    6.000277
    12  C    6.000127
    13  C    5.999581
    14  H    1.001041
    15  N    7.000328
    16  C    5.998910
    17  C    5.999530
    18  C    5.999829
    19  C    5.998886
    20  C    6.000303
    21  C    5.999846
    22  O    7.999425
    23  C    5.999872
    24  N    7.000190
    25  C    5.999051
    26  C    6.000303
    27  C    5.999480
    28  C    6.001134
    29  C    6.000126
    30  C    5.999769
    31  C    5.999915
    32  N    6.999851
    33  C    6.001349
    34  C    6.000954
    35  C    6.000071
    36  C    6.001004
    37  C    5.999942
    38  C    6.000693
    39  O    8.000538
    40  C    5.999755
    41  C    6.000056
    42  O    8.000018
    43  O    8.000035
    44  C    6.000153
    45  H    0.999140
    46  H    0.999928
    47  H    1.000338
    48  H    0.999608
    49  H    0.999745
    50  H    0.998993
    51  H    0.999359
    52  H    1.000096
    53  H    0.999489
    54  H    0.999199
    55  H    1.000664
    56  H    0.999937
    57  H    0.999676
    58  H    0.998933
    59  H    0.999158
    60  H    0.999513
    61  H    1.000377
    62  H    0.999596
    63  H    1.000474
    64  H    0.999821
    65  H    0.999484
    66  H    0.999927
    67  H    0.999871
    68  H    1.000612
    69  H    1.000791
    70  H    1.000624
    71  H    1.000040
    72  H    0.999495
    73  H    1.000866
    74  H    1.000210
    75  H    1.000544
    76  H    1.000346
    77  H    0.999911
    78  H    0.999950
    79  H    0.999690
    80  Mg  11.999957
    81  C    5.977618
    82  C    6.018695
    83  C    6.024358
    84  C    5.983934
    85  N    6.994775
    86  C    6.034322
    87  C    5.990249
    88  C    6.011660
    89  C    5.963779
    90  C    6.003557
    91  C    5.996173
    92  C    5.998655
    93  H    1.010241
    94  N    7.008808
    95  C    5.955786
    96  C    5.976417
    97  C    5.984828
    98  C    5.963337
    99  C    6.003684
   100  C    5.989167
   101  O    7.973010
   102  C    6.003996
   103  N    7.006112
   104  C    5.963244
   105  C    6.010771
   106  C    5.987085
   107  C    6.033424
   108  C    6.002129
   109  C    5.995909
   110  C    5.999519
   111  N    6.996933
   112  C    6.041847
   113  C    6.032200
   114  C    6.000712
   115  C    6.035677
   116  C    5.999245
   117  C    6.014943
   118  O    8.030465
   119  C    6.001217
   120  C    6.006035
   121  O    8.002294
   122  O    8.002314
   123  C    5.997026
   124  H    0.990471
   125  H    0.993944
   126  H    1.009757
   127  H    1.000907
   128  H    0.998624
   129  H    0.985441
   130  H    1.000693
   131  H    0.997246
   132  H    1.012936
   133  H    0.992886
   134  H    1.000581
   135  H    0.995865
   136  H    0.983092
   137  H    0.983088
   138  H    0.977411
   139  H    0.993184
   140  H    0.986331
   141  H    0.992111
   142  H    0.998363
   143  H    1.001613
   144  H    1.005065
   145  H    0.988440
   146  H    0.998154
   147  H    0.993914
   148  H    1.010968
   149  H    1.006626
   150  H    0.998230
   151  H    1.004548
   152  H    1.019500
   153  H    1.019581
   154  H    1.013089
   155  H    1.008160
   156  H    1.007478
   157  H    1.003819
   158  H    1.001776
 Sum of Mulliken charges = 624.00000

 Dipole moment (field-independent basis, Debye):
    X=              4.7397    Y=             -9.0988    Z=              2.7140  Tot=             10.6121
 Quadrupole moment (field-independent basis, Debye-Ang):
   XX=             84.0541   YY=            -10.4505   ZZ=             -1.6614
   XY=            -74.3506   XZ=             26.2525   YZ=              3.9285

 Normal termination of Gaussian 16 at Wed Sep 22 16:40:12 2021.
