 Gaussian 16, Revision A.03,
 Gaussian 16:  ES64L-G16RevA.03 25-Dec-2016

 -----------------------------------
 #p cam-b3lyp/Def2SVP td=(nstates=5)
 -----------------------------------

 --------------------------------
 TDDFT excited states in gaussian
 --------------------------------
 Symbolic Z-matrix:
 Charge =  0 Multiplicity = 1

                         Standard orientation:
 ---------------------------------------------------------------------
 Center     Atomic      Atomic             Coordinates (Angstroms)
 Number     Number       Type             X           Y           Z
 ---------------------------------------------------------------------
      1         12           0      -15.029299    0.253386   -0.107331
      2          6           0      -11.905345    1.437020   -0.984458
      3          6           0      -14.933863   -1.777668   -2.885106
      4          6           0      -17.831306   -1.351093    1.064680
      5          6           0      -14.998601    2.231461    2.710021
      6          7           0      -13.519666   -0.269875   -1.618234
      7          6           0      -12.336530    0.418794   -1.799920
      8          6           0      -11.574839   -0.073003   -3.027835
      9          6           0      -12.709907   -0.844992   -3.798405
     10          6           0      -13.749382   -1.010811   -2.699503
     11          6           0      -13.239852   -0.202491   -5.159499
     12          6           0      -10.274032   -0.893888   -2.755818
     13          6           0       -9.072750   -0.520873   -3.598639
     14          1           0       -8.714934   -1.608203   -4.599881
     15          7           0      -16.167099   -1.331214   -0.823194
     16          6           0      -15.990147   -2.001221   -1.967514
     17          6           0      -17.061185   -2.960523   -2.174486
     18          6           0      -17.944506   -2.931296   -1.108254
     19          6           0      -17.323342   -1.884344   -0.188263
     20          6           0      -17.097098   -3.955552   -3.430152
     21          6           0      -19.280025   -3.736440   -0.964646
     22          8           0      -19.579606   -4.576468   -1.859752
     23          6           0      -20.169168   -3.577956    0.208779
     24          7           0      -16.163873    0.242204    1.819120
     25          6           0      -17.325663   -0.351694    1.967133
     26          6           0      -18.122453    0.197392    3.132064
     27          6           0      -17.239197    1.310237    3.791620
     28          6           0      -16.073246    1.353614    2.691736
     29          6           0      -19.649247    0.484394    2.968550
     30          6           0      -16.672014    1.121817    5.228515
     31          6           0      -16.214094    2.420815    5.858834
     32          7           0      -13.692989    1.588322    0.730728
     33          6           0      -13.847678    2.410771    1.870601
     34          6           0      -12.716069    3.295142    1.932285
     35          6           0      -11.912194    2.990118    0.806913
     36          6           0      -12.555303    1.930370    0.173412
     37          6           0      -12.552049    4.493946    2.854672
     38          6           0      -10.759868    3.378238    0.158361
     39          8           0       -9.858247    4.136108    0.392408
     40          6           0      -10.600501    2.264713   -1.002437
     41          6           0       -9.547514    1.306186   -0.448367
     42          8           0       -9.748523    0.422996    0.362898
     43          8           0       -8.341566    1.657850   -1.032993
     44          6           0       -7.167564    0.932798   -0.557956
     45          1           0      -15.056692   -2.292564   -3.840054
     46          1           0      -18.727989   -1.893774    1.370119
     47          1           0      -14.918241    3.006910    3.474644
     48          1           0      -11.331813    0.801107   -3.631268
     49          1           0      -12.360428   -1.871227   -3.917280
     50          1           0      -14.236101   -0.638568   -5.232335
     51          1           0      -12.743406   -0.577124   -6.054993
     52          1           0      -13.256238    0.885806   -5.216555
     53          1           0      -10.579467   -1.917949   -2.971506
     54          1           0       -9.984142   -1.029899   -1.714118
     55          1           0       -8.243820   -0.335471   -2.915176
     56          1           0       -9.238049    0.383654   -4.184299
     57          1           0      -16.241923   -3.885167   -4.103652
     58          1           0      -18.001533   -3.796462   -4.018290
     59          1           0      -17.021169   -5.004405   -3.146739
     60          1           0      -20.503855   -2.543159    0.274232
     61          1           0      -19.728339   -4.008247    1.108108
     62          1           0      -21.092582   -4.068723   -0.096205
     63          1           0      -18.181900   -0.449894    4.007286
     64          1           0      -17.637831    2.311587    3.627162
     65          1           0      -19.943359    0.006082    2.033286
     66          1           0      -19.911593    1.539480    3.054552
     67          1           0      -20.276074    0.018775    3.729204
     68          1           0      -15.886668    0.370744    5.144609
     69          1           0      -17.482845    0.638885    5.773789
     70          1           0      -16.369345    2.334835    6.934580
     71          1           0      -16.745537    3.313616    5.527200
     72          1           0      -15.133033    2.506182    5.748447
     73          1           0      -11.714464    5.140744    2.593357
     74          1           0      -12.455009    4.115465    3.871411
     75          1           0      -13.443631    5.121076    2.850382
     76          1           0      -10.400499    2.725175   -1.970436
     77          1           0       -6.989826    1.176420    0.489628
     78          1           0       -6.291699    1.130553   -1.174952
     79          1           0       -7.371416   -0.137453   -0.575650
     80         12           0       14.354629   -1.041605   -0.095667
     81          6           0       14.639829    2.427031   -0.721907
     82          6           0       10.972717   -0.746779   -0.548239
     83          6           0       14.021132   -4.104615    1.118651
     84          6           0       17.737788   -1.057947    0.801790
     85          7           0       12.947354    0.690870   -0.421639
     86          6           0       13.335049    1.990913   -0.756782
     87          6           0       12.125719    2.770697   -1.329233
     88          6           0       10.951576    1.728413   -1.242796
     89          6           0       11.634016    0.426363   -0.739383
     90          6           0        9.671122    2.181524   -0.563361
     91          6           0       12.297019    3.366829   -2.735125
     92          6           0       12.018872    4.893275   -2.810503
     93          1           0       10.967631    5.314078   -3.813394
     94          7           0       12.703239   -2.273238    0.149701
     95          6           0       11.384064   -1.990271   -0.050623
     96          6           0       10.643152   -3.218905    0.108405
     97          6           0       11.518225   -4.195844    0.750654
     98          6           0       12.793534   -3.497610    0.698808
     99          6           0        9.044516   -3.303110   -0.110232
    100          6           0       11.228953   -5.401971    1.536023
    101          8           0       12.017180   -6.158414    2.027699
    102          6           0        9.751958   -5.713278    1.758722
    103          7           0       15.687038   -2.315917    1.032318
    104          6           0       15.307925   -3.566686    1.359502
    105          6           0       16.513463   -4.399592    1.801391
    106          6           0       17.704548   -3.537632    1.352982
    107          6           0       17.034758   -2.228796    0.998444
    108          6           0       16.504492   -4.647479    3.379396
    109          6           0       18.353274   -4.207340    0.036861
    110          6           0       17.521495   -4.072225   -1.267790
    111          7           0       15.980734    0.312970   -0.065016
    112          6           0       17.261390    0.150428    0.304719
    113          6           0       17.942604    1.404390    0.125677
    114          6           0       16.978034    2.291112   -0.314730
    115          6           0       15.756379    1.614113   -0.363920
    116          6           0       19.397814    1.748367    0.380281
    117          6           0       16.822029    3.706386   -0.661084
    118          8           0       17.475636    4.711182   -0.648961
    119          6           0       15.317654    3.840529   -1.016412
    120          6           0       14.780838    4.869519   -0.091548
    121          8           0       14.905920    4.768052    1.103029
    122          8           0       14.223806    5.959704   -0.740497
    123          6           0       13.934602    7.163970    0.107944
    124          1           0        9.939470   -0.685279   -0.896547
    125          1           0       13.989643   -5.154475    1.418714
    126          1           0       18.827908   -1.018213    0.852505
    127          1           0       11.859824    3.563023   -0.629196
    128          1           0       10.578099    1.562017   -2.253395
    129          1           0        9.836732    3.079176    0.030532
    130          1           0        9.208705    1.414756    0.058712
    131          1           0        9.002070    2.487371   -1.367285
    132          1           0       11.659551    2.986870   -3.533495
    133          1           0       13.305331    3.189558   -3.108581
    134          1           0       12.942414    5.463026   -2.912728
    135          1           0       11.599929    5.196234   -1.851762
    136          1           0        8.840259   -4.171923   -0.735868
    137          1           0        8.585313   -2.468471   -0.638608
    138          1           0        8.397097   -3.338612    0.765915
    139          1           0        9.375474   -5.871999    0.747922
    140          1           0        9.346246   -4.812435    2.218051
    141          1           0        9.558152   -6.628924    2.318268
    142          1           0       16.604065   -5.349624    1.273696
    143          1           0       18.495133   -3.280434    2.058261
    144          1           0       17.014476   -5.595603    3.551936
    145          1           0       15.544242   -4.730761    3.889523
    146          1           0       17.105574   -3.829804    3.776849
    147          1           0       18.598834   -5.259953    0.176232
    148          1           0       19.240805   -3.646289   -0.256057
    149          1           0       17.872314   -4.666957   -2.110524
    150          1           0       17.562975   -3.026964   -1.574491
    151          1           0       16.488906   -4.325607   -1.025463
    152          1           0       20.104743    1.201999   -0.243673
    153          1           0       19.551157    1.452950    1.417891
    154          1           0       19.589476    2.820779    0.344686
    155          1           0       15.337480    4.238549   -2.030793
    156          1           0       12.945884    7.405457   -0.282209
    157          1           0       14.616283    7.993136   -0.080607
    158          1           0       13.915245    7.079665    1.194219
 ---------------------------------------------------------------------

 SCF Done:  E(RCAM-B3LYP) =  -4069.81922882     A.U. after   19 cycles

 Excitation energies and oscillator strengths:

 Excited State   1:      Singlet-A      1.7036 eV  727.76 nm  f=0.4085  <S**2>=0.000
     309 -> 316       -0.17555
     311 -> 313        0.68731
     309 <- 316       -0.10762
 This state for optimization and/or second-order correction.
 Total Energy, E(TD-HF/TD-DFT) =  -4069.75662144
 Copying the excited state density for this state as the 1-particle RhoCI density.

 Excited State   2:      Singlet-A      1.8655 eV  664.63 nm  f=0.3692  <S**2>=0.000
     310 -> 315       -0.14292
     312 -> 314        0.68807

 Excited State   3:      Singlet-A      2.1917 eV  565.69 nm  f=0.1396  <S**2>=0.000
     309 -> 313        0.65683
     311 -> 316        0.24833

 Excited State   4:      Singlet-A      2.2640 eV  547.64 nm  f=0.1278  <S**2>=0.000
     310 -> 314        0.64668
     312 -> 315        0.24693
     312 -> 317       -0.10329

 Excited State   5:      Singlet-A      3.0436 eV  407.35 nm  f=0.0000  <S**2>=0.000
     312 -> 313        0.70707

 The electronic state is 1-A.
 Alpha  occ. eigenvalues --  -46.89511 -46.89445 -19.25103 -19.24587 -19.20263
 Alpha  occ. eigenvalues --  -19.19935 -19.19573 -19.19241 -19.18368 -19.17769
 Alpha  occ. eigenvalues --  -14.42354 -14.42094 -14.42078 -14.41890 -14.40595
 Alpha  occ. eigenvalues --  -14.39739 -14.39198 -14.38534 -10.39150 -10.38756
 Alpha  occ. eigenvalues --  -10.37068 -10.35122 -10.34343 -10.33451 -10.33119
 Alpha  occ. eigenvalues --  -10.32460 -10.31768 -10.31765 -10.31492 -10.31223
 Alpha  occ. eigenvalues --  -10.31126 -10.30744 -10.30724 -10.30723 -10.30396
 Alpha  occ. eigenvalues --  -10.30209 -10.29930 -10.29852 -10.29838 -10.29595
 Alpha  occ. eigenvalues --  -10.29320 -10.29207 -10.29127 -10.28643 -10.28466
 Alpha  occ. eigenvalues --  -10.28434 -10.28383 -10.28367 -10.28152 -10.28103
 Alpha  occ. eigenvalues --  -10.28101 -10.27990 -10.27983 -10.27970 -10.27864
 Alpha  occ. eigenvalues --  -10.27733 -10.27571 -10.27467 -10.27458 -10.27357
 Alpha  occ. eigenvalues --  -10.27280 -10.27245 -10.27205 -10.27006 -10.26999
 Alpha  occ. eigenvalues --  -10.26982 -10.26956 -10.26954 -10.26893 -10.26824
 Alpha  occ. eigenvalues --  -10.26798 -10.26616 -10.26519 -10.26493 -10.26470
 Alpha  occ. eigenvalues --  -10.26241 -10.26145 -10.26004 -10.25937 -10.25907
 Alpha  occ. eigenvalues --  -10.25835 -10.25585 -10.25338 -10.25029 -10.25010
 Alpha  occ. eigenvalues --  -10.23148  -3.17914  -3.17884  -1.92797  -1.92767
 Alpha  occ. eigenvalues --   -1.92383  -1.92345  -1.92207  -1.92187  -1.15650
 Alpha  occ. eigenvalues --   -1.15527  -1.11637  -1.11036  -1.09853  -1.09183
 Alpha  occ. eigenvalues --   -1.07971  -1.07583  -1.05155  -1.04632  -1.04258
 Alpha  occ. eigenvalues --   -1.03884  -1.03802  -1.03238  -1.02594  -1.01963
 Alpha  occ. eigenvalues --   -0.92327  -0.91612  -0.89219  -0.88850  -0.88772
 Alpha  occ. eigenvalues --   -0.88551  -0.88187  -0.88013  -0.87709  -0.87101
 Alpha  occ. eigenvalues --   -0.86675  -0.86512  -0.86298  -0.85869  -0.84548
 Alpha  occ. eigenvalues --   -0.84375  -0.83674  -0.83467  -0.83255  -0.82474
 Alpha  occ. eigenvalues --   -0.82112  -0.81177  -0.80829  -0.80757  -0.80277
 Alpha  occ. eigenvalues --   -0.80134  -0.78346  -0.77686  -0.77388  -0.77203
 Alpha  occ. eigenvalues --   -0.76794  -0.76728  -0.76130  -0.75384  -0.75190
 Alpha  occ. eigenvalues --   -0.75188  -0.73071  -0.72438  -0.71742  -0.71732
 Alpha  occ. eigenvalues --   -0.69764  -0.69340  -0.69164  -0.69162  -0.68042
 Alpha  occ. eigenvalues --   -0.67959  -0.67404  -0.67263  -0.65666  -0.65519
 Alpha  occ. eigenvalues --   -0.65449  -0.65291  -0.65124  -0.64725  -0.64407
 Alpha  occ. eigenvalues --   -0.64095  -0.62242  -0.61761  -0.60380  -0.60014
 Alpha  occ. eigenvalues --   -0.59686  -0.59521  -0.59251  -0.59075  -0.58718
 Alpha  occ. eigenvalues --   -0.58507  -0.58092  -0.57896  -0.57504  -0.57441
 Alpha  occ. eigenvalues --   -0.56482  -0.55953  -0.55539  -0.55335  -0.55196
 Alpha  occ. eigenvalues --   -0.55095  -0.54544  -0.54231  -0.54161  -0.53963
 Alpha  occ. eigenvalues --   -0.53783  -0.53395  -0.53388  -0.53210  -0.52908
 Alpha  occ. eigenvalues --   -0.52759  -0.52638  -0.52414  -0.52094  -0.52053
 Alpha  occ. eigenvalues --   -0.51851  -0.51626  -0.51461  -0.51229  -0.51075
 Alpha  occ. eigenvalues --   -0.50860  -0.50724  -0.50578  -0.50204  -0.50057
 Alpha  occ. eigenvalues --   -0.49997  -0.49858  -0.49762  -0.49500  -0.49473
 Alpha  occ. eigenvalues --   -0.49346  -0.49288  -0.49077  -0.49002  -0.48758
 Alpha  occ. eigenvalues --   -0.48597  -0.48370  -0.48258  -0.48256  -0.47905
 Alpha  occ. eigenvalues --   -0.47624  -0.47543  -0.47437  -0.47413  -0.47219
 Alpha  occ. eigenvalues --   -0.46976  -0.46597  -0.46395  -0.46239  -0.46180
 Alpha  occ. eigenvalues --   -0.46101  -0.46067  -0.46006  -0.45857  -0.45565
 Alpha  occ. eigenvalues --   -0.45277  -0.45266  -0.45238  -0.45096  -0.45066
 Alpha  occ. eigenvalues --   -0.44925  -0.44720  -0.44484  -0.44320  -0.44022
 Alpha  occ. eigenvalues --   -0.43997  -0.43656  -0.43641  -0.43449  -0.43352
 Alpha  occ. eigenvalues --   -0.43296  -0.43129  -0.43021  -0.42862  -0.42749
 Alpha  occ. eigenvalues --   -0.42600  -0.42519  -0.42404  -0.42278  -0.42232
 Alpha  occ. eigenvalues --   -0.42086  -0.42036  -0.41957  -0.41659  -0.41427
 Alpha  occ. eigenvalues --   -0.41342  -0.40888  -0.40821  -0.40449  -0.40286
 Alpha  occ. eigenvalues --   -0.40197  -0.39917  -0.39694  -0.39310  -0.39056
 Alpha  occ. eigenvalues --   -0.39031  -0.38287  -0.38105  -0.38031  -0.37802
 Alpha  occ. eigenvalues --   -0.37393  -0.36989  -0.36538  -0.36380  -0.36327
 Alpha  occ. eigenvalues --   -0.36198  -0.35389  -0.34470  -0.34369  -0.34349
 Alpha  occ. eigenvalues --   -0.34045  -0.33364  -0.33123  -0.32481  -0.31923
 Alpha  occ. eigenvalues --   -0.31585  -0.31187  -0.30903  -0.30358  -0.30269
 Alpha  occ. eigenvalues --   -0.30119  -0.29711  -0.29147  -0.24145  -0.24112
 Alpha  occ. eigenvalues --   -0.21548  -0.21530
 Alpha virt. eigenvalues --   -0.09140  -0.08494  -0.01833  -0.01397   0.00071
 Alpha virt. eigenvalues --    0.00591   0.01718   0.01762   0.01948   0.02543
 Alpha virt. eigenvalues --    0.05121   0.05345   0.05708   0.05779   0.06324

 Mulliken charges:
               1
     1  Mg   0.828962
     2  C   -0.030312
     3  C   -0.118229
     4  C   -0.095945
     5  C   -0.030454
     6  N   -0.261089
     7  C   -0.046064
     8  C   -0.037706
     9  C   -0.022701
    10  C    0.032232
    11  C    0.082823
    12  C    0.069536
    13  C   -0.053034
    14  H    0.008336
    15  N   -0.381659
    16  C    0.167575
    17  C   -0.137045
    18  C   -0.024623
    19  C    0.115521
    20  C    0.116992
    21  C    0.007388
    22  O   -0.226512
    23  C    0.070445
    24  N   -0.264386
    25  C    0.101605
    26  C   -0.027403
    27  C   -0.054082
    28  C    0.007689
    29  C    0.065005
    30  C    0.060279
    31  C    0.025622
    32  N   -0.347621
    33  C    0.034470
    34  C   -0.140321
    35  C    0.052321
    36  C    0.114928
    37  C    0.104359
    38  C   -0.012333
    39  O   -0.157429
    40  C   -0.046290
    41  C    0.232161
    42  O   -0.211914
    43  O   -0.335460
    44  C    0.185578
    45  H   -0.026010
    46  H   -0.042644
    47  H   -0.041062
    48  H   -0.000749
    49  H    0.006086
    50  H    0.004996
    51  H    0.021573
    52  H    0.031786
    53  H   -0.003999
    54  H    0.028888
    55  H    0.025503
    56  H    0.027214
    57  H   -0.002871
    58  H    0.041132
    59  H    0.035909
    60  H    0.040822
    61  H    0.068760
    62  H    0.028267
    63  H    0.010288
    64  H    0.006720
    65  H    0.011348
    66  H    0.019415
    67  H    0.007000
    68  H    0.016822
    69  H    0.001412
    70  H    0.007851
    71  H    0.022132
    72  H    0.031298
    73  H    0.034159
    74  H    0.016172
    75  H    0.019465
    76  H    0.024786
    77  H    0.038228
    78  H    0.041387
    79  H    0.026703
    80  Mg   0.813067
    81  C   -0.023611
    82  C   -0.077206
    83  C   -0.062079
    84  C   -0.064362
    85  N   -0.302456
    86  C   -0.035104
    87  C    0.006913
    88  C   -0.058643
    89  C    0.050750
    90  C    0.068849
    91  C    0.056703
    92  C   -0.088746
    93  H    0.008453
    94  N   -0.363098
    95  C    0.161228
    96  C   -0.116991
    97  C   -0.041688
    98  C    0.130686
    99  C    0.062490
   100  C   -0.022264
   101  O   -0.176384
   102  C    0.054572
   103  N   -0.263245
   104  C    0.030087
   105  C   -0.035220
   106  C   -0.014411
   107  C    0.032467
   108  C    0.066539
   109  C    0.004416
   110  C   -0.014658
   111  N   -0.320757
   112  C    0.065138
   113  C   -0.162637
   114  C   -0.035092
   115  C    0.140024
   116  C    0.116965
   117  C    0.069067
   118  O   -0.136719
   119  C    0.003828
   120  C    0.181228
   121  O   -0.201511
   122  O   -0.351208
   123  C    0.165197
   124  H   -0.034007
   125  H   -0.001022
   126  H   -0.031266
   127  H    0.018698
   128  H    0.008119
   129  H    0.008687
   130  H    0.022511
   131  H    0.009462
   132  H    0.019143
   133  H    0.009060
   134  H    0.046061
   135  H    0.015738
   136  H    0.027137
   137  H    0.003960
   138  H    0.033409
   139  H    0.021837
   140  H    0.036921
   141  H    0.022608
   142  H    0.016531
   143  H    0.012797
   144  H    0.017287
   145  H    0.035585
   146  H    0.016222
   147  H    0.020135
   148  H    0.002026
   149  H    0.023597
   150  H    0.021716
   151  H    0.021082
   152  H    0.029056
   153  H    0.019728
   154  H    0.036329
   155  H    0.033820
   156  H    0.035995
   157  H    0.044006
   158  H    0.056454
 Sum of Mulliken charges =  -0.00000

 Dipole moment (field-independent basis, Debye):
    X=             -6.0773    Y=             -1.7004    Z=             -2.1909  Tot=              6.6802
 Quadrupole moment (field-independent basis, Debye-Ang):
   XX=           -420.9509   YY=           -546.4218   ZZ=           -494.7706
   XY=            -55.3985   XZ=            -57.9107   YZ=              4.0623

 Normal termination of Gaussian 16 at Wed Sep  1 18:30:12 2021.
