 Gaussian 16, Revision A.03,
 Gaussian 16:  ES64L-G16RevA.03 25-Dec-2016

 ----------------------------------------------------------
 #p cam-b3lyp/Def2SVP td=(nstates=5) density=(transition=1)
 ----------------------------------------------------------

 --------------------------------
 TDDFT excited states in gaussian
 --------------------------------
 Symbolic Z-matrix:
 Charge =  0 Multiplicity = 1

                         Standard orientation:
 ---------------------------------------------------------------------
 Center     Atomic      Atomic             Coordinates (Angstroms)
 Number     Number       Type             X           Y           Z
 ---------------------------------------------------------------------
      1         12           0       20.221419    0.382043    0.426310
      2          6           0       17.911719   -1.538977   -1.318643
      3          6           0       20.954297    1.891427   -2.609201
      4          6           0       22.827214    1.903002    1.995627
      5          6           0       19.457661   -1.371086    3.307127
      6          7           0       19.545714    0.151291   -1.727615
      7          6           0       18.550468   -0.679855   -2.218832
      8          6           0       18.374907   -0.606849   -3.786544
      9          6           0       19.621307    0.288022   -4.154470
     10          6           0       20.116715    0.795186   -2.750119
     11          6           0       20.811622   -0.292515   -4.923645
     12          6           0       16.992672   -0.039779   -4.158686
     13          6           0       15.982456   -1.006299   -4.718560
     14          1           0       15.056476   -0.476575   -5.827848
     15          7           0       21.577541    1.851520   -0.121596
     16          6           0       21.628815    2.358419   -1.382589
     17          6           0       22.728775    3.342389   -1.365725
     18          6           0       23.350368    3.303555   -0.107829
     19          6           0       22.620884    2.370422    0.659607
     20          6           0       22.950711    4.251535   -2.505718
     21          6           0       24.560106    4.034391    0.396503
     22          8           0       24.950569    3.988889    1.596120
     23          6           0       25.413959    4.828642   -0.429672
     24          7           0       20.959905    0.345883    2.341560
     25          6           0       22.024947    1.076758    2.770574
     26          6           0       22.365625    0.849597    4.190781
     27          6           0       21.253523   -0.158479    4.654289
     28          6           0       20.574267   -0.446269    3.368363
     29          6           0       23.773760    0.386478    4.667443
     30          6           0       20.325027    0.347054    5.866217
     31          6           0       19.069150    1.244605    5.658105
     32          7           0       19.002929   -1.159850    0.953694
     33          6           0       18.764709   -1.744864    2.163961
     34          6           0       17.665240   -2.603148    2.076050
     35          6           0       17.365217   -2.601054    0.659449
     36          6           0       18.192907   -1.685050    0.041343
     37          6           0       16.959110   -3.346388    3.208485
     38          6           0       16.405968   -3.106918   -0.279929
     39          8           0       15.402278   -3.784658   -0.192634
     40          6           0       16.894260   -2.590529   -1.678692
     41          6           0       17.475397   -3.706660   -2.450826
     42          8           0       18.676389   -3.841996   -2.772627
     43          8           0       16.590598   -4.665286   -2.801869
     44          6           0       16.995781   -5.727233   -3.784922
     45          1           0       21.224747    2.316521   -3.577360
     46          1           0       23.668765    2.329914    2.545506
     47          1           0       19.044033   -1.841153    4.202338
     48          1           0       18.678422   -1.532222   -4.277217
     49          1           0       19.215630    1.136734   -4.705034
     50          1           0       21.683253   -0.360131   -4.272221
     51          1           0       21.111626    0.474154   -5.636488
     52          1           0       20.636495   -1.255155   -5.405256
     53          1           0       17.188726    0.679152   -4.955038
     54          1           0       16.615080    0.520765   -3.303517
     55          1           0       15.349959   -1.330936   -3.891909
     56          1           0       16.389119   -1.940709   -5.105600
     57          1           0       22.783766    5.249004   -2.101218
     58          1           0       22.354840    4.136789   -3.412107
     59          1           0       23.989352    4.183086   -2.829097
     60          1           0       25.568106    4.237203   -1.331808
     61          1           0       26.270764    5.192879    0.135706
     62          1           0       24.886615    5.701192   -0.815327
     63          1           0       22.176648    1.851934    4.574000
     64          1           0       21.720920   -1.094944    4.956426
     65          1           0       24.276880    1.150179    5.260578
     66          1           0       24.432439    0.192585    3.820214
     67          1           0       23.757223   -0.554133    5.217851
     68          1           0       21.023097    0.951001    6.446304
     69          1           0       20.123603   -0.599808    6.367425
     70          1           0       18.760694    1.384122    4.622333
     71          1           0       19.057176    2.186617    6.207086
     72          1           0       18.282137    0.699409    6.177481
     73          1           0       16.933726   -4.422814    3.035683
     74          1           0       15.918759   -3.021609    3.213490
     75          1           0       17.338990   -3.120822    4.205282
     76          1           0       16.006013   -2.334377   -2.256446
     77          1           0       15.990949   -6.085909   -4.008442
     78          1           0       17.650449   -6.501221   -3.385705
     79          1           0       17.492742   -5.266530   -4.639231
     80         12           0      -20.036884   -0.582379   -0.351779
     81          6           0      -19.918176    2.995648   -0.178456
     82          6           0      -16.519504   -0.548010    0.030234
     83          6           0      -20.160305   -3.879411    0.260295
     84          6           0      -23.469404   -0.393398   -0.042797
     85          7           0      -18.371845    1.039007   -0.109924
     86          6           0      -18.648752    2.375870   -0.044365
     87          6           0      -17.413405    3.130272    0.421085
     88          6           0      -16.337274    1.989483    0.184594
     89          6           0      -17.063859    0.708814    0.023416
     90          6           0      -15.341731    2.178981   -1.008816
     91          6           0      -17.637235    3.690339    1.862391
     92          6           0      -17.213617    5.177505    2.205416
     93          1           0      -16.138241    5.436654    3.275826
     94          7           0      -18.618229   -2.014837   -0.111340
     95          6           0      -17.215244   -1.832205    0.008060
     96          6           0      -16.545675   -3.112976    0.140185
     97          6           0      -17.629965   -4.079104    0.214179
     98          6           0      -18.859965   -3.316755    0.109007
     99          6           0      -15.088305   -3.211376    0.320615
    100          6           0      -17.389145   -5.592808    0.348568
    101          8           0      -16.186278   -5.957103    0.497787
    102          6           0      -18.483202   -6.680998    0.314348
    103          7           0      -21.569457   -1.994475    0.329801
    104          6           0      -21.405311   -3.303431    0.333604
    105          6           0      -22.714375   -3.944996    0.663123
    106          6           0      -23.750033   -2.801123    0.495527
    107          6           0      -22.872018   -1.599414    0.327100
    108          6           0      -23.163459   -5.266722   -0.094934
    109          6           0      -24.798330   -2.635356    1.713118
    110          6           0      -26.300251   -2.888575    1.434620
    111          7           0      -21.429907    0.906852   -0.349350
    112          6           0      -22.766219    0.847934   -0.221342
    113          6           0      -23.350013    2.138682   -0.253532
    114          6           0      -22.255825    3.006410   -0.282889
    115          6           0      -21.082261    2.210919   -0.297161
    116          6           0      -24.763408    2.563597   -0.257024
    117          6           0      -21.955328    4.404780   -0.264728
    118          8           0      -22.720249    5.338784   -0.174844
    119          6           0      -20.302961    4.452758   -0.145222
    120          6           0      -19.741141    5.179988   -1.289664
    121          8           0      -20.098107    5.053573   -2.467846
    122          8           0      -18.740113    5.986617   -0.791857
    123          6           0      -18.032359    6.818178   -1.763912
    124          1           0      -15.435677   -0.603968    0.142593
    125          1           0      -20.261888   -4.923980    0.560802
    126          1           0      -24.547802   -0.285325   -0.177706
    127          1           0      -17.212439    3.884238   -0.340433
    128          1           0      -15.907181    1.983713    1.186826
    129          1           0      -15.441459    1.306244   -1.655759
    130          1           0      -14.293694    2.224045   -0.713519
    131          1           0      -15.548453    3.024644   -1.665440
    132          1           0      -17.013748    2.991417    2.419507
    133          1           0      -18.642707    3.576858    2.267043
    134          1           0      -18.145262    5.671638    2.480435
    135          1           0      -16.983991    5.686376    1.269735
    136          1           0      -14.838843   -2.553132    1.153163
    137          1           0      -14.577399   -2.797913   -0.548692
    138          1           0      -14.650240   -4.206229    0.405196
    139          1           0      -19.045647   -6.620388    1.246204
    140          1           0      -17.960642   -7.569822   -0.037708
    141          1           0      -19.114684   -6.357043   -0.513614
    142          1           0      -22.649395   -4.264065    1.702614
    143          1           0      -24.143440   -3.004204   -0.500590
    144          1           0      -23.798908   -5.785195    0.623480
    145          1           0      -22.270107   -5.827117   -0.370137
    146          1           0      -23.750400   -4.943864   -0.954973
    147          1           0      -24.631148   -1.614072    2.054963
    148          1           0      -24.429639   -3.237262    2.543603
    149          1           0      -26.939235   -2.088526    1.806029
    150          1           0      -26.583696   -3.834127    1.897647
    151          1           0      -26.528255   -3.057237    0.381997
    152          1           0      -24.876378    3.587801   -0.611060
    153          1           0      -24.945890    2.460539    0.812797
    154          1           0      -25.360354    1.740207   -0.648974
    155          1           0      -19.987148    4.804173    0.836403
    156          1           0      -18.722383    7.395065   -2.380098
    157          1           0      -17.392957    6.192186   -2.388069
    158          1           0      -17.409473    7.531045   -1.223548
 ---------------------------------------------------------------------

 SCF Done:  E(RCAM-B3LYP) =  -4069.79713195     A.U. after   17 cycles

 Excitation energies and oscillator strengths:

 Excited State   1:      Singlet-A      1.6988 eV  729.83 nm  f=0.3764  <S**2>=0.000
     309 -> 315        0.18256
     311 -> 313        0.67536
     312 -> 314        0.11671
     309 <- 315        0.10985
 This state for optimization and/or second-order correction.
 Total Energy, E(TD-HF/TD-DFT) =  -4069.73470207
 Copying the excited state density for this state as the 1-particle RhoCI density.

 Excited State   2:      Singlet-A      1.7036 eV  727.77 nm  f=0.4008  <S**2>=0.000
     310 -> 316       -0.17467
     311 -> 313       -0.11673
     312 -> 314        0.67474
     310 <- 316       -0.10597

 Excited State   3:      Singlet-A      2.2075 eV  561.65 nm  f=0.1418  <S**2>=0.000
     310 -> 314        0.65095
     312 -> 316        0.26118

 Excited State   4:      Singlet-A      2.2522 eV  550.49 nm  f=0.1327  <S**2>=0.000
     309 -> 313        0.64093
     311 -> 315       -0.28920

 Excited State   5:      Singlet-A      3.0832 eV  402.13 nm  f=0.0000  <S**2>=0.000
     312 -> 313        0.70710

 The electronic state is 1-A.
 Alpha  occ. eigenvalues --  -46.88901 -46.87529 -19.26273 -19.24062 -19.20557
 Alpha  occ. eigenvalues --  -19.19736 -19.18258 -19.18223 -19.18124 -19.17952
 Alpha  occ. eigenvalues --  -14.42002 -14.41928 -14.41860 -14.41395 -14.39927
 Alpha  occ. eigenvalues --  -14.39820 -14.39531 -14.38358 -10.40094 -10.38537
 Alpha  occ. eigenvalues --  -10.35444 -10.35237 -10.34517 -10.34177 -10.32452
 Alpha  occ. eigenvalues --  -10.32011 -10.31184 -10.30957 -10.30803 -10.30768
 Alpha  occ. eigenvalues --  -10.30631 -10.30592 -10.30466 -10.30394 -10.30322
 Alpha  occ. eigenvalues --  -10.30305 -10.30122 -10.30023 -10.29750 -10.29076
 Alpha  occ. eigenvalues --  -10.28944 -10.28904 -10.28728 -10.28556 -10.28555
 Alpha  occ. eigenvalues --  -10.28364 -10.28292 -10.28147 -10.28095 -10.27837
 Alpha  occ. eigenvalues --  -10.27773 -10.27730 -10.27662 -10.27620 -10.27586
 Alpha  occ. eigenvalues --  -10.27513 -10.27482 -10.27464 -10.27449 -10.27377
 Alpha  occ. eigenvalues --  -10.27255 -10.27251 -10.27227 -10.27192 -10.27142
 Alpha  occ. eigenvalues --  -10.27091 -10.26990 -10.26905 -10.26881 -10.26780
 Alpha  occ. eigenvalues --  -10.26747 -10.26696 -10.26668 -10.26430 -10.26399
 Alpha  occ. eigenvalues --  -10.26313 -10.26231 -10.26070 -10.25999 -10.25912
 Alpha  occ. eigenvalues --  -10.25889 -10.25719 -10.25666 -10.25038 -10.24609
 Alpha  occ. eigenvalues --  -10.24556  -3.17455  -3.16244  -1.92345  -1.91899
 Alpha  occ. eigenvalues --   -1.91772  -1.91154  -1.90703  -1.90548  -1.16543
 Alpha  occ. eigenvalues --   -1.15132  -1.10817  -1.09524  -1.08168  -1.07949
 Alpha  occ. eigenvalues --   -1.07233  -1.05446  -1.05128  -1.04837  -1.04720
 Alpha  occ. eigenvalues --   -1.04084  -1.03737  -1.03237  -1.02334  -1.02226
 Alpha  occ. eigenvalues --   -0.93176  -0.93080  -0.89321  -0.89034  -0.88446
 Alpha  occ. eigenvalues --   -0.88297  -0.88279  -0.88127  -0.87967  -0.87574
 Alpha  occ. eigenvalues --   -0.87469  -0.87006  -0.86096  -0.86000  -0.84631
 Alpha  occ. eigenvalues --   -0.84377  -0.83854  -0.83643  -0.82806  -0.82723
 Alpha  occ. eigenvalues --   -0.82460  -0.82011  -0.81361  -0.80985  -0.80542
 Alpha  occ. eigenvalues --   -0.80480  -0.78553  -0.78217  -0.77642  -0.77507
 Alpha  occ. eigenvalues --   -0.76873  -0.76866  -0.76295  -0.76207  -0.75339
 Alpha  occ. eigenvalues --   -0.75293  -0.73191  -0.73110  -0.72209  -0.71332
 Alpha  occ. eigenvalues --   -0.70103  -0.69808  -0.69383  -0.68772  -0.68479
 Alpha  occ. eigenvalues --   -0.68000  -0.67098  -0.66745  -0.66150  -0.65630
 Alpha  occ. eigenvalues --   -0.65197  -0.65113  -0.65085  -0.64759  -0.64608
 Alpha  occ. eigenvalues --   -0.64363  -0.62957  -0.61488  -0.60139  -0.59958
 Alpha  occ. eigenvalues --   -0.59898  -0.59642  -0.59542  -0.59146  -0.58913
 Alpha  occ. eigenvalues --   -0.58591  -0.58427  -0.57792  -0.57588  -0.57302
 Alpha  occ. eigenvalues --   -0.56236  -0.56167  -0.55980  -0.55645  -0.55634
 Alpha  occ. eigenvalues --   -0.54893  -0.54855  -0.54499  -0.54440  -0.53826
 Alpha  occ. eigenvalues --   -0.53689  -0.53288  -0.53244  -0.52932  -0.52909
 Alpha  occ. eigenvalues --   -0.52627  -0.52525  -0.52435  -0.52092  -0.52072
 Alpha  occ. eigenvalues --   -0.51883  -0.51761  -0.51409  -0.51224  -0.51068
 Alpha  occ. eigenvalues --   -0.50835  -0.50576  -0.50349  -0.50333  -0.50162
 Alpha  occ. eigenvalues --   -0.50024  -0.49967  -0.49760  -0.49635  -0.49562
 Alpha  occ. eigenvalues --   -0.49424  -0.49403  -0.48938  -0.48803  -0.48781
 Alpha  occ. eigenvalues --   -0.48474  -0.48459  -0.48184  -0.47933  -0.47926
 Alpha  occ. eigenvalues --   -0.47763  -0.47738  -0.47647  -0.47586  -0.47445
 Alpha  occ. eigenvalues --   -0.47225  -0.47025  -0.46750  -0.46640  -0.46493
 Alpha  occ. eigenvalues --   -0.46449  -0.46247  -0.46122  -0.45988  -0.45927
 Alpha  occ. eigenvalues --   -0.45703  -0.45616  -0.45399  -0.45371  -0.45262
 Alpha  occ. eigenvalues --   -0.45168  -0.44975  -0.44799  -0.44534  -0.44246
 Alpha  occ. eigenvalues --   -0.43978  -0.43814  -0.43790  -0.43771  -0.43651
 Alpha  occ. eigenvalues --   -0.43552  -0.43413  -0.43270  -0.43079  -0.42942
 Alpha  occ. eigenvalues --   -0.42890  -0.42801  -0.42757  -0.42452  -0.42318
 Alpha  occ. eigenvalues --   -0.41597  -0.41519  -0.41478  -0.41222  -0.41123
 Alpha  occ. eigenvalues --   -0.41098  -0.40847  -0.40791  -0.40330  -0.40329
 Alpha  occ. eigenvalues --   -0.40223  -0.39978  -0.39701  -0.38922  -0.38920
 Alpha  occ. eigenvalues --   -0.38739  -0.38242  -0.38201  -0.37815  -0.37720
 Alpha  occ. eigenvalues --   -0.37632  -0.36909  -0.36502  -0.36441  -0.36386
 Alpha  occ. eigenvalues --   -0.35846  -0.35599  -0.35185  -0.34304  -0.34106
 Alpha  occ. eigenvalues --   -0.33186  -0.33011  -0.32877  -0.31324  -0.31120
 Alpha  occ. eigenvalues --   -0.30991  -0.30612  -0.30324  -0.30104  -0.30030
 Alpha  occ. eigenvalues --   -0.29892  -0.29362  -0.29316  -0.24164  -0.23638
 Alpha  occ. eigenvalues --   -0.21305  -0.21108
 Alpha virt. eigenvalues --   -0.08921  -0.08687  -0.01725  -0.01306   0.00290
 Alpha virt. eigenvalues --    0.00688   0.02306   0.02365   0.02432   0.03569
 Alpha virt. eigenvalues --    0.04253   0.05015   0.05049   0.05645   0.05777

 Mulliken charges:
               1
     1  Mg  12.000029
     2  C    6.003805
     3  C    5.996507
     4  C    5.995750
     5  C    6.000496
     6  N    7.000772
     7  C    5.994930
     8  C    6.002131
     9  C    5.998939
    10  C    6.004817
    11  C    5.999621
    12  C    6.000820
    13  C    6.000355
    14  H    0.998727
    15  N    6.998532
    16  C    6.008210
    17  C    6.005126
    18  C    6.001069
    19  C    6.007009
    20  C    5.998585
    21  C    6.002163
    22  O    8.004431
    23  C    5.999171
    24  N    6.998352
    25  C    6.007384
    26  C    5.997130
    27  C    6.002479
    28  C    5.994078
    29  C    6.000184
    30  C    6.000783
    31  C    6.000311
    32  N    7.001073
    33  C    5.994594
    34  C    5.995103
    35  C    5.998956
    36  C    5.994580
    37  C    6.000637
    38  C    5.997616
    39  O    7.994811
    40  C    5.999110
    41  C    5.999847
    42  O    7.998337
    43  O    8.000285
    44  C    6.000426
    45  H    1.001763
    46  H    1.001434
    47  H    0.997692
    48  H    0.999196
    49  H    1.000209
    50  H    0.999319
    51  H    0.999901
    52  H    1.002200
    53  H    0.998338
    54  H    0.999912
    55  H    1.000876
    56  H    1.000027
    57  H    1.003911
    58  H    1.003859
    59  H    1.004099
    60  H    1.000583
    61  H    1.002537
    62  H    1.001200
    63  H    1.000055
    64  H    0.999905
    65  H    1.000093
    66  H    0.999537
    67  H    1.001937
    68  H    0.997793
    69  H    1.000239
    70  H    1.000143
    71  H    0.998471
    72  H    1.000252
    73  H    0.996575
    74  H    0.996668
    75  H    0.996910
    76  H    0.998449
    77  H    0.999375
    78  H    0.999517
    79  H    0.998953
    80  Mg  11.999957
    81  C    6.020871
    82  C    5.974778
    83  C    5.977090
    84  C    6.026595
    85  N    6.995677
    86  C    5.969530
    87  C    6.007762
    88  C    5.990774
    89  C    6.032779
    90  C    5.997311
    91  C    6.008312
    92  C    6.000448
    93  H    0.989915
    94  N    6.992928
    95  C    6.054808
    96  C    6.018887
    97  C    6.013543
    98  C    6.038554
    99  C    5.993880
   100  C    6.012063
   101  O    8.022409
   102  C    6.001500
   103  N    6.999907
   104  C    6.034539
   105  C    5.988265
   106  C    6.012323
   107  C    5.962221
   108  C    5.998447
   109  C    6.001739
   110  C    6.001439
   111  N    7.004607
   112  C    5.957174
   113  C    5.973318
   114  C    5.993655
   115  C    5.966022
   116  C    6.000667
   117  C    5.985187
   118  O    7.972326
   119  C    5.994843
   120  C    5.995140
   121  O    7.995978
   122  O    7.997542
   123  C    6.002896
   124  H    1.008740
   125  H    1.007133
   126  H    0.993545
   127  H    0.999904
   128  H    1.002524
   129  H    0.994690
   130  H    1.001833
   131  H    1.013448
   132  H    0.986880
   133  H    1.005414
   134  H    1.003611
   135  H    0.999980
   136  H    1.020624
   137  H    1.021247
   138  H    1.015125
   139  H    1.010983
   140  H    1.012125
   141  H    1.007763
   142  H    1.001517
   143  H    0.997018
   144  H    1.005753
   145  H    0.992165
   146  H    1.007514
   147  H    1.006134
   148  H    0.989788
   149  H    1.002122
   150  H    0.993770
   151  H    0.998542
   152  H    0.985749
   153  H    0.980083
   154  H    0.979745
   155  H    0.989991
   156  H    0.998141
   157  H    0.993247
   158  H    0.994546
 Sum of Mulliken charges = 624.00000

 Dipole moment (field-independent basis, Debye):
    X=              8.3083    Y=             -6.9145    Z=             -0.1476  Tot=             10.8102
 Quadrupole moment (field-independent basis, Debye-Ang):
   XX=           -230.2896   YY=              6.9427   ZZ=             -1.6720
   XY=            185.8533   XZ=            -17.3360   YZ=              0.0262

 Normal termination of Gaussian 16 at Tue Sep 21 23:17:00 2021.
