 Gaussian 16, Revision A.03,
 Gaussian 16:  ES64L-G16RevA.03 25-Dec-2016

 -----------------------------------------------------
 #p cam-b3lyp/Def2SVP td=(nstates=5) density=(current)
 -----------------------------------------------------

 --------------------------------
 TDDFT excited states in gaussian
 --------------------------------
 Symbolic Z-matrix:
 Charge =  0 Multiplicity = 1

                         Standard orientation:
 ---------------------------------------------------------------------
 Center     Atomic      Atomic             Coordinates (Angstroms)
 Number     Number       Type             X           Y           Z
 ---------------------------------------------------------------------
      1         12           0       -0.662059    0.019618   -0.289607
      2          6           0        2.738213    0.303519    0.285794
      3          6           0       -0.406963   -3.412649    0.054237
      4          6           0       -4.029591   -0.112234   -0.096793
      5          6           0       -0.752217    3.545067   -0.262663
      6          7           0        0.950204   -1.369560    0.409732
      7          6           0        2.237409   -1.013307    0.377965
      8          6           0        3.137422   -2.226563    0.767417
      9          6           0        2.165634   -3.450346    0.417520
     10          6           0        0.790404   -2.710815    0.199613
     11          6           0        2.690873   -4.323340   -0.747605
     12          6           0        3.440521   -2.204810    2.248319
     13          6           0        4.862299   -2.584347    2.631866
     14          1           0        5.203149   -3.424286    3.920063
     15          7           0       -2.021986   -1.625107   -0.224554
     16          6           0       -1.759275   -2.926507   -0.014548
     17          6           0       -3.001948   -3.626949   -0.050724
     18          6           0       -4.072821   -2.708951   -0.272967
     19          6           0       -3.413260   -1.397609   -0.244558
     20          6           0       -3.059117   -5.109791   -0.065807
     21          6           0       -5.510927   -3.088747   -0.277810
     22          8           0       -5.835864   -4.261090   -0.188656
     23          6           0       -6.610697   -2.050000   -0.462454
     24          7           0       -2.226027    1.588174   -0.277977
     25          6           0       -3.523962    1.205927   -0.118260
     26          6           0       -4.390790    2.388884    0.167792
     27          6           0       -3.307968    3.568011    0.117591
     28          6           0       -1.988962    2.922108   -0.227102
     29          6           0       -5.596984    2.549458   -0.776354
     30          6           0       -3.219565    4.489518    1.413720
     31          6           0       -3.299255    6.029340    1.290370
     32          7           0        0.659940    1.596321   -0.072667
     33          6           0        0.493232    2.942957   -0.156506
     34          6           0        1.728757    3.569202   -0.326297
     35          6           0        2.694742    2.582331   -0.187078
     36          6           0        2.001178    1.419763    0.038274
     37          6           0        1.925271    5.105207   -0.487094
     38          6           0        4.052735    2.297195   -0.190531
     39          8           0        4.990236    3.085921   -0.236972
     40          6           0        4.237398    0.744854    0.170349
     41          6           0        4.818439    0.016757   -0.899313
     42          8           0        4.334885   -0.382707   -1.961246
     43          8           0        6.139461   -0.217045   -0.529856
     44          6           0        7.039401   -0.946399   -1.406784
     45          1           0       -0.312954   -4.499277    0.005296
     46          1           0       -5.114655    0.003212   -0.044948
     47          1           0       -0.890604    4.624363   -0.355611
     48          1           0        4.056119   -2.160198    0.185246
     49          1           0        1.930073   -4.087793    1.269119
     50          1           0        3.582777   -3.894756   -1.204262
     51          1           0        1.908130   -4.436947   -1.498287
     52          1           0        2.881396   -5.319555   -0.349074
     53          1           0        2.784154   -2.773888    2.906989
     54          1           0        3.172455   -1.196197    2.562820
     55          1           0        5.439592   -1.659970    2.623346
     56          1           0        5.169516   -3.153335    1.754402
     57          1           0       -3.170809   -5.332692   -1.126746
     58          1           0       -3.893913   -5.484567    0.526752
     59          1           0       -2.156760   -5.578548    0.326922
     60          1           0       -6.739229   -1.582432    0.513861
     61          1           0       -7.527355   -2.619061   -0.615460
     62          1           0       -6.350955   -1.347918   -1.254634
     63          1           0       -4.702841    2.150299    1.184039
     64          1           0       -3.566791    4.317871   -0.629974
     65          1           0       -6.471864    2.263798   -0.191396
     66          1           0       -5.506756    1.955451   -1.686399
     67          1           0       -5.716602    3.601962   -1.032164
     68          1           0       -2.270512    4.287479    1.910079
     69          1           0       -4.022676    4.297368    2.125532
     70          1           0       -2.239404    6.253559    1.170475
     71          1           0       -3.646125    6.466942    2.225576
     72          1           0       -3.716851    6.486805    0.393562
     73          1           0        1.761927    5.575917    0.481524
     74          1           0        1.215702    5.614400   -1.139559
     75          1           0        2.939059    5.335580   -0.815776
     76          1           0        4.812894    0.724389    1.095943
     77          1           0        8.039981   -0.551434   -1.233590
     78          1           0        6.746414   -0.971525   -2.456705
     79          1           0        7.096628   -1.970275   -1.037049
 ---------------------------------------------------------------------

 SCF Done:  E(RCAM-B3LYP) =  -2034.88311353     A.U. after   17 cycles

 Excitation energies and oscillator strengths:

 Excited State   1:      Singlet-A      1.6990 eV  729.75 nm  f=0.4025  <S**2>=0.000
     155 ->158        -0.18519
     156 ->157         0.68485
     155 <-158        -0.11000
 This state for optimization and/or second-order correction.
 Total Energy, E(TD-HF/TD-DFT) =  -2034.82067672
 Copying the excited state density for this state as the 1-particle RhoCI density.

 Excited State   2:      Singlet-A      2.2279 eV  556.51 nm  f=0.1004  <S**2>=0.000
     155 ->157         0.63663
     156 ->158         0.29396

 Excited State   3:      Singlet-A      3.2254 eV  384.40 nm  f=0.0037  <S**2>=0.000
     154 ->157         0.68118
     156 ->158        -0.12073

 Excited State   4:      Singlet-A      3.4107 eV  363.52 nm  f=0.0204  <S**2>=0.000
     150 ->157        -0.14882
     150 ->159         0.10606
     151 ->157        -0.28845
     151 ->159         0.21678
     153 ->157         0.50866
     153 ->159        -0.11185
     156 ->158        -0.18075

 Excited State   5:      Singlet-A      3.4806 eV  356.21 nm  f=0.3098  <S**2>=0.000
     150 ->157        -0.12398
     151 ->157        -0.37300
     151 ->159         0.16203
     153 ->157        -0.18926
     155 ->157        -0.19495
     156 ->158         0.46238

 The electronic state is 1-A.
 Alpha  occ. eigenvalues --  -46.89704 -19.24655 -19.20208 -19.19261 -19.18369
 Alpha  occ. eigenvalues --  -14.42366 -14.42035 -14.39821 -14.39216 -10.39638
 Alpha  occ. eigenvalues --  -10.35245 -10.34637 -10.31599 -10.31560 -10.31410
 Alpha  occ. eigenvalues --  -10.31324 -10.31157 -10.30920 -10.29790 -10.29454
 Alpha  occ. eigenvalues --  -10.28848 -10.28734 -10.28516 -10.28352 -10.28344
 Alpha  occ. eigenvalues --  -10.28330 -10.28192 -10.28191 -10.27827 -10.27812
 Alpha  occ. eigenvalues --  -10.27776 -10.27387 -10.27055 -10.26872 -10.26810
 Alpha  occ. eigenvalues --  -10.26620 -10.26545 -10.26083 -10.26045 -10.25913
 Alpha  occ. eigenvalues --  -10.25868 -10.24922 -10.24865  -3.18027  -1.92940
 Alpha  occ. eigenvalues --   -1.92477  -1.92320  -1.15763  -1.10048  -1.10004
 Alpha  occ. eigenvalues --   -1.07540  -1.05527  -1.04101  -1.03878  -1.02628
 Alpha  occ. eigenvalues --   -0.93915  -0.89495  -0.89171  -0.88420  -0.87912
 Alpha  occ. eigenvalues --   -0.86896  -0.86211  -0.85443  -0.84660  -0.83069
 Alpha  occ. eigenvalues --   -0.82274  -0.81501  -0.80817  -0.78200  -0.77633
 Alpha  occ. eigenvalues --   -0.76584  -0.76529  -0.75197  -0.73532  -0.72410
 Alpha  occ. eigenvalues --   -0.69842  -0.69279  -0.68144  -0.67441  -0.66202
 Alpha  occ. eigenvalues --   -0.65935  -0.65506  -0.64881  -0.62726  -0.60521
 Alpha  occ. eigenvalues --   -0.59910  -0.59147  -0.59122  -0.58205  -0.58016
 Alpha  occ. eigenvalues --   -0.56375  -0.56174  -0.55480  -0.54896  -0.54395
 Alpha  occ. eigenvalues --   -0.53561  -0.53420  -0.52674  -0.52356  -0.52108
 Alpha  occ. eigenvalues --   -0.52101  -0.51853  -0.51523  -0.51335  -0.50400
 Alpha  occ. eigenvalues --   -0.50159  -0.50035  -0.49611  -0.49460  -0.49047
 Alpha  occ. eigenvalues --   -0.49009  -0.48408  -0.48314  -0.47553  -0.46904
 Alpha  occ. eigenvalues --   -0.46774  -0.46728  -0.46631  -0.46148  -0.45983
 Alpha  occ. eigenvalues --   -0.45840  -0.45498  -0.45318  -0.45098  -0.44722
 Alpha  occ. eigenvalues --   -0.44539  -0.43926  -0.43631  -0.43411  -0.43185
 Alpha  occ. eigenvalues --   -0.42892  -0.42207  -0.42075  -0.41944  -0.41856
 Alpha  occ. eigenvalues --   -0.41462  -0.41089  -0.40266  -0.39750  -0.38311
 Alpha  occ. eigenvalues --   -0.38233  -0.37988  -0.37395  -0.37289  -0.36293
 Alpha  occ. eigenvalues --   -0.35692  -0.34938  -0.34382  -0.33637  -0.31846
 Alpha  occ. eigenvalues --   -0.31223  -0.30734  -0.30516  -0.29464  -0.24570
 Alpha  occ. eigenvalues --   -0.21564
 Alpha virt. eigenvalues --   -0.09202  -0.02291  -0.00196   0.02318   0.02498
 Alpha virt. eigenvalues --    0.04033   0.04621   0.05487   0.06292   0.08016
 Alpha virt. eigenvalues --    0.08392   0.08534   0.08922   0.09540   0.10449

 Mulliken charges:
               1
     1  Mg   0.792322
     2  C   -0.062425
     3  C   -0.086568
     4  C   -0.041440
     5  C   -0.124329
     6  N   -0.278042
     7  C   -0.014139
     8  C   -0.080059
     9  C   -0.058619
    10  C    0.077039
    11  C    0.083723
    12  C    0.065189
    13  C   -0.060908
    14  H    0.030196
    15  N   -0.376831
    16  C    0.140587
    17  C   -0.163256
    18  C   -0.020394
    19  C    0.188053
    20  C    0.124418
    21  C   -0.045240
    22  O   -0.208472
    23  C    0.068757
    24  N   -0.294391
    25  C   -0.022517
    26  C   -0.036468
    27  C   -0.005300
    28  C    0.046048
    29  C    0.073744
    30  C   -0.008134
    31  C   -0.013289
    32  N   -0.344970
    33  C    0.188639
    34  C   -0.182681
    35  C    0.106949
    36  C    0.137853
    37  C    0.118363
    38  C   -0.027512
    39  O   -0.175022
    40  C   -0.000891
    41  C    0.226563
    42  O   -0.229033
    43  O   -0.357543
    44  C    0.178010
    45  H   -0.026889
    46  H   -0.052378
    47  H   -0.031666
    48  H    0.019275
    49  H    0.022845
    50  H    0.027242
    51  H    0.014398
    52  H    0.014510
    53  H    0.014167
    54  H    0.004511
    55  H    0.033790
    56  H    0.023854
    57  H    0.035590
    58  H    0.041931
    59  H    0.001177
    60  H    0.035296
    61  H    0.023745
    62  H    0.041822
    63  H    0.031814
    64  H    0.003723
    65  H    0.023110
    66  H    0.034254
    67  H    0.019509
    68  H    0.022154
    69  H    0.007943
    70  H    0.004613
    71  H    0.025511
    72  H    0.019757
    73  H    0.023211
    74  H    0.015445
    75  H    0.037968
    76  H    0.051208
    77  H    0.038534
    78  H    0.051665
    79  H    0.018381
 Sum of Mulliken charges =  -0.00000

 Dipole moment (field-independent basis, Debye):
    X=             -1.7758    Y=              1.7908    Z=              0.8925  Tot=              2.6753
 Quadrupole moment (field-independent basis, Debye-Ang):
   XX=           -261.3600   YY=           -255.8246   ZZ=           -259.2387
   XY=            -50.4769   XZ=              0.1189   YZ=              0.9342

 Normal termination of Gaussian 16 at Fri Oct  8 13:18:45 2021.
