 Gaussian 16, Revision A.03,
 Gaussian 16:  ES64L-G16RevA.03 25-Dec-2016

 -----------------------------------
 #p cam-b3lyp/Def2SVP td=(nstates=5)
 -----------------------------------

 --------------------------------
 TDDFT excited states in gaussian
 --------------------------------
 Symbolic Z-matrix:
 Charge =  0 Multiplicity = 1

                         Standard orientation:
 ---------------------------------------------------------------------
 Center     Atomic      Atomic             Coordinates (Angstroms)
 Number     Number       Type             X           Y           Z
 ---------------------------------------------------------------------
      1         12           0      -29.026284   -0.393436    0.604697
      2          6           0      -28.520318    2.330394   -1.685126
      3          6           0      -28.532244   -2.532742   -2.179218
      4          6           0      -29.619413   -3.181343    2.622638
      5          6           0      -29.861179    1.713396    3.059185
      6          7           0      -28.769268   -0.050682   -1.777918
      7          6           0      -28.481384    1.119391   -2.387308
      8          6           0      -28.293060    0.887394   -3.929675
      9          6           0      -28.527313   -0.663222   -4.015469
     10          6           0      -28.538223   -1.161297   -2.552001
     11          6           0      -29.827663   -1.026652   -4.813953
     12          6           0      -26.915995    1.307700   -4.442808
     13          6           0      -26.894140    2.067626   -5.728357
     14          1           0      -25.552276    2.605001   -6.246552
     15          7           0      -28.877295   -2.514982    0.357722
     16          6           0      -28.677248   -3.160960   -0.857731
     17          6           0      -28.643003   -4.588366   -0.608072
     18          6           0      -28.843857   -4.812239    0.743929
     19          6           0      -29.209626   -3.468493    1.306021
     20          6           0      -28.559804   -5.641570   -1.675287
     21          6           0      -28.928458   -6.156055    1.577244
     22          8           0      -29.110328   -6.277402    2.763967
     23          6           0      -28.589207   -7.458230    0.884789
     24          7           0      -29.775235   -0.725096    2.456491
     25          6           0      -29.950408   -1.904611    3.132100
     26          6           0      -30.685227   -1.703734    4.478035
     27          6           0      -30.535310   -0.142133    4.723591
     28          6           0      -29.986773    0.311183    3.317082
     29          6           0      -32.150858   -2.244274    4.460662
     30          6           0      -29.581101    0.240277    5.895715
     31          6           0      -28.101940   -0.066072    5.672011
     32          7           0      -29.209280    1.567796    0.735154
     33          6           0      -29.509994    2.367676    1.872720
     34          6           0      -29.485372    3.786446    1.523854
     35          6           0      -29.057343    3.802026    0.184208
     36          6           0      -28.887869    2.463384   -0.258329
     37          6           0      -29.775466    4.897897    2.421925
     38          6           0      -28.752474    4.729714   -0.900296
     39          8           0      -28.723677    5.948977   -0.893184
     40          6           0      -28.471077    3.813389   -2.209386
     41          6           0      -27.104226    4.367105   -2.619033
     42          8           0      -26.003937    4.199108   -2.062915
     43          8           0      -27.261027    5.148767   -3.673174
     44          6           0      -26.037600    5.597041   -4.454328
     45          1           0      -28.305142   -3.181245   -3.027578
     46          1           0      -29.831647   -3.990067    3.326291
     47          1           0      -30.072042    2.344643    3.924590
     48          1           0      -29.021192    1.554684   -4.389584
     49          1           0      -27.684895   -1.172396   -4.485549
     50          1           0      -29.697184   -1.707756   -5.654887
     51          1           0      -30.444175   -0.166153   -5.074551
     52          1           0      -30.555954   -1.645315   -4.289116
     53          1           0      -26.547945    0.362368   -4.841932
     54          1           0      -26.262599    1.689628   -3.657617
     55          1           0      -27.578213    2.904443   -5.878395
     56          1           0      -27.204643    1.318900   -6.457205
     57          1           0      -28.346183   -5.203547   -2.649938
     58          1           0      -29.452094   -6.259246   -1.788513
     59          1           0      -27.758798   -6.371285   -1.555807
     60          1           0      -27.572368   -7.467418    0.492442
     61          1           0      -29.373048   -7.510384    0.129094
     62          1           0      -28.846598   -8.209126    1.631809
     63          1           0      -30.155332   -2.369114    5.160547
     64          1           0      -31.445058    0.458351    4.704433
     65          1           0      -32.282605   -3.121974    5.093369
     66          1           0      -32.620273   -2.428428    3.494944
     67          1           0      -32.689326   -1.386844    4.864757
     68          1           0      -30.056176   -0.084901    6.821382
     69          1           0      -29.615146    1.324803    5.997964
     70          1           0      -27.862302   -0.622405    4.766558
     71          1           0      -27.804529   -0.689644    6.514737
     72          1           0      -27.457834    0.797871    5.512298
     73          1           0      -29.710399    5.886900    1.967889
     74          1           0      -29.048524    4.804045    3.228580
     75          1           0      -30.767498    4.728105    2.842829
     76          1           0      -29.124051    4.070808   -3.043309
     77          1           0      -26.413858    5.935521   -5.419961
     78          1           0      -25.354532    4.778516   -4.679303
     79          1           0      -25.445240    6.353477   -3.938222
     80         12           0       29.398987    0.507372   -0.213382
     81          6           0       26.820685   -1.674579   -1.183766
     82          6           0       27.029745    2.929294    0.372399
     83          6           0       31.756698    2.197527    1.377254
     84          6           0       31.709833   -2.161259   -0.608653
     85          7           0       27.191029    0.518945   -0.146391
     86          6           0       26.310086   -0.498599   -0.595445
     87          6           0       24.940328   -0.008347   -0.826615
     88          6           0       25.055650    1.520693   -0.407638
     89          6           0       26.527316    1.695698   -0.067557
     90          6           0       24.461342    2.474911   -1.471726
     91          6           0       23.895633   -0.633119    0.046997
     92          6           0       24.301205   -0.943744    1.495508
     93          1           0       23.274512   -0.800910    2.685755
     94          7           0       29.437712    2.356054    0.734401
     95          6           0       28.400577    3.215083    0.743289
     96          6           0       28.848037    4.463000    1.309368
     97          6           0       30.236954    4.315696    1.546557
     98          6           0       30.565344    2.924782    1.195034
     99          6           0       27.982586    5.657068    1.610140
    100          6           0       31.171650    5.404305    2.073131
    101          8           0       30.753408    6.513238    2.342956
    102          6           0       32.621316    5.265579    2.432791
    103          7           0       31.353478   -0.002751    0.538140
    104          6           0       32.173866    0.915420    1.137541
    105          6           0       33.652215    0.408304    1.199249
    106          6           0       33.494274   -1.098537    0.833024
    107          6           0       32.119761   -1.094612    0.200645
    108          6           0       34.636857    1.107727    0.231261
    109          6           0       33.367172   -2.112633    2.065851
    110          6           0       34.194976   -3.345163    2.008771
    111          7           0       29.368828   -1.413039   -0.847221
    112          6           0       30.376531   -2.253643   -1.117658
    113          6           0       29.901826   -3.352641   -2.040554
    114          6           0       28.496077   -3.093086   -2.110874
    115          6           0       28.204534   -1.994813   -1.253277
    116          6           0       30.668102   -4.488901   -2.702369
    117          6           0       27.264609   -3.654988   -2.585703
    118          8           0       27.049469   -4.671598   -3.226613
    119          6           0       26.122518   -2.720018   -2.016366
    120          6           0       25.327181   -3.547851   -1.028312
    121          8           0       25.683117   -3.957971    0.026723
    122          8           0       24.041161   -3.663369   -1.511563
    123          6           0       23.087880   -4.190516   -0.529882
    124          1           0       26.305236    3.746071    0.366268
    125          1           0       32.590348    2.802384    1.737888
    126          1           0       32.502860   -2.879193   -0.827992
    127          1           0       24.695518   -0.195556   -1.872134
    128          1           0       24.626057    1.785915    0.558335
    129          1           0       23.843200    3.112420   -0.839350
    130          1           0       23.896354    1.858108   -2.170707
    131          1           0       25.213705    3.101802   -1.950740
    132          1           0       23.370124   -1.466925   -0.419280
    133          1           0       23.009933   -0.018540    0.209517
    134          1           0       25.171224   -0.313000    1.681198
    135          1           0       24.674755   -1.964352    1.410480
    136          1           0       28.190503    6.050551    2.605701
    137          1           0       26.933727    5.400006    1.462603
    138          1           0       28.282281    6.393129    0.863768
    139          1           0       32.833559    4.617239    3.282304
    140          1           0       32.836091    6.264002    2.814039
    141          1           0       33.273250    5.177716    1.563018
    142          1           0       34.014531    0.569035    2.214547
    143          1           0       34.242745   -1.453018    0.123867
    144          1           0       34.946144    0.388386   -0.526807
    145          1           0       35.397694    1.674802    0.767345
    146          1           0       34.096411    1.885131   -0.307609
    147          1           0       32.327159   -2.386557    2.241660
    148          1           0       33.680592   -1.516290    2.922902
    149          1           0       34.842533   -3.464443    2.877168
    150          1           0       34.801313   -3.421252    1.105887
    151          1           0       33.580658   -4.245133    2.014923
    152          1           0       30.202526   -5.413050   -2.359854
    153          1           0       31.730283   -4.325172   -2.516396
    154          1           0       30.425019   -4.422479   -3.762763
    155          1           0       25.489527   -2.312945   -2.804538
    156          1           0       23.350752   -3.938775    0.497462
    157          1           0       23.139667   -5.268581   -0.682504
    158          1           0       22.102036   -3.898765   -0.890933
 ---------------------------------------------------------------------

 SCF Done:  E(RCAM-B3LYP) =  -4069.78567118     A.U. after   19 cycles

 Excitation energies and oscillator strengths:

 Excited State   1:      Singlet-A      1.6510 eV  750.98 nm  f=0.3596  <S**2>=0.000
     310 -> 315        0.18396
     312 -> 314        0.68512
     310 <- 315        0.11253
 This state for optimization and/or second-order correction.
 Total Energy, E(TD-HF/TD-DFT) =  -4069.72499907
 Copying the excited state density for this state as the 1-particle RhoCI density.

 Excited State   2:      Singlet-A      1.6651 eV  744.61 nm  f=0.3833  <S**2>=0.000
     309 -> 316        0.17250
     311 -> 313        0.68778
     309 <- 316        0.10779

 Excited State   3:      Singlet-A      2.2173 eV  559.17 nm  f=0.0914  <S**2>=0.000
     310 -> 314        0.62583
     312 -> 315       -0.32031

 Excited State   4:      Singlet-A      2.2662 eV  547.11 nm  f=0.1011  <S**2>=0.000
     309 -> 313        0.62924
     311 -> 316       -0.31016

 Excited State   5:      Singlet-A      3.1528 eV  393.25 nm  f=0.0000  <S**2>=0.000
     312 -> 313        0.70711

 The electronic state is 1-A.
 Alpha  occ. eigenvalues --  -46.88579 -46.88289 -19.24936 -19.24603 -19.20426
 Alpha  occ. eigenvalues --  -19.19511 -19.19359 -19.19123 -19.18247 -19.17995
 Alpha  occ. eigenvalues --  -14.42454 -14.42373 -14.41884 -14.41545 -14.40099
 Alpha  occ. eigenvalues --  -14.39674 -14.39593 -14.39532 -10.39243 -10.38460
 Alpha  occ. eigenvalues --  -10.35586 -10.35387 -10.34991 -10.34603 -10.32200
 Alpha  occ. eigenvalues --  -10.31435 -10.31399 -10.31366 -10.31233 -10.31208
 Alpha  occ. eigenvalues --  -10.31083 -10.31034 -10.30944 -10.30815 -10.30655
 Alpha  occ. eigenvalues --  -10.30623 -10.30581 -10.30467 -10.29997 -10.29947
 Alpha  occ. eigenvalues --  -10.29908 -10.29316 -10.28863 -10.28772 -10.28737
 Alpha  occ. eigenvalues --  -10.28713 -10.28593 -10.28515 -10.28505 -10.28410
 Alpha  occ. eigenvalues --  -10.28406 -10.28362 -10.28354 -10.28333 -10.28287
 Alpha  occ. eigenvalues --  -10.28283 -10.28134 -10.28123 -10.28046 -10.27819
 Alpha  occ. eigenvalues --  -10.27742 -10.27528 -10.27433 -10.27281 -10.27039
 Alpha  occ. eigenvalues --  -10.26885 -10.26829 -10.26749 -10.26620 -10.26610
 Alpha  occ. eigenvalues --  -10.26561 -10.26506 -10.26486 -10.26389 -10.26217
 Alpha  occ. eigenvalues --  -10.26091 -10.26065 -10.26014 -10.26000 -10.25705
 Alpha  occ. eigenvalues --  -10.25510 -10.25488 -10.25416 -10.25396 -10.25369
 Alpha  occ. eigenvalues --  -10.25127  -3.17224  -3.16979  -1.92085  -1.91865
 Alpha  occ. eigenvalues --   -1.91684  -1.91542  -1.91452  -1.91285  -1.17264
 Alpha  occ. eigenvalues --   -1.15938  -1.11449  -1.10407  -1.10031  -1.09949
 Alpha  occ. eigenvalues --   -1.08960  -1.05280  -1.04582  -1.03992  -1.03784
 Alpha  occ. eigenvalues --   -1.03337  -1.03122  -1.02626  -1.02212  -1.01697
 Alpha  occ. eigenvalues --   -0.93182  -0.90859  -0.89866  -0.89429  -0.89250
 Alpha  occ. eigenvalues --   -0.88745  -0.88386  -0.87991  -0.87524  -0.87350
 Alpha  occ. eigenvalues --   -0.86950  -0.86444  -0.86334  -0.85804  -0.84744
 Alpha  occ. eigenvalues --   -0.84168  -0.84116  -0.83578  -0.82712  -0.82361
 Alpha  occ. eigenvalues --   -0.81690  -0.81503  -0.81024  -0.80875  -0.80514
 Alpha  occ. eigenvalues --   -0.80161  -0.78129  -0.77946  -0.77506  -0.77299
 Alpha  occ. eigenvalues --   -0.76950  -0.76847  -0.76046  -0.75974  -0.75134
 Alpha  occ. eigenvalues --   -0.75121  -0.72703  -0.72589  -0.71690  -0.71643
 Alpha  occ. eigenvalues --   -0.70062  -0.69629  -0.68809  -0.68747  -0.68684
 Alpha  occ. eigenvalues --   -0.67532  -0.67085  -0.66273  -0.65865  -0.65476
 Alpha  occ. eigenvalues --   -0.65115  -0.65079  -0.64564  -0.64538  -0.64378
 Alpha  occ. eigenvalues --   -0.64053  -0.62100  -0.61774  -0.60005  -0.59590
 Alpha  occ. eigenvalues --   -0.59415  -0.59274  -0.59065  -0.58941  -0.58936
 Alpha  occ. eigenvalues --   -0.58136  -0.57699  -0.57380  -0.57359  -0.56561
 Alpha  occ. eigenvalues --   -0.56235  -0.56104  -0.55639  -0.55486  -0.55418
 Alpha  occ. eigenvalues --   -0.55100  -0.55021  -0.54662  -0.54604  -0.54073
 Alpha  occ. eigenvalues --   -0.53960  -0.53327  -0.53210  -0.53041  -0.52889
 Alpha  occ. eigenvalues --   -0.52853  -0.52715  -0.52421  -0.52372  -0.52283
 Alpha  occ. eigenvalues --   -0.52125  -0.52115  -0.51617  -0.51515  -0.51422
 Alpha  occ. eigenvalues --   -0.51160  -0.50962  -0.50929  -0.50889  -0.50132
 Alpha  occ. eigenvalues --   -0.50108  -0.49795  -0.49604  -0.49602  -0.49404
 Alpha  occ. eigenvalues --   -0.49284  -0.49251  -0.49223  -0.48948  -0.48937
 Alpha  occ. eigenvalues --   -0.48767  -0.48648  -0.48598  -0.48434  -0.48364
 Alpha  occ. eigenvalues --   -0.48128  -0.47554  -0.47518  -0.47447  -0.47196
 Alpha  occ. eigenvalues --   -0.47105  -0.46903  -0.46780  -0.46721  -0.46650
 Alpha  occ. eigenvalues --   -0.46377  -0.46336  -0.46180  -0.46003  -0.45880
 Alpha  occ. eigenvalues --   -0.45826  -0.45502  -0.45498  -0.45233  -0.45227
 Alpha  occ. eigenvalues --   -0.44907  -0.44674  -0.44407  -0.44371  -0.44155
 Alpha  occ. eigenvalues --   -0.44048  -0.43962  -0.43903  -0.43637  -0.43600
 Alpha  occ. eigenvalues --   -0.43525  -0.43230  -0.43151  -0.42986  -0.42963
 Alpha  occ. eigenvalues --   -0.42804  -0.42522  -0.42493  -0.42380  -0.42198
 Alpha  occ. eigenvalues --   -0.42141  -0.42126  -0.41901  -0.41810  -0.41404
 Alpha  occ. eigenvalues --   -0.41117  -0.40906  -0.40772  -0.40399  -0.40361
 Alpha  occ. eigenvalues --   -0.40183  -0.39822  -0.39576  -0.39196  -0.39153
 Alpha  occ. eigenvalues --   -0.38629  -0.38454  -0.38044  -0.37878  -0.37516
 Alpha  occ. eigenvalues --   -0.37331  -0.37037  -0.36618  -0.36442  -0.36052
 Alpha  occ. eigenvalues --   -0.35763  -0.35632  -0.35104  -0.34228  -0.33901
 Alpha  occ. eigenvalues --   -0.33121  -0.33024  -0.32723  -0.31434  -0.31377
 Alpha  occ. eigenvalues --   -0.31100  -0.30981  -0.30794  -0.30536  -0.30351
 Alpha  occ. eigenvalues --   -0.29977  -0.29902  -0.29653  -0.24308  -0.24103
 Alpha  occ. eigenvalues --   -0.21046  -0.20952
 Alpha virt. eigenvalues --   -0.08779  -0.08694  -0.02027  -0.01788   0.00218
 Alpha virt. eigenvalues --    0.00660   0.01382   0.02396   0.02525   0.03416
 Alpha virt. eigenvalues --    0.05054   0.05159   0.05271   0.05431   0.05892

 Mulliken charges:
               1
     1  Mg   0.847263
     2  C    0.045329
     3  C   -0.060550
     4  C   -0.047706
     5  C   -0.098774
     6  N   -0.248852
     7  C   -0.052969
     8  C   -0.041250
     9  C   -0.032708
    10  C    0.025051
    11  C    0.061900
    12  C    0.091683
    13  C   -0.097200
    14  H    0.015892
    15  N   -0.370683
    16  C    0.163346
    17  C   -0.136141
    18  C   -0.047585
    19  C    0.113912
    20  C    0.100988
    21  C    0.008294
    22  O   -0.184747
    23  C    0.055710
    24  N   -0.324671
    25  C    0.018132
    26  C   -0.032836
    27  C   -0.028931
    28  C    0.038262
    29  C    0.074277
    30  C    0.042198
    31  C    0.003860
    32  N   -0.436333
    33  C    0.150809
    34  C   -0.152942
    35  C    0.006759
    36  C    0.125982
    37  C    0.128412
    38  C    0.055357
    39  O   -0.163322
    40  C   -0.066548
    41  C    0.185876
    42  O   -0.258973
    43  O   -0.310135
    44  C    0.186774
    45  H   -0.026640
    46  H   -0.004528
    47  H   -0.031263
    48  H    0.015144
    49  H    0.010153
    50  H    0.011125
    51  H    0.016493
    52  H    0.004598
    53  H   -0.000458
    54  H    0.045810
    55  H    0.026995
    56  H    0.015943
    57  H   -0.001696
    58  H    0.033561
    59  H    0.015872
    60  H    0.054924
    61  H    0.014235
    62  H    0.026515
    63  H    0.013907
    64  H    0.017089
    65  H    0.026041
    66  H    0.025178
    67  H    0.002875
    68  H    0.013559
    69  H   -0.002118
    70  H    0.021587
    71  H    0.022765
    72  H    0.019888
    73  H    0.040180
    74  H    0.029344
    75  H    0.021996
    76  H    0.037312
    77  H    0.039490
    78  H    0.037713
    79  H    0.054200
    80  Mg   0.832761
    81  C   -0.065612
    82  C   -0.081995
    83  C   -0.051840
    84  C   -0.084137
    85  N   -0.298299
    86  C   -0.025781
    87  C    0.018481
    88  C   -0.084329
    89  C    0.035854
    90  C    0.085089
    91  C    0.008042
    92  C   -0.055355
    93  H    0.025497
    94  N   -0.351554
    95  C    0.137585
    96  C   -0.183558
    97  C   -0.001198
    98  C    0.138257
    99  C    0.160171
   100  C   -0.032205
   101  O   -0.207988
   102  C    0.057949
   103  N   -0.289635
   104  C    0.015911
   105  C   -0.027197
   106  C   -0.062477
   107  C    0.016090
   108  C    0.089652
   109  C    0.056721
   110  C    0.010162
   111  N   -0.344926
   112  C    0.137348
   113  C   -0.195351
   114  C   -0.004418
   115  C    0.133852
   116  C    0.146233
   117  C    0.051128
   118  O   -0.169732
   119  C    0.007143
   120  C    0.187069
   121  O   -0.181060
   122  O   -0.345672
   123  C    0.175656
   124  H   -0.026722
   125  H   -0.055793
   126  H   -0.024808
   127  H    0.014635
   128  H    0.028496
   129  H    0.016102
   130  H    0.023436
   131  H    0.024304
   132  H   -0.006932
   133  H   -0.001129
   134  H    0.031148
   135  H    0.037555
   136  H    0.042149
   137  H   -0.001149
   138  H    0.032081
   139  H    0.043737
   140  H    0.018242
   141  H    0.031565
   142  H    0.006930
   143  H    0.007271
   144  H    0.018877
   145  H    0.023713
   146  H    0.006583
   147  H    0.033383
   148  H   -0.000396
   149  H    0.016112
   150  H    0.005060
   151  H    0.013760
   152  H    0.046463
   153  H    0.016170
   154  H    0.034351
   155  H    0.034137
   156  H    0.056373
   157  H    0.035419
   158  H    0.036546
 Sum of Mulliken charges =  -0.00000

 Dipole moment (field-independent basis, Debye):
    X=             -0.1511    Y=             -2.2352    Z=             -2.6546  Tot=              3.4736
 Quadrupole moment (field-independent basis, Debye-Ang):
   XX=           -267.9660   YY=           -573.4417   ZZ=           -487.7034
   XY=             98.6076   XZ=             23.2587   YZ=             -3.3977

 Normal termination of Gaussian 16 at Wed Sep 15 08:31:43 2021.
