 Gaussian 16, Revision A.03,
 Gaussian 16:  ES64L-G16RevA.03 25-Dec-2016

 ----------------------------------------------------------
 #p cam-b3lyp/Def2SVP td=(nstates=5) density=(transition=1)
 ----------------------------------------------------------

 --------------------------------
 TDDFT excited states in gaussian
 --------------------------------
 Symbolic Z-matrix:
 Charge =  0 Multiplicity = 1

                         Standard orientation:
 ---------------------------------------------------------------------
 Center     Atomic      Atomic             Coordinates (Angstroms)
 Number     Number       Type             X           Y           Z
 ---------------------------------------------------------------------
      1         12           0       20.550046   -0.789213   -0.041573
      2          6           0       22.664975    1.963606   -0.247677
      3          6           0       18.280511    1.140245    1.652320
      4          6           0       18.669533   -3.595763    0.406958
      5          6           0       23.155735   -2.649165   -1.585687
      6          7           0       20.494352    1.289839    0.653264
      7          6           0       21.430296    2.237628    0.333131
      8          6           0       20.900254    3.568930    0.871350
      9          6           0       19.685244    3.219619    1.712187
     10          6           0       19.448271    1.778097    1.276490
     11          6           0       19.731330    3.395978    3.206261
     12          6           0       20.642663    4.705047   -0.229163
     13          6           0       19.899478    5.984662    0.272746
     14          1           0       20.744263    7.177379    0.792198
     15          7           0       18.669105   -1.115790    0.772205
     16          6           0       17.910663   -0.215334    1.445622
     17          6           0       16.743049   -0.921557    1.904965
     18          6           0       16.868802   -2.295267    1.543973
     19          6           0       18.102032   -2.405210    0.904125
     20          6           0       15.662110   -0.197327    2.646477
     21          6           0       15.902813   -3.446975    1.947824
     22          8           0       16.244003   -4.615444    1.904932
     23          6           0       14.582067   -3.227548    2.514706
     24          7           0       20.867785   -2.703657   -0.505553
     25          6           0       19.938053   -3.717289   -0.275604
     26          6           0       20.409491   -5.081440   -0.808570
     27          6           0       21.662588   -4.672830   -1.655325
     28          6           0       21.879988   -3.223956   -1.251139
     29          6           0       20.498871   -6.178517    0.169867
     30          6           0       21.648672   -4.906948   -3.266263
     31          6           0       22.699812   -5.798816   -3.933740
     32          7           0       22.600196   -0.452542   -0.752611
     33          6           0       23.492009   -1.316060   -1.324309
     34          6           0       24.709324   -0.655441   -1.655820
     35          6           0       24.408864    0.717001   -1.308563
     36          6           0       23.132917    0.750407   -0.679270
     37          6           0       25.866429   -1.312817   -2.306226
     38          6           0       24.913727    2.068057   -1.394440
     39          8           0       25.904118    2.570971   -1.887707
     40          6           0       23.742437    2.953865   -0.664216
     41          6           0       24.305614    3.842699    0.383928
     42          8           0       24.806694    3.438869    1.410363
     43          8           0       24.184961    5.145492    0.074068
     44          6           0       24.484932    6.147673    1.167597
     45          1           0       17.530533    1.762805    2.145228
     46          1           0       18.050676   -4.480376    0.570000
     47          1           0       23.811686   -3.378370   -2.066111
     48          1           0       21.745369    3.867100    1.491661
     49          1           0       18.851823    3.859206    1.422677
     50          1           0       19.795486    2.348891    3.500626
     51          1           0       18.867994    3.938056    3.592410
     52          1           0       20.667115    3.841976    3.543835
     53          1           0       20.024897    4.170726   -0.951254
     54          1           0       21.589088    5.008395   -0.675226
     55          1           0       19.238496    5.763718    1.109892
     56          1           0       19.267776    6.342599   -0.540222
     57          1           0       15.743597    0.884930    2.752084
     58          1           0       15.710293   -0.570937    3.668778
     59          1           0       14.661045   -0.445139    2.292995
     60          1           0       14.451014   -2.526303    3.338190
     61          1           0       14.037551   -4.128386    2.797415
     62          1           0       14.022196   -2.880080    1.646679
     63          1           0       19.574925   -5.262782   -1.486405
     64          1           0       22.419758   -5.244909   -1.119358
     65          1           0       19.829630   -7.026978    0.024745
     66          1           0       20.295116   -5.755145    1.153750
     67          1           0       21.474785   -6.662332    0.208030
     68          1           0       21.738743   -3.927905   -3.736477
     69          1           0       20.732192   -5.298952   -3.708914
     70          1           0       23.491203   -5.262498   -4.457994
     71          1           0       22.295160   -6.616665   -4.529289
     72          1           0       23.268511   -6.278430   -3.136970
     73          1           0       26.050780   -2.262120   -1.803851
     74          1           0       26.751206   -0.677324   -2.332684
     75          1           0       25.526704   -1.676655   -3.276456
     76          1           0       23.348249    3.605503   -1.443341
     77          1           0       24.675410    7.054908    0.594678
     78          1           0       25.356856    5.804859    1.724303
     79          1           0       23.570761    6.253422    1.751914
     80         12           0      -21.438351   -0.365478   -0.047780
     81          6           0      -20.405624    2.874748   -0.758326
     82          6           0      -20.884586    0.308075    3.270776
     83          6           0      -22.208347   -3.656309    0.653961
     84          6           0      -21.438916   -1.159689   -3.441864
     85          7           0      -20.819472    1.428192    1.103285
     86          6           0      -20.555512    2.661751    0.639724
     87          6           0      -20.357341    3.737806    1.732639
     88          6           0      -20.278343    2.832524    3.035747
     89          6           0      -20.646442    1.383262    2.456590
     90          6           0      -18.843653    2.959608    3.661435
     91          6           0      -21.639651    4.716616    1.670490
     92          6           0      -21.346443    6.239083    1.526532
     93          1           0      -19.897740    6.656791    1.969842
     94          7           0      -21.477902   -1.569718    1.674106
     95          6           0      -21.293926   -1.055294    2.974191
     96          6           0      -21.666534   -2.073488    3.933028
     97          6           0      -21.998339   -3.228563    3.213705
     98          6           0      -21.984492   -2.837274    1.755530
     99          6           0      -21.364732   -1.906249    5.429064
    100          6           0      -22.361890   -4.630475    3.770812
    101          8           0      -22.655276   -5.622941    3.078322
    102          6           0      -22.444142   -4.805744    5.296967
    103          7           0      -21.690136   -2.143455   -1.268593
    104          6           0      -22.071432   -3.387806   -0.680521
    105          6           0      -22.086047   -4.502855   -1.746950
    106          6           0      -22.117456   -3.625873   -3.084445
    107          6           0      -21.769451   -2.205080   -2.568063
    108          6           0      -20.899265   -5.427193   -1.530427
    109          6           0      -23.555797   -3.638383   -3.754570
    110          6           0      -24.897067   -3.287978   -3.024638
    111          7           0      -20.950304    0.576748   -1.751630
    112          6           0      -20.974516    0.145949   -3.081650
    113          6           0      -20.579273    1.224915   -3.927672
    114          6           0      -20.391021    2.310267   -3.091109
    115          6           0      -20.522265    1.861743   -1.753596
    116          6           0      -20.351343    1.185180   -5.424948
    117          6           0      -20.060339    3.679889   -3.070740
    118          8           0      -19.723408    4.352559   -3.992412
    119          6           0      -19.942967    4.066155   -1.538268
    120          6           0      -18.491121    4.376067   -1.298929
    121          8           0      -17.728544    3.640031   -0.708318
    122          8           0      -18.231681    5.553251   -1.880263
    123          6           0      -16.825147    5.762528   -2.122112
    124          1           0      -20.789903    0.535383    4.334421
    125          1           0      -22.210798   -4.723525    0.882367
    126          1           0      -21.423115   -1.395586   -4.508449
    127          1           0      -19.474842    4.365451    1.610206
    128          1           0      -21.021488    3.062819    3.799507
    129          1           0      -18.399338    2.021219    3.994114
    130          1           0      -19.087115    3.618439    4.494482
    131          1           0      -18.245060    3.536201    2.956624
    132          1           0      -22.273610    4.467371    2.521156
    133          1           0      -22.223641    4.407223    0.803349
    134          1           0      -22.108947    6.657174    2.182818
    135          1           0      -21.496994    6.644662    0.526499
    136          1           0      -20.749560   -2.755870    5.726466
    137          1           0      -22.292781   -1.992879    5.995745
    138          1           0      -20.875929   -0.948307    5.603878
    139          1           0      -21.419241   -4.793122    5.670105
    140          1           0      -22.799286   -5.824009    5.454542
    141          1           0      -23.214243   -4.147485    5.698389
    142          1           0      -23.066008   -4.969340   -1.641989
    143          1           0      -21.467034   -4.073689   -3.834917
    144          1           0      -20.580493   -5.478231   -0.489202
    145          1           0      -20.047225   -5.103396   -2.127723
    146          1           0      -21.160024   -6.455563   -1.779703
    147          1           0      -23.682940   -4.605200   -4.241704
    148          1           0      -23.478180   -2.836316   -4.488621
    149          1           0      -25.286561   -4.199865   -2.571805
    150          1           0      -25.566726   -2.933472   -3.809084
    151          1           0      -24.861368   -2.448007   -2.330162
    152          1           0      -21.249284    0.896844   -5.971749
    153          1           0      -19.589963    0.415476   -5.549616
    154          1           0      -20.147039    2.146749   -5.897934
    155          1           0      -20.493190    4.940789   -1.190858
    156          1           0      -16.613423    6.373296   -2.999429
    157          1           0      -16.108679    4.942234   -2.080953
    158          1           0      -16.332558    6.341176   -1.340390
 ---------------------------------------------------------------------

 SCF Done:  E(RCAM-B3LYP) =  -4069.81754767     A.U. after   18 cycles

 Excitation energies and oscillator strengths:

 Excited State   1:      Singlet-A      1.6981 eV  730.13 nm  f=0.3898  <S**2>=0.000
     309 -> 315       -0.17918
     311 -> 313        0.68564
     309 <- 315       -0.10833
 This state for optimization and/or second-order correction.
 Total Energy, E(TD-HF/TD-DFT) =  -4069.75514320
 Copying the excited state density for this state as the 1-particle RhoCI density.

 Excited State   2:      Singlet-A      1.7042 eV  727.51 nm  f=0.3987  <S**2>=0.000
     310 -> 316       -0.17572
     312 -> 314        0.68631
     310 <- 316       -0.10651

 Excited State   3:      Singlet-A      2.2224 eV  557.87 nm  f=0.0889  <S**2>=0.000
     309 -> 313        0.63206
     311 -> 315        0.30131

 Excited State   4:      Singlet-A      2.2267 eV  556.81 nm  f=0.1322  <S**2>=0.000
     310 -> 314        0.64608
     312 -> 316        0.27549

 Excited State   5:      Singlet-A      3.0986 eV  400.13 nm  f=0.0000  <S**2>=0.000
     312 -> 313        0.70710

 The electronic state is 1-A.
 Alpha  occ. eigenvalues --  -46.88101 -46.87872 -19.26181 -19.24415 -19.20093
 Alpha  occ. eigenvalues --  -19.19385 -19.19074 -19.18656 -19.18634 -19.18254
 Alpha  occ. eigenvalues --  -14.42708 -14.42267 -14.42037 -14.41456 -14.39578
 Alpha  occ. eigenvalues --  -14.39082 -14.39043 -14.38434 -10.39351 -10.37962
 Alpha  occ. eigenvalues --  -10.35579 -10.35143 -10.34852 -10.34643 -10.32103
 Alpha  occ. eigenvalues --  -10.31622 -10.31593 -10.31384 -10.31122 -10.31109
 Alpha  occ. eigenvalues --  -10.30688 -10.30438 -10.30371 -10.30178 -10.29923
 Alpha  occ. eigenvalues --  -10.29851 -10.29800 -10.29692 -10.29684 -10.29659
 Alpha  occ. eigenvalues --  -10.29605 -10.28989 -10.28906 -10.28543 -10.28422
 Alpha  occ. eigenvalues --  -10.28291 -10.28165 -10.28162 -10.28133 -10.28106
 Alpha  occ. eigenvalues --  -10.28067 -10.27876 -10.27687 -10.27684 -10.27617
 Alpha  occ. eigenvalues --  -10.27529 -10.27527 -10.27519 -10.27257 -10.27209
 Alpha  occ. eigenvalues --  -10.27135 -10.27087 -10.27052 -10.27033 -10.27027
 Alpha  occ. eigenvalues --  -10.26947 -10.26938 -10.26858 -10.26852 -10.26754
 Alpha  occ. eigenvalues --  -10.26737 -10.26708 -10.26549 -10.26277 -10.26247
 Alpha  occ. eigenvalues --  -10.26149 -10.25841 -10.25808 -10.25745 -10.25627
 Alpha  occ. eigenvalues --  -10.25585 -10.25485 -10.25281 -10.25236 -10.25226
 Alpha  occ. eigenvalues --  -10.24704  -3.16703  -3.16532  -1.91604  -1.91448
 Alpha  occ. eigenvalues --   -1.91137  -1.91025  -1.90989  -1.90835  -1.18186
 Alpha  occ. eigenvalues --   -1.15842  -1.12039  -1.10977  -1.09485  -1.09109
 Alpha  occ. eigenvalues --   -1.08354  -1.06728  -1.05236  -1.04177  -1.04105
 Alpha  occ. eigenvalues --   -1.03341  -1.03311  -1.02732  -1.02347  -1.01185
 Alpha  occ. eigenvalues --   -0.92822  -0.92429  -0.89210  -0.88705  -0.88556
 Alpha  occ. eigenvalues --   -0.88328  -0.88155  -0.87776  -0.87567  -0.87100
 Alpha  occ. eigenvalues --   -0.86969  -0.86698  -0.86521  -0.86039  -0.84637
 Alpha  occ. eigenvalues --   -0.83956  -0.83701  -0.83422  -0.82636  -0.82467
 Alpha  occ. eigenvalues --   -0.82308  -0.81407  -0.81222  -0.80930  -0.80738
 Alpha  occ. eigenvalues --   -0.79958  -0.78789  -0.77791  -0.77736  -0.77279
 Alpha  occ. eigenvalues --   -0.77132  -0.76758  -0.75889  -0.75883  -0.75144
 Alpha  occ. eigenvalues --   -0.74980  -0.72982  -0.72774  -0.71812  -0.71205
 Alpha  occ. eigenvalues --   -0.69384  -0.68941  -0.68912  -0.68668  -0.68222
 Alpha  occ. eigenvalues --   -0.67994  -0.66913  -0.66391  -0.65878  -0.65543
 Alpha  occ. eigenvalues --   -0.65419  -0.64675  -0.64572  -0.64501  -0.64200
 Alpha  occ. eigenvalues --   -0.63960  -0.62409  -0.61421  -0.60525  -0.60022
 Alpha  occ. eigenvalues --   -0.59750  -0.59425  -0.58982  -0.58949  -0.58825
 Alpha  occ. eigenvalues --   -0.58443  -0.58022  -0.57954  -0.57296  -0.57276
 Alpha  occ. eigenvalues --   -0.56358  -0.56289  -0.55748  -0.55704  -0.55405
 Alpha  occ. eigenvalues --   -0.54928  -0.54779  -0.54570  -0.54408  -0.53990
 Alpha  occ. eigenvalues --   -0.53801  -0.53391  -0.53153  -0.53147  -0.52961
 Alpha  occ. eigenvalues --   -0.52609  -0.52588  -0.52340  -0.52230  -0.52072
 Alpha  occ. eigenvalues --   -0.52014  -0.51879  -0.51758  -0.51310  -0.50987
 Alpha  occ. eigenvalues --   -0.50978  -0.50838  -0.50639  -0.50488  -0.50297
 Alpha  occ. eigenvalues --   -0.49929  -0.49926  -0.49836  -0.49533  -0.49433
 Alpha  occ. eigenvalues --   -0.49341  -0.49187  -0.49134  -0.48987  -0.48865
 Alpha  occ. eigenvalues --   -0.48620  -0.48616  -0.48352  -0.48224  -0.47969
 Alpha  occ. eigenvalues --   -0.47760  -0.47716  -0.47501  -0.47444  -0.47154
 Alpha  occ. eigenvalues --   -0.47099  -0.46832  -0.46677  -0.46586  -0.46533
 Alpha  occ. eigenvalues --   -0.46289  -0.46247  -0.46193  -0.46060  -0.45748
 Alpha  occ. eigenvalues --   -0.45596  -0.45206  -0.45147  -0.45108  -0.44957
 Alpha  occ. eigenvalues --   -0.44795  -0.44654  -0.44571  -0.44401  -0.44347
 Alpha  occ. eigenvalues --   -0.44235  -0.44006  -0.43778  -0.43678  -0.43624
 Alpha  occ. eigenvalues --   -0.43435  -0.43365  -0.43076  -0.43035  -0.42805
 Alpha  occ. eigenvalues --   -0.42698  -0.42674  -0.42402  -0.41952  -0.41946
 Alpha  occ. eigenvalues --   -0.41820  -0.41770  -0.41505  -0.41338  -0.41278
 Alpha  occ. eigenvalues --   -0.40958  -0.40827  -0.40698  -0.40375  -0.40298
 Alpha  occ. eigenvalues --   -0.40193  -0.39582  -0.39500  -0.39271  -0.39171
 Alpha  occ. eigenvalues --   -0.38783  -0.37769  -0.37701  -0.37482  -0.37256
 Alpha  occ. eigenvalues --   -0.37117  -0.37085  -0.36880  -0.36485  -0.36284
 Alpha  occ. eigenvalues --   -0.36137  -0.36049  -0.34828  -0.34116  -0.34063
 Alpha  occ. eigenvalues --   -0.33978  -0.32979  -0.32687  -0.31667  -0.31302
 Alpha  occ. eigenvalues --   -0.30983  -0.30962  -0.30464  -0.30291  -0.30203
 Alpha  occ. eigenvalues --   -0.29713  -0.29606  -0.29043  -0.24200  -0.23789
 Alpha  occ. eigenvalues --   -0.21122  -0.20997
 Alpha virt. eigenvalues --   -0.08791  -0.08571  -0.01869  -0.01362   0.00539
 Alpha virt. eigenvalues --    0.00621   0.02460   0.02539   0.02736   0.03384
 Alpha virt. eigenvalues --    0.04510   0.04704   0.05248   0.06104   0.06186

 Mulliken charges:
               1
     1  Mg  12.003239
     2  C    6.023375
     3  C    5.978915
     4  C    5.976622
     5  C    6.016896
     6  N    7.005781
     7  C    5.962243
     8  C    6.007543
     9  C    5.992632
    10  C    6.029571
    11  C    5.998906
    12  C    6.005355
    13  C    5.998601
    14  H    1.000953
    15  N    6.991530
    16  C    6.042203
    17  C    6.028359
    18  C    6.008914
    19  C    6.040783
    20  C    5.993214
    21  C    6.012638
    22  O    8.021816
    23  C    5.991892
    24  N    6.995669
    25  C    6.045855
    26  C    5.989667
    27  C    6.015442
    28  C    5.961638
    29  C    5.997474
    30  C    6.003037
    31  C    6.000348
    32  N    7.006162
    33  C    5.961356
    34  C    5.968327
    35  C    5.996380
    36  C    5.963959
    37  C    6.002879
    38  C    5.984333
    39  O    7.968731
    40  C    5.996404
    41  C    5.996401
    42  O    7.995282
    43  O    7.998933
    44  C    6.001463
    45  H    1.008407
    46  H    1.009036
    47  H    0.988305
    48  H    1.000375
    49  H    0.999642
    50  H    0.995057
    51  H    1.000494
    52  H    1.013197
    53  H    0.993217
    54  H    1.005597
    55  H    0.992612
    56  H    0.997512
    57  H    1.022403
    58  H    1.023450
    59  H    1.021869
    60  H    1.005129
    61  H    1.014815
    62  H    1.007789
    63  H    0.999404
    64  H    0.997379
    65  H    1.002254
    66  H    0.996581
    67  H    1.013501
    68  H    1.003338
    69  H    0.987484
    70  H    1.004578
    71  H    0.994062
    72  H    0.997917
    73  H    0.979999
    74  H    0.984836
    75  H    0.977578
    76  H    0.992759
    77  H    0.996325
    78  H    0.998173
    79  H    0.993206
    80  Mg  12.000061
    81  C    5.999417
    82  C    6.000389
    83  C    6.000669
    84  C    5.999957
    85  N    6.999842
    86  C    6.000740
    87  C    5.999772
    88  C    6.000190
    89  C    5.999326
    90  C    6.000084
    91  C    5.999895
    92  C    5.999960
    93  H    1.000020
    94  N    7.000186
    95  C    5.998897
    96  C    5.999691
    97  C    5.999614
    98  C    5.999046
    99  C    6.000086
   100  C    5.999721
   101  O    7.999382
   102  C    6.000135
   103  N    7.000250
   104  C    5.999137
   105  C    6.000221
   106  C    5.999716
   107  C    6.000520
   108  C    6.000106
   109  C    5.999851
   110  C    6.000061
   111  N    6.999851
   112  C    6.000735
   113  C    6.000660
   114  C    5.999985
   115  C    6.000788
   116  C    5.999951
   117  C    6.000417
   118  O    8.000607
   119  C    6.000052
   120  C    6.000031
   121  O    8.000131
   122  O    8.000019
   123  C    5.999916
   124  H    0.999726
   125  H    0.999902
   126  H    1.000305
   127  H    0.999980
   128  H    1.000023
   129  H    1.000008
   130  H    0.999899
   131  H    0.999663
   132  H    1.000298
   133  H    0.999959
   134  H    1.000144
   135  H    0.999959
   136  H    0.999582
   137  H    0.999640
   138  H    0.999576
   139  H    0.999758
   140  H    0.999697
   141  H    0.999887
   142  H    1.000066
   143  H    1.000077
   144  H    1.000133
   145  H    0.999688
   146  H    0.999912
   147  H    1.000239
   148  H    0.999891
   149  H    1.000212
   150  H    1.000038
   151  H    1.000033
   152  H    1.000499
   153  H    1.000327
   154  H    1.000336
   155  H    1.000274
   156  H    1.000085
   157  H    0.999980
   158  H    1.000120
 Sum of Mulliken charges = 624.00000

 Dipole moment (field-independent basis, Debye):
    X=             -9.8825    Y=             -2.3055    Z=              4.2515  Tot=             11.0025
 Quadrupole moment (field-independent basis, Debye-Ang):
   XX=           -410.1458   YY=              0.9045   ZZ=              0.6814
   XY=            -45.1288   XZ=             94.6780   YZ=             -4.8134

 Normal termination of Gaussian 16 at Thu Sep 23 01:18:05 2021.
