 Gaussian 16, Revision A.03,
 Gaussian 16:  ES64L-G16RevA.03 25-Dec-2016

 -----------------------------------
 #p cam-b3lyp/Def2SVP td=(nstates=5)
 -----------------------------------

 --------------------------------
 TDDFT excited states in gaussian
 --------------------------------
 Symbolic Z-matrix:
 Charge =  0 Multiplicity = 1

                         Standard orientation:
 ---------------------------------------------------------------------
 Center     Atomic      Atomic             Coordinates (Angstroms)
 Number     Number       Type             X           Y           Z
 ---------------------------------------------------------------------
      1         12           0       -9.132454    0.731947   -0.032427
      2          6           0       -7.428148   -1.674388    1.906457
      3          6           0       -7.272014    3.230427    1.537300
      4          6           0      -10.022311    2.822679   -2.572384
      5          6           0      -10.525839   -2.021468   -1.850954
      6          7           0       -7.595284    0.747624    1.531983
      7          6           0       -7.047509   -0.324157    2.143170
      8          6           0       -5.873282    0.103939    3.082376
      9          6           0       -6.151597    1.673741    3.187108
     10          6           0       -7.128501    1.947725    1.998124
     11          6           0       -6.806071    2.280256    4.449057
     12          6           0       -4.506953   -0.270685    2.393151
     13          6           0       -3.405021   -0.738374    3.383953
     14          1           0       -1.944014   -0.210709    3.079521
     15          7           0       -8.871866    2.852556   -0.373150
     16          6           0       -8.112251    3.656178    0.435049
     17          6           0       -8.232302    4.969814   -0.073036
     18          6           0       -8.956041    4.927387   -1.301666
     19          6           0       -9.380432    3.496396   -1.463194
     20          6           0       -7.604160    6.197331    0.543479
     21          6           0       -9.111179    6.034953   -2.287296
     22          8           0       -8.549682    7.109258   -2.144695
     23          6           0       -9.858479    5.946003   -3.514675
     24          7           0      -10.057832    0.374835   -2.018374
     25          6           0      -10.454105    1.481918   -2.783204
     26          6           0      -11.335302    1.051959   -3.914098
     27          6           0      -11.462892   -0.507803   -3.750386
     28          6           0      -10.653817   -0.763002   -2.490426
     29          6           0      -12.666528    1.809059   -3.825216
     30          6           0      -11.153209   -1.311422   -5.069224
     31          6           0      -12.229981   -2.222213   -5.576192
     32          7           0       -9.063167   -1.456393    0.001314
     33          6           0       -9.725697   -2.384380   -0.764085
     34          6           0       -9.519120   -3.744474   -0.219838
     35          6           0       -8.561056   -3.465914    0.790794
     36          6           0       -8.399862   -2.100137    0.930033
     37          6           0      -10.018273   -5.082542   -0.742139
     38          6           0       -7.643662   -4.111092    1.692074
     39          8           0       -7.416265   -5.318315    1.867464
     40          6           0       -6.881356   -3.041276    2.473451
     41          6           0       -7.040447   -3.226021    3.927984
     42          8           0       -6.124918   -3.396766    4.648565
     43          8           0       -8.307172   -2.984650    4.375342
     44          6           0       -8.338737   -2.928945    5.852979
     45          1           0       -6.764578    4.044292    2.060281
     46          1           0      -10.352639    3.565368   -3.300303
     47          1           0      -10.824247   -2.974384   -2.294230
     48          1           0       -5.989654   -0.422640    4.029782
     49          1           0       -5.350547    2.313769    2.817623
     50          1           0       -7.414565    1.531780    4.957898
     51          1           0       -7.408110    3.176653    4.299972
     52          1           0       -5.981133    2.526602    5.116707
     53          1           0       -4.144816    0.553655    1.778148
     54          1           0       -4.759261   -1.086552    1.715732
     55          1           0       -3.441088   -1.824896    3.302839
     56          1           0       -3.815567   -0.446742    4.350904
     57          1           0       -8.057244    7.154343    0.284428
     58          1           0       -6.574177    6.157309    0.190061
     59          1           0       -7.385376    6.150068    1.610268
     60          1           0      -10.892826    5.738189   -3.237760
     61          1           0       -9.437059    5.191223   -4.179233
     62          1           0       -9.795870    6.906501   -4.026251
     63          1           0      -10.821444    1.171951   -4.867554
     64          1           0      -12.388823   -0.897306   -3.326682
     65          1           0      -12.629665    2.668402   -3.155245
     66          1           0      -13.466457    1.175496   -3.442058
     67          1           0      -12.851988    2.328391   -4.764960
     68          1           0      -10.251781   -1.878093   -4.835931
     69          1           0      -11.027876   -0.683461   -5.950544
     70          1           0      -11.787661   -3.212519   -5.681188
     71          1           0      -12.573610   -1.931524   -6.569099
     72          1           0      -13.140610   -2.185759   -4.978179
     73          1           0       -9.399569   -5.477160   -1.548362
     74          1           0      -11.070640   -5.067371   -1.028455
     75          1           0       -9.816008   -5.723934    0.115563
     76          1           0       -5.809980   -3.181721    2.336060
     77          1           0       -9.368379   -2.734254    6.154164
     78          1           0       -7.673941   -2.148829    6.223619
     79          1           0       -8.136471   -3.880817    6.342813
     80         12           0        9.328669    0.159276   -0.265012
     81          6           0        6.706447   -2.402235   -0.268458
     82          6           0        7.360281    1.869183    2.075416
     83          6           0       11.430941    2.642714   -0.466431
     84          6           0       11.169518   -1.772741   -2.419197
     85          7           0        7.207153   -0.115938    0.610793
     86          6           0        6.352991   -1.296831    0.582477
     87          6           0        5.061946   -1.151873    1.416387
     88          6           0        5.280641    0.370683    1.977188
     89          6           0        6.698077    0.785078    1.535919
     90          6           0        4.210132    1.346977    1.529785
     91          6           0        4.956479   -2.296831    2.468751
     92          6           0        3.912834   -2.102173    3.527240
     93          1           0        3.021692   -3.257783    3.924860
     94          7           0        9.404572    2.049969    0.657379
     95          6           0        8.513679    2.577897    1.598754
     96          6           0        8.977045    3.895484    2.029963
     97          6           0       10.202356    4.153884    1.289168
     98          6           0       10.428045    2.934961    0.427544
     99          6           0        8.299558    4.767660    3.149699
    100          6           0       11.097911    5.339457    1.251912
    101          8           0       12.130121    5.418906    0.599242
    102          6           0       10.833717    6.490824    2.131073
    103          7           0       11.049669    0.363537   -1.192080
    104          6           0       11.701840    1.526574   -1.240222
    105          6           0       12.984944    1.456899   -2.101101
    106          6           0       13.100563   -0.036177   -2.327810
    107          6           0       11.638077   -0.541972   -2.019700
    108          6           0       12.883990    2.251803   -3.397814
    109          6           0       14.111786   -0.896649   -1.615463
    110          6           0       13.931878   -0.955375   -0.113561
    111          7           0        9.004792   -1.645060   -1.253561
    112          6           0        9.928088   -2.356358   -2.040982
    113          6           0        9.325446   -3.598292   -2.458450
    114          6           0        8.123639   -3.625064   -1.705120
    115          6           0        7.952358   -2.420262   -0.997053
    116          6           0        9.918462   -4.692808   -3.296848
    117          6           0        6.976028   -4.536091   -1.404910
    118          8           0        6.773557   -5.728401   -1.719461
    119          6           0        6.039902   -3.736483   -0.501459
    120          6           0        4.642175   -3.672926   -1.120841
    121          8           0        4.248528   -3.135733   -2.198034
    122          8           0        3.780029   -4.200244   -0.205417
    123          6           0        2.346811   -4.158725   -0.574224
    124          1           0        6.853236    2.294472    2.942906
    125          1           0       12.112794    3.485394   -0.598048
    126          1           0       11.687268   -2.427781   -3.123145
    127          1           0        4.249223   -1.314263    0.708485
    128          1           0        5.369139    0.335230    3.063030
    129          1           0        3.735444    1.769109    2.416011
    130          1           0        3.477482    0.763082    0.973788
    131          1           0        4.466903    2.048279    0.736136
    132          1           0        5.973700   -2.454505    2.828897
    133          1           0        4.720801   -3.224246    1.946630
    134          1           0        3.143809   -1.354965    3.332690
    135          1           0        4.402743   -1.875724    4.473805
    136          1           0        9.057507    4.851270    3.929096
    137          1           0        7.408079    4.309210    3.577434
    138          1           0        8.071262    5.728127    2.687480
    139          1           0        9.784623    6.784835    2.169612
    140          1           0       11.421444    7.291554    1.683554
    141          1           0       11.044894    6.106812    3.128628
    142          1           0       13.792050    1.879200   -1.502377
    143          1           0       13.343586   -0.275599   -3.363430
    144          1           0       13.834976    2.755204   -3.568056
    145          1           0       12.099465    3.005484   -3.339061
    146          1           0       12.803035    1.574931   -4.249099
    147          1           0       15.105026   -0.567201   -1.921723
    148          1           0       13.982288   -1.947113   -1.875428
    149          1           0       14.874609   -0.823891    0.416275
    150          1           0       13.570575   -1.924919    0.230016
    151          1           0       13.262608   -0.194990    0.289119
    152          1           0        9.826279   -5.644271   -2.773665
    153          1           0       10.956498   -4.642846   -3.625524
    154          1           0        9.328825   -4.741939   -4.212519
    155          1           0        5.914558   -4.289996    0.429576
    156          1           0        1.860136   -3.326690   -0.065761
    157          1           0        2.067655   -5.165108   -0.262157
    158          1           0        2.194334   -4.148837   -1.654224
 ---------------------------------------------------------------------

 SCF Done:  E(RCAM-B3LYP) =  -4069.79576494     A.U. after   19 cycles

 Excitation energies and oscillator strengths:

 Excited State   1:      Singlet-A      1.6609 eV  746.49 nm  f=0.2123  <S**2>=0.000
     310 -> 316        0.15924
     311 -> 313       -0.18488
     312 -> 314        0.66363
     310 <- 316        0.10133
 This state for optimization and/or second-order correction.
 Total Energy, E(TD-HF/TD-DFT) =  -4069.73472778
 Copying the excited state density for this state as the 1-particle RhoCI density.

 Excited State   2:      Singlet-A      1.6819 eV  737.18 nm  f=0.5742  <S**2>=0.000
     309 -> 315       -0.16695
     311 -> 313        0.66169
     312 -> 314        0.18475
     309 <- 315       -0.10282

 Excited State   3:      Singlet-A      2.1705 eV  571.23 nm  f=0.1474  <S**2>=0.000
     310 -> 314        0.65125
     312 -> 316       -0.25347

 Excited State   4:      Singlet-A      2.2028 eV  562.86 nm  f=0.1102  <S**2>=0.000
     309 -> 313        0.64031
     311 -> 315        0.28090

 Excited State   5:      Singlet-A      2.7146 eV  456.73 nm  f=0.0000  <S**2>=0.000
     312 -> 313        0.70699

 The electronic state is 1-A.
 Alpha  occ. eigenvalues --  -46.90965 -46.87648 -19.25568 -19.25264 -19.20082
 Alpha  occ. eigenvalues --  -19.19467 -19.18976 -19.18671 -19.18344 -19.17429
 Alpha  occ. eigenvalues --  -14.43096 -14.42842 -14.42387 -14.42060 -14.40032
 Alpha  occ. eigenvalues --  -14.39851 -14.39428 -14.38752 -10.39788 -10.38891
 Alpha  occ. eigenvalues --  -10.34907 -10.34645 -10.34523 -10.33611 -10.32397
 Alpha  occ. eigenvalues --  -10.32099 -10.31974 -10.31968 -10.31854 -10.31679
 Alpha  occ. eigenvalues --  -10.31382 -10.31259 -10.31183 -10.31138 -10.30989
 Alpha  occ. eigenvalues --  -10.30585 -10.30518 -10.30365 -10.30305 -10.29988
 Alpha  occ. eigenvalues --  -10.29432 -10.29243 -10.29217 -10.29161 -10.29124
 Alpha  occ. eigenvalues --  -10.29048 -10.28814 -10.28760 -10.28728 -10.28686
 Alpha  occ. eigenvalues --  -10.28662 -10.28550 -10.28541 -10.28512 -10.28496
 Alpha  occ. eigenvalues --  -10.28457 -10.28339 -10.28289 -10.28146 -10.27871
 Alpha  occ. eigenvalues --  -10.27679 -10.27600 -10.27424 -10.27403 -10.27296
 Alpha  occ. eigenvalues --  -10.27136 -10.27075 -10.27035 -10.26906 -10.26880
 Alpha  occ. eigenvalues --  -10.26781 -10.26659 -10.26600 -10.26580 -10.26159
 Alpha  occ. eigenvalues --  -10.25814 -10.25802 -10.25743 -10.25635 -10.25615
 Alpha  occ. eigenvalues --  -10.25575 -10.25546 -10.25393 -10.25382 -10.24594
 Alpha  occ. eigenvalues --  -10.24477  -3.19112  -3.16388  -1.94026  -1.93548
 Alpha  occ. eigenvalues --   -1.93408  -1.91293  -1.90854  -1.90690  -1.18132
 Alpha  occ. eigenvalues --   -1.15816  -1.10293  -1.09659  -1.09198  -1.09089
 Alpha  occ. eigenvalues --   -1.07677  -1.05592  -1.05244  -1.04949  -1.03897
 Alpha  occ. eigenvalues --   -1.03552  -1.02715  -1.02662  -1.02163  -1.00489
 Alpha  occ. eigenvalues --   -0.92771  -0.92181  -0.89603  -0.89508  -0.89145
 Alpha  occ. eigenvalues --   -0.88754  -0.88547  -0.88423  -0.88228  -0.87214
 Alpha  occ. eigenvalues --   -0.87135  -0.86897  -0.85949  -0.85776  -0.85009
 Alpha  occ. eigenvalues --   -0.84770  -0.84649  -0.83944  -0.82869  -0.82808
 Alpha  occ. eigenvalues --   -0.82649  -0.82205  -0.81269  -0.81062  -0.80698
 Alpha  occ. eigenvalues --   -0.79957  -0.78765  -0.78418  -0.77750  -0.77159
 Alpha  occ. eigenvalues --   -0.76995  -0.76685  -0.76678  -0.75827  -0.75574
 Alpha  occ. eigenvalues --   -0.75397  -0.73277  -0.72653  -0.72649  -0.71839
 Alpha  occ. eigenvalues --   -0.70197  -0.69498  -0.69368  -0.69320  -0.68140
 Alpha  occ. eigenvalues --   -0.67495  -0.67088  -0.67025  -0.66452  -0.65894
 Alpha  occ. eigenvalues --   -0.65132  -0.64946  -0.64787  -0.64552  -0.64200
 Alpha  occ. eigenvalues --   -0.63692  -0.63458  -0.61796  -0.60203  -0.60152
 Alpha  occ. eigenvalues --   -0.60128  -0.59140  -0.59057  -0.59006  -0.58965
 Alpha  occ. eigenvalues --   -0.58465  -0.58197  -0.57579  -0.57284  -0.57211
 Alpha  occ. eigenvalues --   -0.56644  -0.56219  -0.56173  -0.55821  -0.55693
 Alpha  occ. eigenvalues --   -0.55362  -0.55258  -0.55208  -0.54676  -0.54649
 Alpha  occ. eigenvalues --   -0.54155  -0.53656  -0.53507  -0.53364  -0.53287
 Alpha  occ. eigenvalues --   -0.53003  -0.52959  -0.52766  -0.52605  -0.52418
 Alpha  occ. eigenvalues --   -0.52395  -0.52009  -0.51966  -0.51587  -0.51480
 Alpha  occ. eigenvalues --   -0.51022  -0.50999  -0.50712  -0.50625  -0.50257
 Alpha  occ. eigenvalues --   -0.50179  -0.50093  -0.49958  -0.49719  -0.49661
 Alpha  occ. eigenvalues --   -0.49426  -0.49394  -0.49181  -0.48745  -0.48730
 Alpha  occ. eigenvalues --   -0.48688  -0.48523  -0.48441  -0.48354  -0.48334
 Alpha  occ. eigenvalues --   -0.47949  -0.47700  -0.47594  -0.47454  -0.47449
 Alpha  occ. eigenvalues --   -0.47083  -0.46917  -0.46849  -0.46797  -0.46649
 Alpha  occ. eigenvalues --   -0.46571  -0.46473  -0.46412  -0.46050  -0.45875
 Alpha  occ. eigenvalues --   -0.45859  -0.45557  -0.45335  -0.45272  -0.45210
 Alpha  occ. eigenvalues --   -0.45024  -0.44837  -0.44796  -0.44500  -0.44428
 Alpha  occ. eigenvalues --   -0.44227  -0.44145  -0.44077  -0.43866  -0.43735
 Alpha  occ. eigenvalues --   -0.43473  -0.43381  -0.43117  -0.43080  -0.43018
 Alpha  occ. eigenvalues --   -0.42770  -0.42483  -0.42445  -0.42371  -0.42070
 Alpha  occ. eigenvalues --   -0.41986  -0.41736  -0.41649  -0.41387  -0.41151
 Alpha  occ. eigenvalues --   -0.41085  -0.40921  -0.40855  -0.40367  -0.40213
 Alpha  occ. eigenvalues --   -0.39833  -0.39797  -0.39443  -0.39095  -0.39010
 Alpha  occ. eigenvalues --   -0.38797  -0.38793  -0.38157  -0.37798  -0.37374
 Alpha  occ. eigenvalues --   -0.37220  -0.37069  -0.37010  -0.36602  -0.36539
 Alpha  occ. eigenvalues --   -0.36397  -0.35925  -0.35081  -0.34275  -0.34179
 Alpha  occ. eigenvalues --   -0.33955  -0.33622  -0.32959  -0.31627  -0.31405
 Alpha  occ. eigenvalues --   -0.31177  -0.31109  -0.30515  -0.30282  -0.30205
 Alpha  occ. eigenvalues --   -0.30117  -0.29321  -0.29065  -0.24642  -0.24141
 Alpha  occ. eigenvalues --   -0.21701  -0.21369
 Alpha virt. eigenvalues --   -0.09510  -0.09188  -0.02375  -0.01555   0.00148
 Alpha virt. eigenvalues --    0.00441   0.01092   0.02300   0.02308   0.03480
 Alpha virt. eigenvalues --    0.04362   0.04666   0.05231   0.05301   0.05915

 Mulliken charges:
               1
     1  Mg   0.801408
     2  C    0.004263
     3  C   -0.071811
     4  C   -0.019414
     5  C   -0.047843
     6  N   -0.286879
     7  C   -0.055511
     8  C   -0.042643
     9  C   -0.052583
    10  C    0.058116
    11  C    0.080747
    12  C    0.048699
    13  C   -0.049452
    14  H    0.021657
    15  N   -0.365247
    16  C    0.114228
    17  C   -0.149719
    18  C   -0.022248
    19  C    0.090920
    20  C    0.140607
    21  C   -0.050153
    22  O   -0.214489
    23  C    0.078902
    24  N   -0.287352
    25  C    0.025778
    26  C   -0.009865
    27  C   -0.012918
    28  C    0.028506
    29  C    0.074332
    30  C    0.039429
    31  C   -0.004235
    32  N   -0.281397
    33  C    0.026109
    34  C   -0.154707
    35  C    0.014876
    36  C    0.076402
    37  C    0.107427
    38  C    0.020267
    39  O   -0.189847
    40  C    0.052598
    41  C    0.149427
    42  O   -0.180646
    43  O   -0.336299
    44  C    0.181899
    45  H   -0.018437
    46  H   -0.052984
    47  H   -0.026756
    48  H    0.012560
    49  H    0.009265
    50  H    0.010503
    51  H    0.025406
    52  H    0.016489
    53  H    0.017803
    54  H    0.013276
    55  H    0.043106
    56  H    0.032447
    57  H    0.047337
    58  H    0.015571
    59  H   -0.005257
    60  H    0.030048
    61  H    0.043727
    62  H    0.025021
    63  H    0.021653
    64  H    0.015246
    65  H    0.014883
    66  H    0.019052
    67  H    0.014898
    68  H    0.017139
    69  H    0.016290
    70  H    0.020925
    71  H    0.008928
    72  H    0.012688
    73  H    0.041833
    74  H    0.030114
    75  H    0.041991
    76  H    0.030533
    77  H    0.027786
    78  H    0.035605
    79  H    0.039982
    80  Mg   0.833622
    81  C   -0.021196
    82  C   -0.080093
    83  C   -0.082948
    84  C   -0.070487
    85  N   -0.301390
    86  C   -0.047245
    87  C   -0.021610
    88  C   -0.058396
    89  C    0.063949
    90  C    0.100686
    91  C    0.032653
    92  C   -0.072200
    93  H    0.014326
    94  N   -0.386336
    95  C    0.146905
    96  C   -0.156180
    97  C   -0.010882
    98  C    0.125035
    99  C    0.113785
   100  C   -0.027348
   101  O   -0.211883
   102  C    0.063968
   103  N   -0.345426
   104  C    0.087635
   105  C   -0.030073
   106  C   -0.026271
   107  C    0.096117
   108  C    0.088034
   109  C    0.059814
   110  C   -0.013175
   111  N   -0.360302
   112  C    0.064969
   113  C   -0.139251
   114  C   -0.053456
   115  C    0.135947
   116  C    0.107507
   117  C    0.083503
   118  O   -0.200177
   119  C    0.008663
   120  C    0.216074
   121  O   -0.257952
   122  O   -0.336208
   123  C    0.163625
   124  H   -0.033288
   125  H   -0.005519
   126  H   -0.025390
   127  H    0.026064
   128  H    0.008851
   129  H    0.023283
   130  H    0.000378
   131  H    0.025332
   132  H    0.009202
   133  H    0.037258
   134  H    0.030451
   135  H    0.032317
   136  H    0.038999
   137  H    0.020267
   138  H    0.045658
   139  H    0.005799
   140  H    0.040697
   141  H    0.037623
   142  H    0.013620
   143  H   -0.013446
   144  H    0.012618
   145  H    0.026519
   146  H    0.015416
   147  H    0.008986
   148  H    0.003962
   149  H    0.005024
   150  H    0.012532
   151  H    0.022062
   152  H    0.039158
   153  H    0.004925
   154  H    0.032517
   155  H    0.050138
   156  H    0.048991
   157  H    0.043721
   158  H    0.058935
 Sum of Mulliken charges =  -0.00000

 Dipole moment (field-independent basis, Debye):
    X=             -5.2825    Y=              3.8576    Z=              2.4334  Tot=              6.9791
 Quadrupole moment (field-independent basis, Debye-Ang):
   XX=           -417.1708   YY=           -588.7110   ZZ=           -481.8764
   XY=             13.8492   XZ=             34.0379   YZ=             23.6059

 Normal termination of Gaussian 16 at Tue Sep 14 23:38:17 2021.
