 Gaussian 16, Revision A.03,
 Gaussian 16:  ES64L-G16RevA.03 25-Dec-2016

 ----------------------------------------------------------
 #p cam-b3lyp/Def2SVP td=(nstates=5) density=(transition=1)
 ----------------------------------------------------------

 --------------------------------
 TDDFT excited states in gaussian
 --------------------------------
 Symbolic Z-matrix:
 Charge =  0 Multiplicity = 1

                         Standard orientation:
 ---------------------------------------------------------------------
 Center     Atomic      Atomic             Coordinates (Angstroms)
 Number     Number       Type             X           Y           Z
 ---------------------------------------------------------------------
      1         12           0      -20.645424   -0.403335   -0.022809
      2          6           0      -19.807403    2.834484   -0.853643
      3          6           0      -20.295032    0.492412    3.260773
      4          6           0      -21.179088   -3.636800    0.792249
      5          6           0      -20.398382   -1.328407   -3.365315
      6          7           0      -19.958225    1.496187    1.016659
      7          6           0      -19.877477    2.670966    0.521811
      8          6           0      -19.653250    3.881233    1.567449
      9          6           0      -19.516434    3.012939    2.880064
     10          6           0      -19.865178    1.530824    2.382087
     11          6           0      -18.035105    2.979936    3.529422
     12          6           0      -20.820921    4.958920    1.626119
     13          6           0      -20.432155    6.439550    1.974275
     14          1           0      -19.037453    6.668328    2.473366
     15          7           0      -20.800894   -1.398929    1.722274
     16          6           0      -20.707096   -0.836888    3.055872
     17          6           0      -20.979949   -1.912902    4.002989
     18          6           0      -21.126666   -3.139145    3.307824
     19          6           0      -21.083232   -2.755148    1.878740
     20          6           0      -21.069462   -1.541113    5.439306
     21          6           0      -21.412078   -4.571192    3.817772
     22          8           0      -21.419344   -5.561621    3.149030
     23          6           0      -21.519681   -4.705089    5.350274
     24          7           0      -20.677129   -2.297027   -1.078420
     25          6           0      -20.903462   -3.464301   -0.564107
     26          6           0      -20.667489   -4.603838   -1.595614
     27          6           0      -20.530772   -3.858727   -2.945038
     28          6           0      -20.550625   -2.386615   -2.470430
     29          6           0      -19.432067   -5.448052   -1.216762
     30          6           0      -21.650112   -4.247790   -3.958881
     31          6           0      -21.529686   -5.662742   -4.547598
     32          7           0      -20.195131    0.535088   -1.804180
     33          6           0      -20.238577    0.035324   -3.093595
     34          6           0      -19.984987    1.146538   -3.972411
     35          6           0      -19.757501    2.308207   -3.175360
     36          6           0      -19.947847    1.822534   -1.852982
     37          6           0      -19.907630    1.064720   -5.384775
     38          6           0      -19.519096    3.715745   -3.132658
     39          8           0      -19.256210    4.499551   -4.092928
     40          6           0      -19.428878    4.071026   -1.597905
     41          6           0      -18.107719    4.610785   -1.357101
     42          8           0      -17.097798    3.928176   -1.187240
     43          8           0      -18.192779    5.970950   -1.512792
     44          6           0      -16.871995    6.633582   -1.552415
     45          1           0      -20.165589    0.741979    4.315523
     46          1           0      -21.374414   -4.657123    1.130775
     47          1           0      -20.402605   -1.657472   -4.406984
     48          1           0      -18.681010    4.283793    1.282064
     49          1           0      -20.186101    3.392737    3.651431
     50          1           0      -17.324110    3.277601    2.758197
     51          1           0      -17.807539    1.970824    3.872596
     52          1           0      -17.872339    3.621459    4.396094
     53          1           0      -21.466251    4.590141    2.422952
     54          1           0      -21.559349    4.916766    0.824725
     55          1           0      -21.091743    6.906808    2.705416
     56          1           0      -20.462155    7.036467    1.062696
     57          1           0      -20.078471   -1.521537    5.893700
     58          1           0      -21.823766   -2.111802    5.981192
     59          1           0      -21.470089   -0.528355    5.476130
     60          1           0      -22.446423   -4.319660    5.776500
     61          1           0      -20.642548   -4.145832    5.674233
     62          1           0      -21.379912   -5.708845    5.750465
     63          1           0      -21.604077   -5.158808   -1.547205
     64          1           0      -19.542049   -4.043476   -3.364967
     65          1           0      -18.687624   -4.946703   -0.597866
     66          1           0      -18.782415   -5.795231   -2.020892
     67          1           0      -19.828479   -6.309604   -0.679543
     68          1           0      -21.601348   -3.570254   -4.810205
     69          1           0      -22.627976   -4.130368   -3.490650
     70          1           0      -20.702671   -6.159993   -4.040738
     71          1           0      -21.128693   -5.588771   -5.558567
     72          1           0      -22.421685   -6.285259   -4.613427
     73          1           0      -20.754409    0.439006   -5.667080
     74          1           0      -19.018283    0.585200   -5.793378
     75          1           0      -19.883321    2.077423   -5.788514
     76          1           0      -20.163839    4.869316   -1.491330
     77          1           0      -16.389970    6.289094   -2.467770
     78          1           0      -16.315134    6.487848   -0.627390
     79          1           0      -17.051891    7.704490   -1.648005
     80         12           0       19.585683   -0.732968   -0.179372
     81          6           0       21.553256    2.122355   -0.470910
     82          6           0       17.498887    0.897336    1.903610
     83          6           0       18.010542   -3.669171    0.389065
     84          6           0       22.020414   -2.453681   -1.911718
     85          7           0       19.574423    1.327661    0.636127
     86          6           0       20.360009    2.367332    0.207764
     87          6           0       19.910748    3.639641    0.819403
     88          6           0       18.654656    3.311030    1.634642
     89          6           0       18.501546    1.746657    1.399620
     90          6           0       18.593978    3.730015    3.095354
     91          6           0       19.688283    4.798562   -0.309096
     92          6           0       20.566220    6.068653   -0.217678
     93          1           0       19.986309    7.432428   -0.501792
     94          7           0       17.914082   -1.285102    0.882293
     95          6           0       17.173304   -0.460276    1.715452
     96          6           0       16.141605   -1.211413    2.332890
     97          6           0       16.267462   -2.562683    1.910718
     98          6           0       17.421292   -2.547219    1.005696
     99          6           0       15.066622   -0.440069    3.194215
    100          6           0       15.407177   -3.724660    2.404267
    101          8           0       15.564982   -4.915958    2.097153
    102          6           0       14.240555   -3.454191    3.248878
    103          7           0       20.046037   -2.846975   -0.460089
    104          6           0       19.209103   -3.842788   -0.254315
    105          6           0       19.856408   -5.195968   -0.625831
    106          6           0       20.830527   -4.659035   -1.747269
    107          6           0       20.973441   -3.186885   -1.374168
    108          6           0       20.652523   -6.027778    0.446811
    109          6           0       20.360119   -4.843108   -3.269196
    110          6           0       19.092984   -4.216675   -3.686351
    111          7           0       21.514171   -0.341836   -1.041616
    112          6           0       22.409075   -1.167316   -1.750222
    113          6           0       23.548893   -0.401543   -2.142882
    114          6           0       23.314419    0.856987   -1.625817
    115          6           0       22.001237    0.866906   -1.051307
    116          6           0       24.789841   -0.919784   -2.685250
    117          6           0       23.763655    2.168720   -1.656855
    118          8           0       24.784629    2.677064   -2.131445
    119          6           0       22.723479    3.060279   -0.837024
    120          6           0       23.439567    3.456691    0.411629
    121          8           0       23.935091    2.799519    1.302875
    122          8           0       23.481490    4.789742    0.375798
    123          6           0       24.132377    5.458944    1.549428
    124          1           0       16.785957    1.580045    2.370561
    125          1           0       17.382915   -4.557904    0.474440
    126          1           0       22.750002   -2.997240   -2.515273
    127          1           0       20.728472    3.934712    1.475774
    128          1           0       17.790303    3.760400    1.146203
    129          1           0       18.943017    2.782256    3.503569
    130          1           0       17.623922    4.081111    3.447688
    131          1           0       19.264541    4.505899    3.463744
    132          1           0       18.636938    5.084734   -0.311453
    133          1           0       19.944718    4.479804   -1.319724
    134          1           0       21.323475    5.964119   -0.995223
    135          1           0       21.139454    6.104195    0.707781
    136          1           0       14.997866   -0.921711    4.169426
    137          1           0       14.199400   -0.720333    2.596195
    138          1           0       15.251924    0.605620    3.439978
    139          1           0       14.527663   -2.920866    4.154038
    140          1           0       13.965622   -4.416172    3.680784
    141          1           0       13.383395   -3.019265    2.734216
    142          1           0       19.129872   -5.774079   -1.196999
    143          1           0       21.730631   -5.257399   -1.608327
    144          1           0       21.276143   -5.449133    1.127198
    145          1           0       21.235990   -6.707120   -0.175649
    146          1           0       19.969744   -6.600522    1.074965
    147          1           0       20.225201   -5.886427   -3.555528
    148          1           0       21.005579   -4.288662   -3.950363
    149          1           0       19.380158   -3.182540   -3.871377
    150          1           0       18.256780   -4.186604   -2.987147
    151          1           0       18.625875   -4.554376   -4.610899
    152          1           0       25.334708   -1.252206   -1.800864
    153          1           0       25.401093   -0.200171   -3.229122
    154          1           0       24.643917   -1.693893   -3.439413
    155          1           0       22.318678    3.892713   -1.412701
    156          1           0       23.299613    5.877819    2.114804
    157          1           0       24.840948    6.208611    1.197982
    158          1           0       24.666929    4.823694    2.256255
 ---------------------------------------------------------------------

 SCF Done:  E(RCAM-B3LYP) =  -4069.80120245     A.U. after   19 cycles

 Excitation energies and oscillator strengths:

 Excited State   1:      Singlet-A      1.7047 eV  727.32 nm  f=0.3732  <S**2>=0.000
     309 -> 316       -0.17520
     311 -> 313        0.68604
     309 <- 316       -0.10615
 This state for optimization and/or second-order correction.
 Total Energy, E(TD-HF/TD-DFT) =  -4069.73855703
 Copying the excited state density for this state as the 1-particle RhoCI density.

 Excited State   2:      Singlet-A      1.7725 eV  699.51 nm  f=0.3827  <S**2>=0.000
     310 -> 315       -0.19901
     312 -> 314        0.67935
     310 <- 315       -0.10974

 Excited State   3:      Singlet-A      2.1769 eV  569.53 nm  f=0.1377  <S**2>=0.000
     309 -> 313        0.65148
     311 -> 316        0.26309

 Excited State   4:      Singlet-A      2.2144 eV  559.89 nm  f=0.1118  <S**2>=0.000
     310 -> 314        0.64302
     312 -> 315        0.28130

 Excited State   5:      Singlet-A      3.1036 eV  399.49 nm  f=0.0000  <S**2>=0.000
     312 -> 313        0.70710

 The electronic state is 1-A.
 Alpha  occ. eigenvalues --  -46.89351 -46.88404 -19.25055 -19.24807 -19.20170
 Alpha  occ. eigenvalues --  -19.19316 -19.19084 -19.18678 -19.18246 -19.18220
 Alpha  occ. eigenvalues --  -14.42226 -14.42010 -14.41838 -14.41545 -14.39712
 Alpha  occ. eigenvalues --  -14.39684 -14.38997 -14.38951 -10.38623 -10.38563
 Alpha  occ. eigenvalues --  -10.36279 -10.35084 -10.34768 -10.34166 -10.31846
 Alpha  occ. eigenvalues --  -10.31711 -10.31434 -10.31283 -10.31216 -10.30689
 Alpha  occ. eigenvalues --  -10.30676 -10.30635 -10.30481 -10.30430 -10.30345
 Alpha  occ. eigenvalues --  -10.30293 -10.30114 -10.29801 -10.29440 -10.29223
 Alpha  occ. eigenvalues --  -10.29115 -10.28996 -10.28996 -10.28936 -10.28929
 Alpha  occ. eigenvalues --  -10.28681 -10.28561 -10.28550 -10.28292 -10.28194
 Alpha  occ. eigenvalues --  -10.28165 -10.28100 -10.27895 -10.27875 -10.27808
 Alpha  occ. eigenvalues --  -10.27795 -10.27774 -10.27621 -10.27564 -10.27533
 Alpha  occ. eigenvalues --  -10.27516 -10.27489 -10.27482 -10.27183 -10.27167
 Alpha  occ. eigenvalues --  -10.27145 -10.27110 -10.26926 -10.26687 -10.26567
 Alpha  occ. eigenvalues --  -10.26509 -10.26474 -10.26387 -10.26281 -10.26274
 Alpha  occ. eigenvalues --  -10.26167 -10.26046 -10.25815 -10.25673 -10.25592
 Alpha  occ. eigenvalues --  -10.25399 -10.25335 -10.24740 -10.24667 -10.24659
 Alpha  occ. eigenvalues --  -10.24459  -3.17760  -3.17017  -1.92662  -1.92194
 Alpha  occ. eigenvalues --   -1.92077  -1.91910  -1.91478  -1.91320  -1.17017
 Alpha  occ. eigenvalues --   -1.15532  -1.12523  -1.09135  -1.08572  -1.07369
 Alpha  occ. eigenvalues --   -1.07235  -1.06755  -1.05433  -1.05392  -1.04323
 Alpha  occ. eigenvalues --   -1.04268  -1.03464  -1.03395  -1.02640  -1.00879
 Alpha  occ. eigenvalues --   -0.92531  -0.92224  -0.89327  -0.89230  -0.88759
 Alpha  occ. eigenvalues --   -0.88381  -0.88366  -0.87975  -0.87851  -0.87610
 Alpha  occ. eigenvalues --   -0.87490  -0.86968  -0.86874  -0.86862  -0.84648
 Alpha  occ. eigenvalues --   -0.84298  -0.83921  -0.83488  -0.83083  -0.82333
 Alpha  occ. eigenvalues --   -0.82019  -0.81747  -0.81574  -0.81059  -0.80752
 Alpha  occ. eigenvalues --   -0.80286  -0.78763  -0.78555  -0.77676  -0.77396
 Alpha  occ. eigenvalues --   -0.77392  -0.76392  -0.75960  -0.75762  -0.75378
 Alpha  occ. eigenvalues --   -0.74848  -0.73492  -0.72214  -0.71689  -0.71472
 Alpha  occ. eigenvalues --   -0.69420  -0.69399  -0.69103  -0.68799  -0.68191
 Alpha  occ. eigenvalues --   -0.67786  -0.67222  -0.66999  -0.65830  -0.65769
 Alpha  occ. eigenvalues --   -0.65414  -0.65402  -0.64828  -0.64762  -0.64088
 Alpha  occ. eigenvalues --   -0.63981  -0.62071  -0.61562  -0.60448  -0.60030
 Alpha  occ. eigenvalues --   -0.59935  -0.59376  -0.59320  -0.59140  -0.58628
 Alpha  occ. eigenvalues --   -0.58290  -0.58272  -0.57936  -0.57887  -0.57672
 Alpha  occ. eigenvalues --   -0.56449  -0.55999  -0.55789  -0.55729  -0.55492
 Alpha  occ. eigenvalues --   -0.55167  -0.55067  -0.54842  -0.54715  -0.54559
 Alpha  occ. eigenvalues --   -0.53982  -0.53400  -0.53362  -0.53264  -0.53160
 Alpha  occ. eigenvalues --   -0.53002  -0.52960  -0.52733  -0.52704  -0.52200
 Alpha  occ. eigenvalues --   -0.52078  -0.51916  -0.51914  -0.51380  -0.51178
 Alpha  occ. eigenvalues --   -0.51122  -0.51101  -0.50948  -0.50725  -0.50391
 Alpha  occ. eigenvalues --   -0.50380  -0.49812  -0.49739  -0.49465  -0.49440
 Alpha  occ. eigenvalues --   -0.49211  -0.49150  -0.49003  -0.48963  -0.48536
 Alpha  occ. eigenvalues --   -0.48515  -0.48470  -0.48365  -0.48201  -0.48084
 Alpha  occ. eigenvalues --   -0.47843  -0.47796  -0.47382  -0.47125  -0.47043
 Alpha  occ. eigenvalues --   -0.46848  -0.46681  -0.46637  -0.46460  -0.46250
 Alpha  occ. eigenvalues --   -0.46241  -0.46039  -0.46005  -0.45825  -0.45610
 Alpha  occ. eigenvalues --   -0.45261  -0.45128  -0.44865  -0.44647  -0.44486
 Alpha  occ. eigenvalues --   -0.44413  -0.44290  -0.44175  -0.44124  -0.44069
 Alpha  occ. eigenvalues --   -0.43746  -0.43734  -0.43529  -0.43375  -0.43213
 Alpha  occ. eigenvalues --   -0.43203  -0.42955  -0.42929  -0.42781  -0.42673
 Alpha  occ. eigenvalues --   -0.42517  -0.42274  -0.42230  -0.42122  -0.41840
 Alpha  occ. eigenvalues --   -0.41721  -0.41676  -0.41616  -0.41473  -0.41195
 Alpha  occ. eigenvalues --   -0.41081  -0.40980  -0.40724  -0.40660  -0.40212
 Alpha  occ. eigenvalues --   -0.40174  -0.39817  -0.39534  -0.39400  -0.38949
 Alpha  occ. eigenvalues --   -0.38225  -0.38074  -0.38037  -0.37989  -0.37704
 Alpha  occ. eigenvalues --   -0.37626  -0.37027  -0.36889  -0.36569  -0.36381
 Alpha  occ. eigenvalues --   -0.36328  -0.36132  -0.34487  -0.34317  -0.34316
 Alpha  occ. eigenvalues --   -0.33904  -0.33491  -0.33445  -0.31761  -0.31490
 Alpha  occ. eigenvalues --   -0.31204  -0.31048  -0.30541  -0.30467  -0.30393
 Alpha  occ. eigenvalues --   -0.30153  -0.29996  -0.29176  -0.24027  -0.23676
 Alpha  occ. eigenvalues --   -0.21451  -0.21247
 Alpha virt. eigenvalues --   -0.08990  -0.08428  -0.01700  -0.01628  -0.00041
 Alpha virt. eigenvalues --    0.00270   0.02005   0.02085   0.02453   0.02597
 Alpha virt. eigenvalues --    0.05331   0.05457   0.05930   0.06091   0.06449

 Mulliken charges:
               1
     1  Mg  12.000013
     2  C    6.000045
     3  C    6.000095
     4  C    5.999968
     5  C    5.999928
     6  N    6.999961
     7  C    6.000036
     8  C    5.999971
     9  C    6.000056
    10  C    5.999856
    11  C    6.000043
    12  C    5.999960
    13  C    6.000016
    14  H    0.999918
    15  N    7.000019
    16  C    5.999803
    17  C    5.999994
    18  C    5.999898
    19  C    5.999960
    20  C    6.000019
    21  C    5.999959
    22  O    7.999935
    23  C    6.000026
    24  N    7.000030
    25  C    5.999952
    26  C    6.000019
    27  C    5.999965
    28  C    6.000094
    29  C    6.000029
    30  C    5.999967
    31  C    5.999998
    32  N    6.999974
    33  C    6.000178
    34  C    6.000067
    35  C    6.000011
    36  C    6.000039
    37  C    5.999955
    38  C    6.000097
    39  O    8.000112
    40  C    5.999966
    41  C    6.000009
    42  O    7.999945
    43  O    8.000034
    44  C    6.000007
    45  H    0.999944
    46  H    1.000022
    47  H    1.000054
    48  H    0.999956
    49  H    1.000010
    50  H    0.999894
    51  H    0.999945
    52  H    0.999939
    53  H    1.000065
    54  H    1.000041
    55  H    1.000058
    56  H    1.000021
    57  H    0.999864
    58  H    0.999986
    59  H    0.999991
    60  H    1.000026
    61  H    0.999924
    62  H    0.999948
    63  H    1.000059
    64  H    0.999974
    65  H    0.999924
    66  H    0.999942
    67  H    1.000023
    68  H    1.000021
    69  H    1.000068
    70  H    0.999974
    71  H    1.000024
    72  H    1.000078
    73  H    1.000110
    74  H    1.000054
    75  H    1.000081
    76  H    1.000071
    77  H    0.999980
    78  H    0.999943
    79  H    1.000057
    80  Mg  12.003679
    81  C    6.034261
    82  C    5.992498
    83  C    5.965556
    84  C    5.991597
    85  N    7.019750
    86  C    5.961998
    87  C    6.012281
    88  C    5.994193
    89  C    6.025882
    90  C    5.997713
    91  C    6.002437
    92  C    6.000155
    93  H    0.996190
    94  N    6.990161
    95  C    6.041964
    96  C    6.018271
    97  C    6.015409
    98  C    6.040808
    99  C    5.999391
   100  C    6.012319
   101  O    8.029314
   102  C    5.991173
   103  N    6.977380
   104  C    6.042233
   105  C    5.989484
   106  C    6.009630
   107  C    5.978107
   108  C    6.000989
   109  C    6.010337
   110  C    5.998995
   111  N    7.006705
   112  C    5.964653
   113  C    5.970963
   114  C    5.991830
   115  C    5.966645
   116  C    6.004662
   117  C    5.990873
   118  O    7.964420
   119  C    5.997806
   120  C    5.995975
   121  O    7.997619
   122  O    7.998828
   123  C    6.002381
   124  H    1.014741
   125  H    1.000281
   126  H    0.984132
   127  H    1.000467
   128  H    1.003370
   129  H    0.998956
   130  H    1.001665
   131  H    1.014186
   132  H    0.992203
   133  H    1.005066
   134  H    1.005876
   135  H    0.999704
   136  H    1.018652
   137  H    1.016109
   138  H    1.016324
   139  H    1.005175
   140  H    1.014546
   141  H    1.009090
   142  H    0.998315
   143  H    0.994325
   144  H    1.004336
   145  H    1.007504
   146  H    0.993536
   147  H    0.988624
   148  H    1.003480
   149  H    1.007345
   150  H    0.982546
   151  H    0.995154
   152  H    0.978824
   153  H    0.982845
   154  H    0.982829
   155  H    0.992960
   156  H    0.993065
   157  H    0.998329
   158  H    0.997923
 Sum of Mulliken charges = 624.00000

 Dipole moment (field-independent basis, Debye):
    X=             -9.0752    Y=             -1.0344    Z=              5.6606  Tot=             10.7458
 Quadrupole moment (field-independent basis, Debye-Ang):
   XX=           -359.8569   YY=              0.7093   ZZ=              0.9864
   XY=            -14.6799   XZ=            111.7286   YZ=             -5.7937

 Normal termination of Gaussian 16 at Thu Sep 23 05:27:51 2021.
