 Gaussian 16, Revision A.03,
 Gaussian 16:  ES64L-G16RevA.03 25-Dec-2016

 -----------------------------------
 #p cam-b3lyp/Def2SVP td=(nstates=5)
 -----------------------------------

 --------------------------------
 TDDFT excited states in gaussian
 --------------------------------
 Symbolic Z-matrix:
 Charge =  0 Multiplicity = 1

                         Standard orientation:
 ---------------------------------------------------------------------
 Center     Atomic      Atomic             Coordinates (Angstroms)
 Number     Number       Type             X           Y           Z
 ---------------------------------------------------------------------
      1         12           0       18.711741   -0.234920   -0.139234
      2          6           0       15.173838   -0.807684   -0.179118
      3          6           0       18.122267    2.497924   -2.307911
      4          6           0       21.845406    0.803622    0.462318
      5          6           0       18.956405   -2.489989    2.462338
      6          7           0       16.855820    0.752920   -1.158777
      7          6           0       15.578788    0.312712   -0.950006
      8          6           0       14.592081    1.335539   -1.490454
      9          6           0       15.594275    2.182137   -2.381670
     10          6           0       16.972836    1.837427   -1.963628
     11          6           0       15.468426    2.038719   -3.935645
     12          6           0       13.837030    2.028830   -0.311308
     13          6           0       12.269078    2.237745   -0.392913
     14          1           0       11.687559    3.662846   -0.375831
     15          7           0       19.871358    1.238229   -0.918623
     16          6           0       19.476834    2.269522   -1.811239
     17          6           0       20.611269    3.108107   -2.151808
     18          6           0       21.693774    2.601588   -1.323446
     19          6           0       21.139334    1.497706   -0.562410
     20          6           0       20.473292    4.279709   -3.031851
     21          6           0       23.115215    3.189443   -1.359300
     22          8           0       23.277592    4.217842   -2.078950
     23          6           0       24.336228    2.629414   -0.599180
     24          7           0       20.191253   -0.551537    1.447633
     25          6           0       21.445295   -0.150155    1.366412
     26          6           0       22.199967   -0.713098    2.527189
     27          6           0       21.256303   -1.804403    3.099617
     28          6           0       19.988433   -1.558105    2.341182
     29          6           0       23.679027   -1.255742    2.324200
     30          6           0       21.038746   -1.758705    4.699465
     31          6           0       21.542480   -2.951900    5.547987
     32          7           0       17.452728   -1.538406    0.795719
     33          6           0       17.676017   -2.382478    1.817126
     34          6           0       16.503214   -3.095261    2.169772
     35          6           0       15.507947   -2.530371    1.368896
     36          6           0       16.122501   -1.539736    0.561910
     37          6           0       16.286901   -4.187043    3.139035
     38          6           0       14.097932   -2.608321    1.141193
     39          8           0       13.278396   -3.289469    1.715600
     40          6           0       13.799913   -1.371834    0.078561
     41          6           0       13.201765   -1.904580   -1.151339
     42          8           0       13.571078   -2.924029   -1.747870
     43          8           0       12.191500   -1.036595   -1.506992
     44          6           0       11.442416   -1.372599   -2.716651
     45          1           0       18.006475    3.350783   -2.978479
     46          1           0       22.829236    1.160463    0.772948
     47          1           0       19.024318   -3.365496    3.111722
     48          1           0       13.954665    0.800654   -2.194982
     49          1           0       15.373012    3.163073   -1.959429
     50          1           0       16.441849    1.720551   -4.311633
     51          1           0       15.228614    2.967894   -4.452111
     52          1           0       14.781132    1.267031   -4.283723
     53          1           0       14.339299    2.995818   -0.327581
     54          1           0       14.021252    1.616690    0.680558
     55          1           0       11.871441    1.658908    0.440513
     56          1           0       11.895849    1.658576   -1.236976
     57          1           0       19.657402    4.875141   -2.621440
     58          1           0       20.142775    3.964469   -4.021322
     59          1           0       21.368962    4.861016   -3.252407
     60          1           0       24.200821    2.847993    0.460189
     61          1           0       25.189196    2.952870   -1.194867
     62          1           0       24.246124    1.555121   -0.763538
     63          1           0       22.329425    0.103005    3.236967
     64          1           0       21.675270   -2.710173    2.661089
     65          1           0       24.154573   -1.107500    3.294050
     66          1           0       24.146732   -0.689732    1.518754
     67          1           0       23.589093   -2.320000    2.105867
     68          1           0       19.961628   -1.630867    4.805781
     69          1           0       21.436522   -0.808101    5.054509
     70          1           0       20.789243   -3.325281    6.240478
     71          1           0       22.428090   -2.635182    6.099519
     72          1           0       21.914094   -3.786490    4.953166
     73          1           0       15.361887   -4.727024    2.939370
     74          1           0       16.235112   -3.571832    4.037517
     75          1           0       17.239353   -4.694789    3.290592
     76          1           0       13.249432   -0.562672    0.557149
     77          1           0       11.078402   -2.400019   -2.693853
     78          1           0       12.067735   -1.207060   -3.595198
     79          1           0       10.569530   -0.722529   -2.776949
     80         12           0      -18.273616    0.223889    0.636285
     81          6           0      -15.580406   -0.816214   -1.335249
     82          6           0      -19.993268   -2.569386   -0.434762
     83          6           0      -21.140162    1.527023    1.953790
     84          6           0      -16.677189    3.264842    1.080139
     85          7           0      -17.762164   -1.480569   -0.636533
     86          6           0      -16.559349   -1.785835   -1.139885
     87          6           0      -16.428290   -3.224380   -1.661232
     88          6           0      -17.915627   -3.734331   -1.542126
     89          6           0      -18.650495   -2.540327   -0.711795
     90          6           0      -18.655931   -4.067440   -2.855397
     91          6           0      -15.408548   -4.083331   -0.913132
     92          6           0      -14.824525   -5.220168   -1.771384
     93          1           0      -15.311838   -5.396680   -3.216468
     94          7           0      -20.256548   -0.453235    0.854440
     95          6           0      -20.768174   -1.688007    0.392978
     96          6           0      -22.152533   -1.790684    0.808950
     97          6           0      -22.533653   -0.559172    1.461209
     98          6           0      -21.297792    0.221736    1.482948
     99          6           0      -22.926407   -3.066018    0.617861
    100          6           0      -23.894901   -0.148033    2.182541
    101          8           0      -24.037762    0.868232    2.818064
    102          6           0      -25.054414   -1.107167    2.022396
    103          7           0      -18.852673    2.133245    1.312538
    104          6           0      -20.070146    2.433685    1.849741
    105          6           0      -20.136797    3.910494    2.387594
    106          6           0      -18.701507    4.377658    2.151226
    107          6           0      -18.048682    3.188975    1.471177
    108          6           0      -21.258577    4.916241    1.905629
    109          6           0      -18.006209    4.747448    3.482439
    110          6           0      -17.392546    3.620356    4.342374
    111          7           0      -16.423618    1.083651    0.160733
    112          6           0      -15.904621    2.328869    0.404131
    113          6           0      -14.589210    2.453433   -0.128323
    114          6           0      -14.393229    1.198079   -0.861726
    115          6           0      -15.503065    0.472225   -0.666070
    116          6           0      -13.609591    3.539925   -0.059585
    117          6           0      -13.531914    0.477539   -1.789057
    118          8           0      -12.391715    0.743572   -2.184007
    119          6           0      -14.235850   -0.864773   -2.145818
    120          6           0      -14.435218   -0.999021   -3.585212
    121          8           0      -15.308616   -0.448992   -4.247697
    122          8           0      -13.359354   -1.655036   -4.128790
    123          6           0      -13.100992   -1.560201   -5.578733
    124          1           0      -20.465963   -3.464882   -0.844050
    125          1           0      -21.992019    1.881535    2.537789
    126          1           0      -16.132468    4.185310    1.300131
    127          1           0      -16.232446   -3.246261   -2.733032
    128          1           0      -18.035070   -4.560089   -0.841638
    129          1           0      -18.994703   -5.079517   -2.634669
    130          1           0      -17.966002   -4.061599   -3.698900
    131          1           0      -19.457566   -3.350851   -3.034647
    132          1           0      -15.820520   -4.502561    0.004021
    133          1           0      -14.571195   -3.468626   -0.581778
    134          1           0      -15.085882   -6.083952   -1.159748
    135          1           0      -13.733684   -5.221793   -1.756925
    136          1           0      -22.302643   -3.690450   -0.021855
    137          1           0      -23.884154   -2.833825    0.151641
    138          1           0      -23.145621   -3.577259    1.556441
    139          1           0      -25.561975   -1.116695    1.057279
    140          1           0      -25.757579   -0.913355    2.832386
    141          1           0      -24.573280   -2.068122    2.204210
    142          1           0      -20.347780    3.730780    3.441525
    143          1           0      -18.766411    5.244042    1.493986
    144          1           0      -20.891434    5.895181    1.599701
    145          1           0      -21.921027    5.110324    2.748591
    146          1           0      -21.839373    4.415248    1.130601
    147          1           0      -18.755758    5.293114    4.054332
    148          1           0      -17.235808    5.465219    3.199151
    149          1           0      -17.657371    3.885737    5.365551
    150          1           0      -16.304286    3.585987    4.296749
    151          1           0      -17.702506    2.616180    4.055294
    152          1           0      -12.631779    3.091004    0.111399
    153          1           0      -13.796475    4.295739    0.703313
    154          1           0      -13.478566    3.984032   -1.046515
    155          1           0      -13.568968   -1.625930   -1.741115
    156          1           0      -13.872784   -0.991294   -6.098341
    157          1           0      -13.113215   -2.572606   -5.983198
    158          1           0      -12.129976   -1.066253   -5.580775
 ---------------------------------------------------------------------

 SCF Done:  E(RCAM-B3LYP) =  -4069.80575699     A.U. after   17 cycles

 Excitation energies and oscillator strengths:

 Excited State   1:      Singlet-A      1.6989 eV  729.79 nm  f=0.4157  <S**2>=0.000
     309 -> 315       -0.18518
     312 -> 313        0.68497
     309 <- 315       -0.11141
 This state for optimization and/or second-order correction.
 Total Energy, E(TD-HF/TD-DFT) =  -4069.74332348
 Copying the excited state density for this state as the 1-particle RhoCI density.

 Excited State   2:      Singlet-A      1.7177 eV  721.79 nm  f=0.3896  <S**2>=0.000
     310 -> 316        0.18142
     311 -> 314        0.68359
     310 <- 316        0.10670

 Excited State   3:      Singlet-A      2.1354 eV  580.61 nm  f=0.1575  <S**2>=0.000
     310 -> 314        0.65933
     311 -> 316       -0.23563

 Excited State   4:      Singlet-A      2.2522 eV  550.50 nm  f=0.1330  <S**2>=0.000
     309 -> 313        0.64094
     312 -> 315        0.28917

 Excited State   5:      Singlet-A      3.1161 eV  397.88 nm  f=0.0000  <S**2>=0.000
     312 -> 314        0.70709

 The electronic state is 1-A.
 Alpha  occ. eigenvalues --  -46.88893 -46.88234 -19.26255 -19.23867 -19.20542
 Alpha  occ. eigenvalues --  -19.19935 -19.19726 -19.18978 -19.18697 -19.18120
 Alpha  occ. eigenvalues --  -14.42271 -14.41920 -14.41883 -14.41388 -14.39919
 Alpha  occ. eigenvalues --  -14.39813 -14.39421 -14.38155 -10.40079 -10.38675
 Alpha  occ. eigenvalues --  -10.36178 -10.35433 -10.35234 -10.35077 -10.32429
 Alpha  occ. eigenvalues --  -10.31176 -10.31161 -10.30877 -10.30870 -10.30762
 Alpha  occ. eigenvalues --  -10.30700 -10.30663 -10.30624 -10.30387 -10.30313
 Alpha  occ. eigenvalues --  -10.30309 -10.30296 -10.29862 -10.29744 -10.29068
 Alpha  occ. eigenvalues --  -10.28925 -10.28861 -10.28844 -10.28716 -10.28567
 Alpha  occ. eigenvalues --  -10.28548 -10.28263 -10.28145 -10.28102 -10.28088
 Alpha  occ. eigenvalues --  -10.27766 -10.27760 -10.27651 -10.27608 -10.27581
 Alpha  occ. eigenvalues --  -10.27566 -10.27561 -10.27506 -10.27477 -10.27457
 Alpha  occ. eigenvalues --  -10.27435 -10.27414 -10.27222 -10.27185 -10.27115
 Alpha  occ. eigenvalues --  -10.26990 -10.26984 -10.26938 -10.26905 -10.26777
 Alpha  occ. eigenvalues --  -10.26666 -10.26583 -10.26423 -10.26387 -10.26338
 Alpha  occ. eigenvalues --  -10.26314 -10.26223 -10.26067 -10.25975 -10.25909
 Alpha  occ. eigenvalues --  -10.25839 -10.25791 -10.25462 -10.25035 -10.24750
 Alpha  occ. eigenvalues --  -10.24549  -3.17448  -3.16759  -1.92337  -1.91892
 Alpha  occ. eigenvalues --   -1.91764  -1.91660  -1.91212  -1.91066  -1.16526
 Alpha  occ. eigenvalues --   -1.15082  -1.11573  -1.10807  -1.08858  -1.08151
 Alpha  occ. eigenvalues --   -1.07230  -1.06637  -1.05439  -1.04713  -1.04441
 Alpha  occ. eigenvalues --   -1.03728  -1.03319  -1.02438  -1.02327  -1.01012
 Alpha  occ. eigenvalues --   -0.93167  -0.92066  -0.89315  -0.89174  -0.88798
 Alpha  occ. eigenvalues --   -0.88271  -0.88131  -0.88117  -0.87959  -0.87461
 Alpha  occ. eigenvalues --   -0.87087  -0.86451  -0.86080  -0.85993  -0.84621
 Alpha  occ. eigenvalues --   -0.84192  -0.83846  -0.83430  -0.82716  -0.82330
 Alpha  occ. eigenvalues --   -0.82003  -0.81957  -0.81352  -0.80993  -0.80472
 Alpha  occ. eigenvalues --   -0.80163  -0.78210  -0.78119  -0.77633  -0.77132
 Alpha  occ. eigenvalues --   -0.76863  -0.76830  -0.76284  -0.75894  -0.75332
 Alpha  occ. eigenvalues --   -0.75005  -0.73183  -0.72424  -0.72200  -0.71085
 Alpha  occ. eigenvalues --   -0.69812  -0.69803  -0.69374  -0.68465  -0.68439
 Alpha  occ. eigenvalues --   -0.67678  -0.66736  -0.66144  -0.66070  -0.65619
 Alpha  occ. eigenvalues --   -0.65104  -0.64758  -0.64752  -0.64693  -0.64434
 Alpha  occ. eigenvalues --   -0.63719  -0.62943  -0.61394  -0.60132  -0.59890
 Alpha  occ. eigenvalues --   -0.59764  -0.59532  -0.59083  -0.59075  -0.58903
 Alpha  occ. eigenvalues --   -0.58416  -0.58309  -0.57660  -0.57582  -0.57403
 Alpha  occ. eigenvalues --   -0.56225  -0.55969  -0.55848  -0.55633  -0.55429
 Alpha  occ. eigenvalues --   -0.55164  -0.54847  -0.54654  -0.54490  -0.53699
 Alpha  occ. eigenvalues --   -0.53679  -0.53340  -0.53278  -0.52923  -0.52859
 Alpha  occ. eigenvalues --   -0.52672  -0.52622  -0.52319  -0.52126  -0.52082
 Alpha  occ. eigenvalues --   -0.51968  -0.51757  -0.51604  -0.51399  -0.51216
 Alpha  occ. eigenvalues --   -0.50796  -0.50630  -0.50566  -0.50327  -0.50216
 Alpha  occ. eigenvalues --   -0.50016  -0.49957  -0.49662  -0.49574  -0.49552
 Alpha  occ. eigenvalues --   -0.49394  -0.49359  -0.49053  -0.48994  -0.48775
 Alpha  occ. eigenvalues --   -0.48534  -0.48451  -0.48223  -0.48122  -0.47922
 Alpha  occ. eigenvalues --   -0.47732  -0.47641  -0.47616  -0.47579  -0.47438
 Alpha  occ. eigenvalues --   -0.47104  -0.47019  -0.46739  -0.46632  -0.46438
 Alpha  occ. eigenvalues --   -0.46249  -0.46117  -0.46112  -0.45921  -0.45819
 Alpha  occ. eigenvalues --   -0.45639  -0.45607  -0.45360  -0.45239  -0.45021
 Alpha  occ. eigenvalues --   -0.44969  -0.44635  -0.44522  -0.44259  -0.43958
 Alpha  occ. eigenvalues --   -0.43761  -0.43642  -0.43634  -0.43542  -0.43398
 Alpha  occ. eigenvalues --   -0.43263  -0.43179  -0.43071  -0.43048  -0.42929
 Alpha  occ. eigenvalues --   -0.42793  -0.42780  -0.42665  -0.42355  -0.42313
 Alpha  occ. eigenvalues --   -0.41920  -0.41513  -0.41490  -0.41216  -0.41089
 Alpha  occ. eigenvalues --   -0.41088  -0.40878  -0.40837  -0.40606  -0.40317
 Alpha  occ. eigenvalues --   -0.40221  -0.40217  -0.39906  -0.38910  -0.38732
 Alpha  occ. eigenvalues --   -0.38506  -0.38382  -0.38231  -0.37830  -0.37703
 Alpha  occ. eigenvalues --   -0.37680  -0.37622  -0.36619  -0.36431  -0.36113
 Alpha  occ. eigenvalues --   -0.35838  -0.35666  -0.35171  -0.34311  -0.34097
 Alpha  occ. eigenvalues --   -0.33793  -0.33266  -0.33003  -0.31595  -0.31316
 Alpha  occ. eigenvalues --   -0.31110  -0.30874  -0.30809  -0.30320  -0.30096
 Alpha  occ. eigenvalues --   -0.29596  -0.29356  -0.28646  -0.24156  -0.23504
 Alpha  occ. eigenvalues --   -0.21309  -0.21298
 Alpha virt. eigenvalues --   -0.08914  -0.08904  -0.01718  -0.01303   0.00297
 Alpha virt. eigenvalues --    0.00612   0.02312   0.02439   0.02500   0.02618
 Alpha virt. eigenvalues --    0.04267   0.05030   0.05152   0.05340   0.05846

 Mulliken charges:
               1
     1  Mg   0.845455
     2  C   -0.112911
     3  C   -0.073100
     4  C   -0.091015
     5  C   -0.092620
     6  N   -0.247137
     7  C   -0.075138
     8  C   -0.009271
     9  C   -0.029585
    10  C    0.035776
    11  C    0.076714
    12  C    0.033449
    13  C   -0.045981
    14  H    0.033869
    15  N   -0.393829
    16  C    0.113887
    17  C   -0.127929
    18  C   -0.056972
    19  C    0.207471
    20  C    0.128632
    21  C   -0.019440
    22  O   -0.248939
    23  C    0.082582
    24  N   -0.275383
    25  C   -0.016078
    26  C   -0.039365
    27  C   -0.051997
    28  C    0.065274
    29  C    0.078742
    30  C    0.053601
    31  C    0.008858
    32  N   -0.340875
    33  C    0.091998
    34  C   -0.194226
    35  C   -0.020881
    36  C    0.159296
    37  C    0.167678
    38  C    0.065263
    39  O   -0.152063
    40  C    0.021611
    41  C    0.224370
    42  O   -0.224413
    43  O   -0.341376
    44  C    0.178472
    45  H   -0.025575
    46  H   -0.057509
    47  H   -0.022606
    48  H   -0.004105
    49  H    0.003378
    50  H    0.016626
    51  H    0.023126
    52  H    0.015186
    53  H    0.006900
    54  H    0.030283
    55  H    0.025820
    56  H    0.020632
    57  H    0.025891
    58  H    0.010156
    59  H    0.043799
    60  H    0.062280
    61  H    0.038750
    62  H    0.023396
    63  H    0.011752
    64  H    0.009042
    65  H    0.018260
    66  H    0.020277
    67  H    0.011063
    68  H    0.009917
    69  H    0.000804
    70  H    0.024619
    71  H    0.014010
    72  H    0.012604
    73  H    0.056978
    74  H    0.022567
    75  H    0.007114
    76  H    0.030683
    77  H    0.047783
    78  H    0.034978
    79  H    0.038649
    80  Mg   0.823055
    81  C    0.006432
    82  C   -0.075173
    83  C   -0.064050
    84  C   -0.084823
    85  N   -0.287770
    86  C   -0.049474
    87  C   -0.003271
    88  C   -0.105781
    89  C    0.045299
    90  C    0.081857
    91  C    0.056999
    92  C   -0.056555
    93  H    0.033368
    94  N   -0.398854
    95  C    0.148746
    96  C   -0.158244
    97  C   -0.054718
    98  C    0.106833
    99  C    0.107915
   100  C    0.035176
   101  O   -0.175856
   102  C    0.039520
   103  N   -0.264166
   104  C    0.020587
   105  C   -0.037486
   106  C    0.004161
   107  C    0.026938
   108  C    0.071309
   109  C    0.003281
   110  C    0.023097
   111  N   -0.363423
   112  C    0.130866
   113  C   -0.149202
   114  C    0.007042
   115  C    0.102509
   116  C    0.128406
   117  C    0.019660
   118  O   -0.185053
   119  C    0.009707
   120  C    0.206583
   121  O   -0.224814
   122  O   -0.347443
   123  C    0.165997
   124  H   -0.022133
   125  H   -0.007206
   126  H   -0.041567
   127  H    0.017794
   128  H    0.005520
   129  H    0.018290
   130  H    0.021358
   131  H    0.034494
   132  H    0.006347
   133  H    0.007297
   134  H    0.018451
   135  H    0.031249
   136  H    0.004046
   137  H    0.025179
   138  H    0.045412
   139  H    0.059598
   140  H    0.027308
   141  H    0.011664
   142  H    0.014068
   143  H    0.008353
   144  H    0.018906
   145  H    0.013842
   146  H    0.029136
   147  H    0.005396
   148  H    0.006350
   149  H    0.017077
   150  H    0.014996
   151  H    0.026910
   152  H    0.029751
   153  H    0.012620
   154  H    0.034310
   155  H    0.043398
   156  H    0.050310
   157  H    0.036894
   158  H    0.055398
 Sum of Mulliken charges =  -0.00000

 Dipole moment (field-independent basis, Debye):
    X=             -0.7563    Y=             -2.5956    Z=              3.0206  Tot=              4.0538
 Quadrupole moment (field-independent basis, Debye-Ang):
   XX=           -433.9966   YY=           -505.1685   ZZ=           -498.8374
   XY=             20.2125   XZ=             24.8709   YZ=             10.6653

 Normal termination of Gaussian 16 at Wed Sep 15 05:22:43 2021.
