 Gaussian 16, Revision A.03,
 Gaussian 16:  ES64L-G16RevA.03 25-Dec-2016

 -----------------------------------
 #p cam-b3lyp/Def2SVP td=(nstates=5)
 -----------------------------------

 --------------------------------
 TDDFT excited states in gaussian
 --------------------------------
 Symbolic Z-matrix:
 Charge =  0 Multiplicity = 1

                         Standard orientation:
 ---------------------------------------------------------------------
 Center     Atomic      Atomic             Coordinates (Angstroms)
 Number     Number       Type             X           Y           Z
 ---------------------------------------------------------------------
      1         12           0       27.138702   -0.557896    0.068356
      2          6           0       25.750913    2.424018    1.331341
      3          6           0       28.128584    1.130792   -2.706381
      4          6           0       28.349556   -3.472501   -1.147728
      5          6           0       25.700154   -2.274854    2.721877
      6          7           0       26.881066    1.477801   -0.648501
      7          6           0       26.382070    2.558798    0.083356
      8          6           0       26.644884    3.830293   -0.666179
      9          6           0       26.935567    3.319448   -2.097372
     10          6           0       27.351119    1.855810   -1.798926
     11          6           0       25.756697    3.331658   -3.121044
     12          6           0       27.794169    4.741785   -0.092348
     13          6           0       27.434772    6.188498    0.028740
     14          1           0       28.484512    7.201753   -0.464563
     15          7           0       28.170588   -1.040956   -1.598563
     16          6           0       28.583873   -0.174263   -2.624030
     17          6           0       29.344794   -0.880722   -3.575801
     18          6           0       29.446224   -2.285845   -3.142594
     19          6           0       28.668982   -2.313054   -1.936484
     20          6           0       29.839596   -0.335580   -4.883591
     21          6           0       30.111598   -3.570500   -3.802767
     22          8           0       30.086502   -4.639979   -3.241265
     23          6           0       30.886540   -3.468080   -5.108732
     24          7           0       26.940139   -2.604536    0.649131
     25          6           0       27.529992   -3.610494   -0.047017
     26          6           0       27.192852   -5.023532    0.631230
     27          6           0       26.594609   -4.604482    2.044954
     28          6           0       26.384041   -3.048376    1.808737
     29          6           0       26.225106   -5.951280   -0.154179
     30          6           0       27.539528   -4.909053    3.261513
     31          6           0       26.845744   -5.689541    4.297465
     32          7           0       25.926753   -0.067626    1.672538
     33          6           0       25.507566   -0.861386    2.739125
     34          6           0       24.793147   -0.058519    3.693938
     35          6           0       24.841397    1.217356    3.170310
     36          6           0       25.534519    1.187936    2.001428
     37          6           0       24.239722   -0.636965    5.022349
     38          6           0       24.417132    2.590704    3.371409
     39          8           0       23.673978    3.024515    4.223937
     40          6           0       24.988381    3.449606    2.136734
     41          6           0       23.857641    4.069362    1.421756
     42          8           0       22.901010    3.430422    0.910179
     43          8           0       24.018500    5.423556    1.454965
     44          6           0       22.791826    6.194463    1.120314
     45          1           0       28.377262    1.728481   -3.585759
     46          1           0       28.691148   -4.456480   -1.475172
     47          1           0       25.195761   -2.838030    3.509194
     48          1           0       25.762919    4.458301   -0.797742
     49          1           0       27.732078    3.866996   -2.601513
     50          1           0       25.061036    4.160671   -2.984640
     51          1           0       25.246623    2.372655   -3.026671
     52          1           0       26.042013    3.308124   -4.172467
     53          1           0       28.642178    4.575168   -0.756320
     54          1           0       28.151172    4.377881    0.871538
     55          1           0       27.245574    6.265539    1.099543
     56          1           0       26.564943    6.401746   -0.592430
     57          1           0       30.911584   -0.145546   -4.941153
     58          1           0       29.409778    0.652515   -5.042974
     59          1           0       29.620932   -0.894181   -5.793279
     60          1           0       31.348305   -4.444318   -5.251331
     61          1           0       31.556709   -2.607955   -5.112454
     62          1           0       30.222292   -3.129878   -5.904566
     63          1           0       28.095293   -5.632558    0.686488
     64          1           0       25.631595   -5.101956    2.169228
     65          1           0       25.790415   -5.540038   -1.065829
     66          1           0       25.369757   -6.276912    0.438327
     67          1           0       26.795082   -6.842200   -0.419128
     68          1           0       27.821777   -3.963337    3.725674
     69          1           0       28.430585   -5.484600    3.011632
     70          1           0       27.129422   -6.736788    4.189786
     71          1           0       25.763868   -5.603062    4.391882
     72          1           0       27.137878   -5.321940    5.281207
     73          1           0       24.723707   -1.593869    5.219230
     74          1           0       23.148828   -0.639996    5.034155
     75          1           0       24.603595    0.053515    5.782316
     76          1           0       25.683016    4.220708    2.470842
     77          1           0       22.953613    7.257596    1.297512
     78          1           0       22.061903    5.899048    1.874314
     79          1           0       22.511402    5.911980    0.105204
     80         12           0      -27.245423   -0.581384   -0.319822
     81          6           0      -25.232579    2.155424   -1.144735
     82          6           0      -28.993035    1.488901    1.817116
     83          6           0      -28.763484   -3.321372    1.036284
     84          6           0      -25.004885   -2.634289   -1.980711
     85          7           0      -27.141413    1.552411    0.152328
     86          6           0      -26.397915    2.483737   -0.458538
     87          6           0      -26.819598    3.932004   -0.170276
     88          6           0      -27.919693    3.719901    0.939323
     89          6           0      -28.136918    2.104990    0.940686
     90          6           0      -27.613756    4.264590    2.351205
     91          6           0      -27.304037    4.710600   -1.393564
     92          6           0      -27.109552    6.232128   -1.262395
     93          1           0      -26.503240    6.803425    0.027141
     94          7           0      -28.749385   -0.891730    1.122361
     95          6           0      -29.407994    0.114883    1.865552
     96          6           0      -30.417843   -0.516501    2.691134
     97          6           0      -30.323519   -1.948660    2.525785
     98          6           0      -29.283056   -2.115640    1.512278
     99          6           0      -31.405388    0.306027    3.472207
    100          6           0      -31.226539   -3.120994    3.119534
    101          8           0      -31.128314   -4.277647    2.788476
    102          6           0      -32.241440   -2.719743    4.167880
    103          7           0      -26.873924   -2.654315   -0.376485
    104          6           0      -27.649554   -3.601834    0.224928
    105          6           0      -27.185116   -5.063374   -0.125631
    106          6           0      -26.058320   -4.786520   -1.119538
    107          6           0      -25.976676   -3.271935   -1.150840
    108          6           0      -26.840575   -6.115036    1.004638
    109          6           0      -26.376964   -5.386308   -2.509155
    110          6           0      -27.287858   -4.594165   -3.473098
    111          7           0      -25.532939   -0.362053   -1.506045
    112          6           0      -24.721866   -1.281314   -2.119469
    113          6           0      -23.656909   -0.644903   -2.819596
    114          6           0      -23.802506    0.769420   -2.458079
    115          6           0      -24.891960    0.847656   -1.681000
    116          6           0      -22.597023   -1.181070   -3.676340
    117          6           0      -23.187461    2.088121   -2.519151
    118          8           0      -22.217058    2.482261   -3.174730
    119          6           0      -24.070737    3.063197   -1.686290
    120          6           0      -23.302756    3.709409   -0.626932
    121          8           0      -22.980377    3.203463    0.442803
    122          8           0      -22.796853    4.895057   -1.097693
    123          6           0      -21.665921    5.536482   -0.399377
    124          1           0      -29.471604    2.211272    2.481964
    125          1           0      -29.359523   -4.190981    1.320733
    126          1           0      -24.352663   -3.268325   -2.584849
    127          1           0      -26.034135    4.483166    0.346308
    128          1           0      -28.912028    4.049138    0.633222
    129          1           0      -28.506454    4.865456    2.523935
    130          1           0      -26.719804    4.887666    2.338576
    131          1           0      -27.476960    3.444343    3.055997
    132          1           0      -28.347809    4.501731   -1.624985
    133          1           0      -26.757245    4.392479   -2.281616
    134          1           0      -28.135091    6.575196   -1.400608
    135          1           0      -26.585468    6.651063   -2.122614
    136          1           0      -31.039862    1.331255    3.412777
    137          1           0      -31.435713   -0.056812    4.499817
    138          1           0      -32.421672    0.238053    3.081180
    139          1           0      -31.863410   -2.497443    5.166296
    140          1           0      -33.005089   -3.496736    4.202661
    141          1           0      -32.677506   -1.825510    3.722713
    142          1           0      -28.082243   -5.448138   -0.610091
    143          1           0      -25.161274   -5.239005   -0.698393
    144          1           0      -25.897224   -6.641471    0.864409
    145          1           0      -27.605717   -6.890497    0.987071
    146          1           0      -26.905623   -5.600860    1.964002
    147          1           0      -26.804997   -6.367135   -2.305685
    148          1           0      -25.401072   -5.552426   -2.966325
    149          1           0      -27.935215   -5.350265   -3.916599
    150          1           0      -26.744515   -4.123858   -4.292343
    151          1           0      -27.829253   -3.771939   -3.006521
    152          1           0      -22.488126   -0.507479   -4.525632
    153          1           0      -22.753610   -2.196433   -4.040639
    154          1           0      -21.630892   -1.071898   -3.183287
    155          1           0      -24.446877    3.771322   -2.424500
    156          1           0      -21.376492    4.993642    0.501103
    157          1           0      -21.989270    6.531170   -0.091567
    158          1           0      -20.904701    5.511138   -1.178327
 ---------------------------------------------------------------------

 SCF Done:  E(RCAM-B3LYP) =  -4069.84627241     A.U. after   19 cycles

 Excitation energies and oscillator strengths:

 Excited State   1:      Singlet-A      1.7177 eV  721.80 nm  f=0.4136  <S**2>=0.000
     310 -> 315       -0.18152
     312 -> 314        0.68398
     310 <- 315       -0.10677
 This state for optimization and/or second-order correction.
 Total Energy, E(TD-HF/TD-DFT) =  -4069.78314762
 Copying the excited state density for this state as the 1-particle RhoCI density.

 Excited State   2:      Singlet-A      1.7437 eV  711.02 nm  f=0.3930  <S**2>=0.000
     309 -> 316        0.17837
     311 -> 313        0.68463
     309 <- 316        0.10695

 Excited State   3:      Singlet-A      2.1355 eV  580.60 nm  f=0.1570  <S**2>=0.000
     310 -> 314        0.65932
     312 -> 315        0.23565

 Excited State   4:      Singlet-A      2.2018 eV  563.10 nm  f=0.1596  <S**2>=0.000
     309 -> 313        0.65400
     311 -> 316       -0.24979

 Excited State   5:      Singlet-A      3.1741 eV  390.61 nm  f=0.0000  <S**2>=0.000
     312 -> 313        0.70711

 The electronic state is 1-A.
 Alpha  occ. eigenvalues --  -46.88227 -46.87171 -19.25651 -19.23857 -19.19928
 Alpha  occ. eigenvalues --  -19.19877 -19.19505 -19.19027 -19.18969 -19.18689
 Alpha  occ. eigenvalues --  -14.42263 -14.42052 -14.41876 -14.41492 -14.39414
 Alpha  occ. eigenvalues --  -14.39279 -14.38545 -14.38147 -10.39420 -10.38666
 Alpha  occ. eigenvalues --  -10.36332 -10.36171 -10.35069 -10.35029 -10.32170
 Alpha  occ. eigenvalues --  -10.31151 -10.31039 -10.30869 -10.30863 -10.30694
 Alpha  occ. eigenvalues --  -10.30656 -10.30619 -10.30610 -10.30609 -10.30427
 Alpha  occ. eigenvalues --  -10.30302 -10.29909 -10.29855 -10.29088 -10.28930
 Alpha  occ. eigenvalues --  -10.28859 -10.28836 -10.28659 -10.28560 -10.28255
 Alpha  occ. eigenvalues --  -10.28137 -10.28126 -10.28094 -10.28052 -10.27891
 Alpha  occ. eigenvalues --  -10.27854 -10.27760 -10.27756 -10.27748 -10.27646
 Alpha  occ. eigenvalues --  -10.27632 -10.27602 -10.27559 -10.27554 -10.27406
 Alpha  occ. eigenvalues --  -10.27400 -10.27209 -10.27108 -10.26986 -10.26940
 Alpha  occ. eigenvalues --  -10.26932 -10.26897 -10.26717 -10.26575 -10.26493
 Alpha  occ. eigenvalues --  -10.26342 -10.26330 -10.26307 -10.26112 -10.26076
 Alpha  occ. eigenvalues --  -10.25967 -10.25902 -10.25832 -10.25783 -10.25781
 Alpha  occ. eigenvalues --  -10.25702 -10.25456 -10.25326 -10.24742 -10.24646
 Alpha  occ. eigenvalues --  -10.24345  -3.16752  -3.15899  -1.91653  -1.91205
 Alpha  occ. eigenvalues --   -1.91059  -1.90804  -1.90343  -1.90224  -1.15748
 Alpha  occ. eigenvalues --   -1.15073  -1.11698  -1.11566  -1.10314  -1.08850
 Alpha  occ. eigenvalues --   -1.06627  -1.06325  -1.04932  -1.04434  -1.03333
 Alpha  occ. eigenvalues --   -1.03312  -1.02544  -1.02431  -1.01417  -1.01005
 Alpha  occ. eigenvalues --   -0.92571  -0.92059  -0.89199  -0.89166  -0.88793
 Alpha  occ. eigenvalues --   -0.88653  -0.88123  -0.88021  -0.87080  -0.87019
 Alpha  occ. eigenvalues --   -0.86443  -0.86406  -0.86072  -0.85817  -0.84304
 Alpha  occ. eigenvalues --   -0.84186  -0.83821  -0.83423  -0.82898  -0.82323
 Alpha  occ. eigenvalues --   -0.82101  -0.81950  -0.81184  -0.80985  -0.80655
 Alpha  occ. eigenvalues --   -0.80156  -0.78225  -0.78112  -0.77313  -0.77124
 Alpha  occ. eigenvalues --   -0.76824  -0.76767  -0.75885  -0.75725  -0.74998
 Alpha  occ. eigenvalues --   -0.74874  -0.72873  -0.72417  -0.71078  -0.70920
 Alpha  occ. eigenvalues --   -0.69804  -0.68600  -0.68433  -0.68107  -0.67672
 Alpha  occ. eigenvalues --   -0.67582  -0.66535  -0.66063  -0.65506  -0.65170
 Alpha  occ. eigenvalues --   -0.64751  -0.64686  -0.64562  -0.64427  -0.64033
 Alpha  occ. eigenvalues --   -0.63711  -0.61936  -0.61385  -0.60312  -0.60108
 Alpha  occ. eigenvalues --   -0.59757  -0.59240  -0.59076  -0.59067  -0.58301
 Alpha  occ. eigenvalues --   -0.58199  -0.57681  -0.57653  -0.57612  -0.57395
 Alpha  occ. eigenvalues --   -0.56151  -0.55841  -0.55672  -0.55497  -0.55421
 Alpha  occ. eigenvalues --   -0.55156  -0.54984  -0.54647  -0.53833  -0.53690
 Alpha  occ. eigenvalues --   -0.53548  -0.53426  -0.53334  -0.52853  -0.52664
 Alpha  occ. eigenvalues --   -0.52616  -0.52575  -0.52312  -0.52119  -0.51962
 Alpha  occ. eigenvalues --   -0.51877  -0.51814  -0.51596  -0.51547  -0.51020
 Alpha  occ. eigenvalues --   -0.50885  -0.50788  -0.50622  -0.50451  -0.50209
 Alpha  occ. eigenvalues --   -0.50099  -0.49794  -0.49655  -0.49568  -0.49443
 Alpha  occ. eigenvalues --   -0.49401  -0.49351  -0.49099  -0.49045  -0.48987
 Alpha  occ. eigenvalues --   -0.48708  -0.48527  -0.48216  -0.48114  -0.47941
 Alpha  occ. eigenvalues --   -0.47667  -0.47608  -0.47248  -0.47098  -0.46778
 Alpha  occ. eigenvalues --   -0.46732  -0.46637  -0.46449  -0.46241  -0.46137
 Alpha  occ. eigenvalues --   -0.46110  -0.45837  -0.45811  -0.45764  -0.45631
 Alpha  occ. eigenvalues --   -0.45397  -0.45231  -0.45074  -0.45013  -0.44736
 Alpha  occ. eigenvalues --   -0.44666  -0.44627  -0.44446  -0.44326  -0.44252
 Alpha  occ. eigenvalues --   -0.43952  -0.43626  -0.43391  -0.43390  -0.43346
 Alpha  occ. eigenvalues --   -0.43171  -0.43041  -0.42910  -0.42865  -0.42773
 Alpha  occ. eigenvalues --   -0.42659  -0.42604  -0.42348  -0.42270  -0.41930
 Alpha  occ. eigenvalues --   -0.41912  -0.41870  -0.41484  -0.41215  -0.41082
 Alpha  occ. eigenvalues --   -0.40940  -0.40870  -0.40599  -0.40472  -0.40215
 Alpha  occ. eigenvalues --   -0.40063  -0.39900  -0.39145  -0.38832  -0.38500
 Alpha  occ. eigenvalues --   -0.38376  -0.38345  -0.37838  -0.37825  -0.37820
 Alpha  occ. eigenvalues --   -0.37673  -0.36748  -0.36612  -0.36322  -0.36106
 Alpha  occ. eigenvalues --   -0.35980  -0.35656  -0.34303  -0.34236  -0.34131
 Alpha  occ. eigenvalues --   -0.33784  -0.33259  -0.33145  -0.31753  -0.31588
 Alpha  occ. eigenvalues --   -0.31262  -0.30867  -0.30848  -0.30801  -0.29975
 Alpha  occ. eigenvalues --   -0.29589  -0.29552  -0.28638  -0.23959  -0.23497
 Alpha  occ. eigenvalues --   -0.21518  -0.21301
 Alpha virt. eigenvalues --   -0.09002  -0.08897  -0.01296  -0.01259   0.00619
 Alpha virt. eigenvalues --    0.00748   0.02508   0.02626   0.02803   0.03459
 Alpha virt. eigenvalues --    0.04518   0.05157   0.05348   0.05415   0.06024

 Mulliken charges:
               1
     1  Mg   0.836455
     2  C   -0.017268
     3  C   -0.093337
     4  C   -0.052656
     5  C   -0.080132
     6  N   -0.248980
     7  C   -0.021717
     8  C   -0.040985
     9  C   -0.078617
    10  C    0.007136
    11  C    0.066214
    12  C    0.084143
    13  C   -0.064159
    14  H    0.014333
    15  N   -0.438714
    16  C    0.227536
    17  C   -0.127635
    18  C   -0.044675
    19  C    0.133356
    20  C    0.086863
    21  C    0.029709
    22  O   -0.182050
    23  C    0.052838
    24  N   -0.286419
    25  C    0.051522
    26  C   -0.061426
    27  C   -0.034528
    28  C    0.042331
    29  C    0.054080
    30  C    0.073744
    31  C   -0.018451
    32  N   -0.354993
    33  C    0.116748
    34  C   -0.202360
    35  C    0.059000
    36  C    0.084178
    37  C    0.134358
    38  C    0.027032
    39  O   -0.153445
    40  C    0.027143
    41  C    0.210829
    42  O   -0.254011
    43  O   -0.341534
    44  C    0.182443
    45  H   -0.036346
    46  H   -0.006354
    47  H   -0.029031
    48  H    0.004869
    49  H   -0.000633
    50  H    0.022980
    51  H    0.021886
    52  H    0.010891
    53  H    0.006680
    54  H    0.004975
    55  H    0.043004
    56  H    0.032317
    57  H    0.027958
    58  H   -0.000578
    59  H    0.023533
    60  H    0.045115
    61  H    0.025186
    62  H    0.027632
    63  H    0.011515
    64  H    0.015269
    65  H    0.022289
    66  H    0.008773
    67  H    0.015446
    68  H    0.011048
    69  H    0.012766
    70  H    0.016474
    71  H    0.008633
    72  H    0.004064
    73  H    0.011010
    74  H    0.043415
    75  H    0.026486
    76  H    0.026259
    77  H    0.041807
    78  H    0.046555
    79  H    0.050209
    80  Mg   0.823070
    81  C    0.006421
    82  C   -0.075159
    83  C   -0.064042
    84  C   -0.084827
    85  N   -0.287769
    86  C   -0.049471
    87  C   -0.003276
    88  C   -0.105779
    89  C    0.045278
    90  C    0.081865
    91  C    0.057003
    92  C   -0.056548
    93  H    0.033398
    94  N   -0.398852
    95  C    0.148735
    96  C   -0.158255
    97  C   -0.054701
    98  C    0.106818
    99  C    0.107918
   100  C    0.035161
   101  O   -0.175855
   102  C    0.039519
   103  N   -0.264170
   104  C    0.020574
   105  C   -0.037481
   106  C    0.004157
   107  C    0.026927
   108  C    0.071306
   109  C    0.003287
   110  C    0.023095
   111  N   -0.363429
   112  C    0.130893
   113  C   -0.149200
   114  C    0.007051
   115  C    0.102500
   116  C    0.128404
   117  C    0.019669
   118  O   -0.185023
   119  C    0.009726
   120  C    0.206563
   121  O   -0.224781
   122  O   -0.347462
   123  C    0.165990
   124  H   -0.022146
   125  H   -0.007207
   126  H   -0.041545
   127  H    0.017806
   128  H    0.005490
   129  H    0.018267
   130  H    0.021365
   131  H    0.034515
   132  H    0.006322
   133  H    0.007284
   134  H    0.018413
   135  H    0.031221
   136  H    0.004037
   137  H    0.025183
   138  H    0.045387
   139  H    0.059608
   140  H    0.027301
   141  H    0.011652
   142  H    0.014054
   143  H    0.008381
   144  H    0.018929
   145  H    0.013836
   146  H    0.029146
   147  H    0.005402
   148  H    0.006367
   149  H    0.017066
   150  H    0.014987
   151  H    0.026895
   152  H    0.029743
   153  H    0.012624
   154  H    0.034365
   155  H    0.043360
   156  H    0.050342
   157  H    0.036874
   158  H    0.055427
 Sum of Mulliken charges =  -0.00000

 Dipole moment (field-independent basis, Debye):
    X=             -0.8367    Y=              1.6560    Z=             -2.8854  Tot=              3.4304
 Quadrupole moment (field-independent basis, Debye-Ang):
   XX=           -179.2628   YY=           -475.0446   ZZ=           -498.5855
   XY=             -8.0218   XZ=            -84.6010   YZ=             -7.1232

 Normal termination of Gaussian 16 at Tue Sep 14 21:06:54 2021.
