 Gaussian 16, Revision A.03,
 Gaussian 16:  ES64L-G16RevA.03 25-Dec-2016

 ----------------------------------------------------------
 #p cam-b3lyp/Def2SVP td=(nstates=5) density=(transition=1)
 ----------------------------------------------------------

 --------------------------------
 TDDFT excited states in gaussian
 --------------------------------
 Symbolic Z-matrix:
 Charge =  0 Multiplicity = 1

                         Standard orientation:
 ---------------------------------------------------------------------
 Center     Atomic      Atomic             Coordinates (Angstroms)
 Number     Number       Type             X           Y           Z
 ---------------------------------------------------------------------
      1         12           0      -27.059674    0.159841   -0.251163
      2          6           0      -23.651949   -0.056153    0.701457
      3          6           0      -26.261144   -1.581641   -3.054235
      4          6           0      -30.390925   -0.334009   -0.718351
      5          6           0      -27.748297    1.454084    2.889454
      6          7           0      -25.129458   -0.815428   -0.906665
      7          6           0      -23.840568   -0.712590   -0.454703
      8          6           0      -22.873318   -1.353467   -1.379177
      9          6           0      -23.720144   -1.528448   -2.726378
     10          6           0      -25.106664   -1.317811   -2.221399
     11          6           0      -23.291342   -0.539235   -3.798092
     12          6           0      -22.364241   -2.631002   -0.693343
     13          6           0      -20.794624   -2.807579   -0.541564
     14          1           0      -20.066055   -4.075062   -1.081360
     15          7           0      -28.225991   -0.765186   -1.677551
     16          6           0      -27.678326   -1.359845   -2.822742
     17          6           0      -28.759840   -1.681528   -3.704670
     18          6           0      -30.000913   -1.365779   -3.055313
     19          6           0      -29.563492   -0.724163   -1.786640
     20          6           0      -28.492429   -2.250014   -5.092369
     21          6           0      -31.414194   -1.582315   -3.548270
     22          8           0      -31.472895   -2.002647   -4.740056
     23          6           0      -32.749102   -1.459763   -2.760353
     24          7           0      -28.866223    0.515826    0.918315
     25          6           0      -30.118986    0.253245    0.485250
     26          6           0      -31.212014    0.597435    1.531453
     27          6           0      -30.353634    1.280070    2.651662
     28          6           0      -28.862640    1.015618    2.132145
     29          6           0      -32.253105    1.505874    0.902318
     30          6           0      -30.541365    0.727503    4.031588
     31          6           0      -31.209474    1.682014    4.983672
     32          7           0      -26.013754    0.776667    1.372865
     33          6           0      -26.374569    1.346299    2.600504
     34          6           0      -25.283316    1.805804    3.296273
     35          6           0      -24.180646    1.310680    2.570607
     36          6           0      -24.680485    0.631148    1.462084
     37          6           0      -25.376297    2.747050    4.478542
     38          6           0      -22.694937    1.325389    2.507421
     39          8           0      -21.913829    1.857225    3.233714
     40          6           0      -22.381813    0.346681    1.313118
     41          6           0      -21.231566    0.951215    0.537804
     42          8           0      -20.067156    0.555240    0.590699
     43          8           0      -21.695586    1.999399   -0.293608
     44          6           0      -20.643096    2.533491   -1.157462
     45          1           0      -25.992161   -1.939048   -4.050663
     46          1           0      -31.471799   -0.381441   -0.870370
     47          1           0      -27.895850    1.647863    3.953340
     48          1           0      -22.028873   -0.683538   -1.541565
     49          1           0      -23.546675   -2.534657   -3.106958
     50          1           0      -23.033439    0.441129   -3.399859
     51          1           0      -24.144653   -0.352093   -4.450819
     52          1           0      -22.495172   -0.908627   -4.444398
     53          1           0      -22.754298   -3.474749   -1.262410
     54          1           0      -22.814370   -2.817008    0.281793
     55          1           0      -20.712077   -2.802023    0.545601
     56          1           0      -20.275779   -1.887943   -0.809489
     57          1           0      -27.814845   -3.102408   -5.043088
     58          1           0      -27.995138   -1.457513   -5.651475
     59          1           0      -29.338534   -2.673621   -5.635188
     60          1           0      -32.838224   -0.387121   -2.591293
     61          1           0      -32.646350   -1.999154   -1.818687
     62          1           0      -33.596057   -1.880498   -3.302992
     63          1           0      -31.750643   -0.269378    1.913520
     64          1           0      -30.463667    2.362721    2.595085
     65          1           0      -32.577838    1.040549   -0.028492
     66          1           0      -31.781608    2.466389    0.692005
     67          1           0      -33.112476    1.823539    1.491589
     68          1           0      -29.606897    0.472616    4.531497
     69          1           0      -31.100704   -0.204092    4.115167
     70          1           0      -32.073301    1.175650    5.412602
     71          1           0      -31.624657    2.556791    4.483183
     72          1           0      -30.548947    2.081330    5.754054
     73          1           0      -24.383828    3.184480    4.591672
     74          1           0      -25.653729    2.231223    5.397502
     75          1           0      -26.140693    3.470292    4.195303
     76          1           0      -21.918330   -0.493961    1.830749
     77          1           0      -21.072497    2.956258   -2.065848
     78          1           0      -20.014323    1.738527   -1.555918
     79          1           0      -19.998528    3.252854   -0.651590
     80         12           0       26.216769   -0.768444    0.079173
     81          6           0       26.890247    2.380727   -1.224299
     82          6           0       23.386329    0.647787    1.497825
     83          6           0       25.805554   -3.685962    1.777771
     84          6           0       29.175557   -1.930887   -1.281046
     85          7           0       25.284858    1.298534    0.170615
     86          6           0       25.711998    2.449634   -0.473693
     87          6           0       24.837568    3.723926   -0.149004
     88          6           0       23.922276    3.136730    0.994289
     89          6           0       24.225955    1.594476    0.930417
     90          6           0       24.063324    3.613458    2.442854
     91          6           0       24.114916    4.230282   -1.410752
     92          6           0       24.622283    5.507823   -2.026076
     93          1           0       23.567553    6.458099   -2.620287
     94          7           0       24.720064   -1.533360    1.293013
     95          6           0       23.638913   -0.796548    1.664357
     96          6           0       22.840318   -1.682080    2.534111
     97          6           0       23.540772   -2.884172    2.719928
     98          6           0       24.711218   -2.778966    1.938374
     99          6           0       21.482232   -1.299490    2.963776
    100          6           0       23.213375   -4.072266    3.576189
    101          8           0       23.882002   -5.142984    3.565564
    102          6           0       22.135829   -4.106459    4.514373
    103          7           0       27.256769   -2.536504    0.164124
    104          6           0       26.885869   -3.613506    0.909138
    105          6           0       27.821982   -4.753020    0.809870
    106          6           0       28.887843   -4.233790   -0.220745
    107          6           0       28.451020   -2.828576   -0.400679
    108          6           0       28.510135   -5.402797    2.046303
    109          6           0       29.047319   -5.118716   -1.554128
    110          6           0       28.129912   -4.949932   -2.801532
    111          7           0       27.769496   -0.000273   -0.988178
    112          6           0       28.885387   -0.592253   -1.505947
    113          6           0       29.539747    0.287937   -2.372140
    114          6           0       28.799714    1.520752   -2.200978
    115          6           0       27.723949    1.270359   -1.372592
    116          6           0       30.735892    0.001036   -3.277877
    117          6           0       28.718809    2.856154   -2.719287
    118          8           0       29.311662    3.474326   -3.579945
    119          6           0       27.573003    3.543507   -1.896911
    120          6           0       28.151597    4.500989   -0.933524
    121          8           0       28.141472    4.399116    0.312981
    122          8           0       28.763688    5.564065   -1.499456
    123          6           0       29.181625    6.725049   -0.641702
    124          1           0       22.533043    1.114172    1.993375
    125          1           0       25.749990   -4.630892    2.322609
    126          1           0       30.025185   -2.266495   -1.880173
    127          1           0       25.388301    4.461776    0.435349
    128          1           0       22.898500    3.301599    0.658572
    129          1           0       24.484793    2.819943    3.060399
    130          1           0       23.049542    3.698367    2.831399
    131          1           0       24.634971    4.531592    2.582651
    132          1           0       23.095702    4.441865   -1.085311
    133          1           0       24.061853    3.407623   -2.123855
    134          1           0       25.304846    5.232735   -2.830581
    135          1           0       25.237429    6.131145   -1.376951
    136          1           0       20.829874   -2.052422    2.523367
    137          1           0       21.094989   -0.310902    2.713765
    138          1           0       21.408650   -1.375570    4.048595
    139          1           0       22.183898   -3.152248    5.038380
    140          1           0       22.142449   -5.038338    5.078282
    141          1           0       21.172430   -4.041578    4.008588
    142          1           0       27.153788   -5.483612    0.354897
    143          1           0       29.861111   -4.179597    0.265595
    144          1           0       28.177079   -6.427950    2.208522
    145          1           0       28.262254   -4.865904    2.962572
    146          1           0       29.598758   -5.373157    2.001664
    147          1           0       28.850859   -6.123929   -1.180625
    148          1           0       30.109942   -4.981480   -1.754941
    149          1           0       27.467644   -4.084820   -2.781151
    150          1           0       27.604453   -5.845430   -3.134526
    151          1           0       28.838443   -4.817441   -3.618116
    152          1           0       31.568755    0.676274   -3.078902
    153          1           0       30.426025    0.205288   -4.302621
    154          1           0       31.067566   -1.037608   -3.275885
    155          1           0       27.027286    4.191645   -2.582845
    156          1           0       29.341168    7.434362   -1.453933
    157          1           0       30.071696    6.555954   -0.036556
    158          1           0       28.363784    7.003236    0.023738
 ---------------------------------------------------------------------

 SCF Done:  E(RCAM-B3LYP) =  -4069.81422093     A.U. after   17 cycles

 Excitation energies and oscillator strengths:

 Excited State   1:      Singlet-A      1.6837 eV  736.38 nm  f=0.3608  <S**2>=0.000
     309 -> 315        0.17392
     311 -> 313        0.68681
     309 <- 315        0.10795
 This state for optimization and/or second-order correction.
 Total Energy, E(TD-HF/TD-DFT) =  -4069.75234625
 Copying the excited state density for this state as the 1-particle RhoCI density.

 Excited State   2:      Singlet-A      1.7035 eV  727.82 nm  f=0.3876  <S**2>=0.000
     310 -> 316        0.17723
     312 -> 314        0.68472
     310 <- 316        0.10753

 Excited State   3:      Singlet-A      2.2075 eV  561.65 nm  f=0.1423  <S**2>=0.000
     310 -> 314        0.65095
     312 -> 316       -0.26118

 Excited State   4:      Singlet-A      2.2196 eV  558.59 nm  f=0.1591  <S**2>=0.000
     309 -> 313        0.64872
     311 -> 315       -0.26684

 Excited State   5:      Singlet-A      3.0167 eV  410.99 nm  f=0.0000  <S**2>=0.000
     312 -> 313        0.70710

 The electronic state is 1-A.
 Alpha  occ. eigenvalues --  -46.89042 -46.87515 -19.25665 -19.24051 -19.21046
 Alpha  occ. eigenvalues --  -19.19889 -19.18336 -19.18246 -19.18210 -19.17936
 Alpha  occ. eigenvalues --  -14.42404 -14.42264 -14.41988 -14.41846 -14.40123
 Alpha  occ. eigenvalues --  -14.39517 -14.39033 -14.38345 -10.40390 -10.38526
 Alpha  occ. eigenvalues --  -10.35695 -10.35515 -10.34502 -10.34165 -10.32021
 Alpha  occ. eigenvalues --  -10.32002 -10.31700 -10.31156 -10.30943 -10.30889
 Alpha  occ. eigenvalues --  -10.30789 -10.30701 -10.30669 -10.30585 -10.30579
 Alpha  occ. eigenvalues --  -10.30452 -10.30109 -10.30010 -10.29094 -10.28897
 Alpha  occ. eigenvalues --  -10.28890 -10.28605 -10.28576 -10.28571 -10.28542
 Alpha  occ. eigenvalues --  -10.28438 -10.28363 -10.28354 -10.28350 -10.28278
 Alpha  occ. eigenvalues --  -10.28239 -10.28133 -10.28019 -10.27823 -10.27761
 Alpha  occ. eigenvalues --  -10.27717 -10.27649 -10.27513 -10.27404 -10.27363
 Alpha  occ. eigenvalues --  -10.27334 -10.27241 -10.27238 -10.27129 -10.27078
 Alpha  occ. eigenvalues --  -10.27067 -10.27006 -10.26891 -10.26865 -10.26792
 Alpha  occ. eigenvalues --  -10.26734 -10.26681 -10.26621 -10.26523 -10.26328
 Alpha  occ. eigenvalues --  -10.26301 -10.25985 -10.25984 -10.25899 -10.25875
 Alpha  occ. eigenvalues --  -10.25705 -10.25650 -10.25401 -10.25234 -10.25119
 Alpha  occ. eigenvalues --  -10.24595  -3.17605  -3.16230  -1.92486  -1.92066
 Alpha  occ. eigenvalues --   -1.91911  -1.91141  -1.90689  -1.90534  -1.15627
 Alpha  occ. eigenvalues --   -1.15121  -1.12077  -1.09512  -1.07989  -1.07934
 Alpha  occ. eigenvalues --   -1.07662  -1.05288  -1.05116  -1.04824  -1.04308
 Alpha  occ. eigenvalues --   -1.04071  -1.03392  -1.03223  -1.02787  -1.02212
 Alpha  occ. eigenvalues --   -0.93354  -0.93067  -0.89968  -0.89357  -0.89098
 Alpha  occ. eigenvalues --   -0.89020  -0.88433  -0.88283  -0.87901  -0.87560
 Alpha  occ. eigenvalues --   -0.87048  -0.86993  -0.86083  -0.85989  -0.84874
 Alpha  occ. eigenvalues --   -0.84363  -0.84315  -0.83630  -0.82790  -0.82670
 Alpha  occ. eigenvalues --   -0.82446  -0.81986  -0.80971  -0.80740  -0.80533
 Alpha  occ. eigenvalues --   -0.80530  -0.78539  -0.77850  -0.77499  -0.77494
 Alpha  occ. eigenvalues --   -0.76936  -0.76852  -0.76536  -0.76195  -0.75546
 Alpha  occ. eigenvalues --   -0.75280  -0.73564  -0.73096  -0.72264  -0.71318
 Alpha  occ. eigenvalues --   -0.70089  -0.69450  -0.69026  -0.68758  -0.67986
 Alpha  occ. eigenvalues --   -0.67754  -0.67275  -0.67083  -0.66389  -0.65735
 Alpha  occ. eigenvalues --   -0.65391  -0.65184  -0.65071  -0.64972  -0.64595
 Alpha  occ. eigenvalues --   -0.64350  -0.63163  -0.61476  -0.60570  -0.60134
 Alpha  occ. eigenvalues --   -0.59944  -0.59635  -0.59628  -0.59133  -0.59000
 Alpha  occ. eigenvalues --   -0.58577  -0.58097  -0.57780  -0.57289  -0.56929
 Alpha  occ. eigenvalues --   -0.56268  -0.56153  -0.55869  -0.55670  -0.55621
 Alpha  occ. eigenvalues --   -0.54989  -0.54879  -0.54427  -0.54390  -0.53940
 Alpha  occ. eigenvalues --   -0.53812  -0.53629  -0.53247  -0.53231  -0.52893
 Alpha  occ. eigenvalues --   -0.52740  -0.52511  -0.52423  -0.52325  -0.52085
 Alpha  occ. eigenvalues --   -0.52059  -0.51869  -0.51754  -0.51161  -0.51055
 Alpha  occ. eigenvalues --   -0.50917  -0.50822  -0.50584  -0.50335  -0.50330
 Alpha  occ. eigenvalues --   -0.50149  -0.50083  -0.49908  -0.49745  -0.49697
 Alpha  occ. eigenvalues --   -0.49621  -0.49410  -0.48951  -0.48925  -0.48789
 Alpha  occ. eigenvalues --   -0.48689  -0.48462  -0.48381  -0.48171  -0.48036
 Alpha  occ. eigenvalues --   -0.47912  -0.47768  -0.47749  -0.47253  -0.47211
 Alpha  occ. eigenvalues --   -0.46926  -0.46738  -0.46645  -0.46500  -0.46479
 Alpha  occ. eigenvalues --   -0.46233  -0.46059  -0.45975  -0.45949  -0.45786
 Alpha  occ. eigenvalues --   -0.45690  -0.45534  -0.45386  -0.45347  -0.45248
 Alpha  occ. eigenvalues --   -0.45191  -0.45156  -0.44926  -0.44786  -0.44233
 Alpha  occ. eigenvalues --   -0.44092  -0.44007  -0.43964  -0.43802  -0.43777
 Alpha  occ. eigenvalues --   -0.43705  -0.43399  -0.43307  -0.42877  -0.42744
 Alpha  occ. eigenvalues --   -0.42691  -0.42540  -0.42475  -0.42449  -0.42438
 Alpha  occ. eigenvalues --   -0.42112  -0.41773  -0.41618  -0.41585  -0.41466
 Alpha  occ. eigenvalues --   -0.41431  -0.41150  -0.41109  -0.40777  -0.40316
 Alpha  occ. eigenvalues --   -0.40169  -0.39963  -0.39688  -0.39075  -0.38908
 Alpha  occ. eigenvalues --   -0.38813  -0.38260  -0.38188  -0.37848  -0.37802
 Alpha  occ. eigenvalues --   -0.37368  -0.37293  -0.36895  -0.36488  -0.36461
 Alpha  occ. eigenvalues --   -0.36373  -0.35588  -0.35453  -0.34735  -0.34290
 Alpha  occ. eigenvalues --   -0.33225  -0.33172  -0.32866  -0.31784  -0.31162
 Alpha  occ. eigenvalues --   -0.30977  -0.30617  -0.30597  -0.30054  -0.30017
 Alpha  occ. eigenvalues --   -0.29879  -0.29825  -0.29302  -0.24448  -0.23624
 Alpha  occ. eigenvalues --   -0.21679  -0.21094
 Alpha virt. eigenvalues --   -0.09363  -0.08673  -0.01868  -0.01292   0.00194
 Alpha virt. eigenvalues --    0.00702   0.01764   0.02369   0.02378   0.03584
 Alpha virt. eigenvalues --    0.04110   0.04984   0.05062   0.05658   0.05672

 Mulliken charges:
               1
     1  Mg  12.001557
     2  C    5.973214
     3  C    6.001534
     4  C    6.039199
     5  C    6.013003
     6  N    6.972348
     7  C    6.030065
     8  C    5.989849
     9  C    6.016800
    10  C    5.973961
    11  C    6.005137
    12  C    5.994536
    13  C    6.000571
    14  H    1.005603
    15  N    7.010231
    16  C    5.956885
    17  C    5.980315
    18  C    5.991084
    19  C    5.951233
    20  C    6.003927
    21  C    5.989095
    22  O    7.980343
    23  C    5.998140
    24  N    7.018481
    25  C    5.958338
    26  C    6.011800
    27  C    5.993249
    28  C    6.018940
    29  C    6.003928
    30  C    5.994613
    31  C    5.997804
    32  N    6.998814
    33  C    6.029288
    34  C    6.028732
    35  C    6.005011
    36  C    6.038277
    37  C    5.999410
    38  C    6.018090
    39  O    8.026508
    40  C    6.003477
    41  C    6.003425
    42  O    8.006332
    43  O    7.997966
    44  C    5.996645
    45  H    0.984592
    46  H    0.999182
    47  H    1.015802
    48  H    0.998392
    49  H    0.994432
    50  H    0.984489
    51  H    1.004905
    52  H    0.989081
    53  H    1.011196
    54  H    0.996258
    55  H    0.995219
    56  H    0.998420
    57  H    0.981982
    58  H    0.981395
    59  H    0.984350
    60  H    0.990032
    61  H    0.989922
    62  H    0.989230
    63  H    0.998958
    64  H    1.002005
    65  H    1.008122
    66  H    0.994765
    67  H    0.993150
    68  H    0.994583
    69  H    1.011108
    70  H    1.007262
    71  H    1.005406
    72  H    0.997751
    73  H    1.015308
    74  H    1.021001
    75  H    1.016520
    76  H    1.004618
    77  H    1.007020
    78  H    1.005626
    79  H    1.000163
    80  Mg  12.000010
    81  C    5.999644
    82  C    6.000157
    83  C    6.000370
    84  C    6.000067
    85  N    6.999937
    86  C    6.000357
    87  C    5.999859
    88  C    6.000054
    89  C    5.999745
    90  C    6.000036
    91  C    5.999953
    92  C    5.999979
    93  H    1.000066
    94  N    7.000064
    95  C    5.999546
    96  C    5.999603
    97  C    5.999983
    98  C    5.999496
    99  C    6.000156
   100  C    5.999842
   101  O    7.999718
   102  C    6.000076
   103  N    7.000109
   104  C    5.999483
   105  C    6.000191
   106  C    5.999870
   107  C    6.000288
   108  C    5.999985
   109  C    5.999943
   110  C    5.999958
   111  N    6.999969
   112  C    6.000258
   113  C    6.000382
   114  C    6.000008
   115  C    6.000432
   116  C    5.999926
   117  C    6.000186
   118  O    8.000351
   119  C    6.000061
   120  C    6.000012
   121  O    8.000094
   122  O    7.999993
   123  C    5.999968
   124  H    0.999844
   125  H    0.999892
   126  H    1.000180
   127  H    1.000051
   128  H    0.999965
   129  H    1.000047
   130  H    0.999974
   131  H    0.999846
   132  H    1.000089
   133  H    1.000016
   134  H    0.999958
   135  H    0.999996
   136  H    0.999723
   137  H    0.999712
   138  H    0.999685
   139  H    0.999945
   140  H    0.999826
   141  H    0.999900
   142  H    1.000003
   143  H    1.000019
   144  H    1.000006
   145  H    1.000020
   146  H    0.999892
   147  H    1.000165
   148  H    1.000000
   149  H    0.999983
   150  H    1.000122
   151  H    1.000005
   152  H    1.000246
   153  H    1.000240
   154  H    1.000227
   155  H    1.000102
   156  H    1.000044
   157  H    1.000037
   158  H    1.000053
 Sum of Mulliken charges = 624.00000

 Dipole moment (field-independent basis, Debye):
    X=              4.4196    Y=              4.2620    Z=              8.6789  Tot=             10.6311
 Quadrupole moment (field-independent basis, Debye-Ang):
   XX=           -227.9354   YY=              1.0606   ZZ=             -3.5305
   XY=           -112.9005   XZ=           -240.7724   YZ=             -0.2755

 Normal termination of Gaussian 16 at Wed Sep 22 17:22:18 2021.
