 Gaussian 16, Revision A.03,
 Gaussian 16:  ES64L-G16RevA.03 25-Dec-2016

 -----------------------------------
 #p cam-b3lyp/Def2SVP td=(nstates=5)
 -----------------------------------

 --------------------------------
 TDDFT excited states in gaussian
 --------------------------------
 Symbolic Z-matrix:
 Charge =  0 Multiplicity = 1

                         Standard orientation:
 ---------------------------------------------------------------------
 Center     Atomic      Atomic             Coordinates (Angstroms)
 Number     Number       Type             X           Y           Z
 ---------------------------------------------------------------------
      1         12           0       12.845753   -0.090124    0.466817
      2          6           0        9.338586   -0.504579   -0.515735
      3          6           0       13.292127    1.540951   -2.601778
      4          6           0       16.041870    0.006927    1.101638
      5          6           0       12.135757   -1.552674    3.486549
      6          7           0       11.543223    0.264405   -1.409704
      7          6           0       10.098931    0.133758   -1.557532
      8          6           0        9.566958    0.612589   -2.925356
      9          6           0       10.980700    1.072902   -3.610882
     10          6           0       12.046535    0.954638   -2.503826
     11          6           0       11.335632    0.294176   -4.862648
     12          6           0        8.470958    1.704685   -2.736587
     13          6           0        8.092671    2.456207   -3.977393
     14          1           0        6.634877    2.725772   -4.277129
     15          7           0       14.497337    0.652217   -0.606721
     16          6           0       14.489184    1.298292   -1.848134
     17          6           0       15.847346    1.711025   -2.197033
     18          6           0       16.696384    1.270508   -1.100670
     19          6           0       15.775465    0.600816   -0.109447
     20          6           0       16.235937    2.550848   -3.468719
     21          6           0       18.167506    1.347465   -0.903521
     22          8           0       18.763060    0.960943    0.093306
     23          6           0       19.010011    2.030708   -1.899380
     24          7           0       13.894790   -0.585276    2.053438
     25          6           0       15.229023   -0.576015    2.059430
     26          6           0       15.824111   -1.089481    3.391549
     27          6           0       14.583822   -1.148401    4.258873
     28          6           0       13.421832   -1.161638    3.191525
     29          6           0       16.524413   -2.436856    3.258545
     30          6           0       14.290482   -0.138399    5.337888
     31          6           0       14.089635    1.273830    4.831139
     32          7           0       11.152583   -0.964293    1.307506
     33          6           0       11.009642   -1.437571    2.624332
     34          6           0        9.649745   -1.877577    2.816506
     35          6           0        9.014091   -1.439710    1.626221
     36          6           0        9.955353   -0.903871    0.726696
     37          6           0        9.014187   -2.446525    4.051378
     38          6           0        7.650267   -1.348209    1.018997
     39          8           0        6.522894   -1.595898    1.497768
     40          6           0        7.859399   -0.773776   -0.380366
     41          6           0        7.265198   -1.717510   -1.428032
     42          8           0        7.589535   -2.901219   -1.740309
     43          8           0        6.349264   -0.996247   -2.135285
     44          6           0        5.708203   -1.704617   -3.266263
     45          1           0       13.382825    2.218050   -3.452552
     46          1           0       17.113792   -0.028915    1.306716
     47          1           0       11.842519   -2.048889    4.414163
     48          1           0        9.061618   -0.254455   -3.350656
     49          1           0       10.947258    2.146432   -3.796777
     50          1           0       11.438428    0.997519   -5.689487
     51          1           0       10.494085   -0.369412   -5.058330
     52          1           0       12.106036   -0.472014   -4.778598
     53          1           0        8.809742    2.313817   -1.897845
     54          1           0        7.567816    1.225007   -2.359104
     55          1           0        8.382468    2.015271   -4.930893
     56          1           0        8.488063    3.469644   -3.915070
     57          1           0       16.642938    3.480600   -3.070158
     58          1           0       15.386354    2.787805   -4.108976
     59          1           0       16.984716    1.963970   -4.000852
     60          1           0       18.758440    1.786891   -2.931752
     61          1           0       20.012909    1.670540   -1.672797
     62          1           0       18.734744    3.079588   -1.793296
     63          1           0       16.558561   -0.352236    3.716022
     64          1           0       14.535045   -2.068524    4.841871
     65          1           0       17.431342   -2.414588    3.861664
     66          1           0       16.801831   -2.637450    2.224250
     67          1           0       15.928844   -3.219021    3.730680
     68          1           0       15.071387   -0.221874    6.094246
     69          1           0       13.320143   -0.328156    5.796430
     70          1           0       14.638202    2.003208    5.425981
     71          1           0       13.052884    1.603562    4.902041
     72          1           0       14.414300    1.432883    3.802765
     73          1           0        8.115844   -1.879469    4.294128
     74          1           0        9.573280   -2.516059    4.984449
     75          1           0        8.724361   -3.470038    3.812715
     76          1           0        7.276029    0.144015   -0.459459
     77          1           0        6.179373   -1.405321   -4.202260
     78          1           0        4.680256   -1.382094   -3.100658
     79          1           0        5.688125   -2.785799   -3.123472
     80         12           0      -12.284813   -0.469860   -0.365641
     81          6           0      -12.084625    2.789983    0.777546
     82          6           0       -8.888472   -0.421603   -1.018553
     83          6           0      -12.408224   -3.823012   -0.734397
     84          6           0      -15.649515   -0.415537    0.689573
     85          7           0      -10.614240    0.938752    0.127592
     86          6           0      -10.846985    2.226072    0.398620
     87          6           0       -9.496933    2.994224    0.543495
     88          6           0       -8.516599    2.046543   -0.296322
     89          6           0       -9.408631    0.761356   -0.491831
     90          6           0       -7.968106    2.726993   -1.573684
     91          6           0       -9.068304    3.039194    1.992518
     92          6           0       -8.468400    4.356837    2.457857
     93          1           0       -7.268986    4.435953    3.475834
     94          7           0      -10.819599   -1.888451   -0.997704
     95          6           0       -9.494135   -1.720452   -1.144955
     96          6           0       -8.948279   -2.966694   -1.575168
     97          6           0       -9.984360   -3.944094   -1.675707
     98          6           0      -11.168065   -3.244859   -1.160578
     99          6           0       -7.542707   -3.082493   -2.036985
    100          6           0       -9.753211   -5.374641   -2.011152
    101          8           0       -8.638421   -5.758882   -2.323441
    102          6           0      -10.896414   -6.381880   -2.044883
    103          7           0      -13.919596   -1.945496   -0.127977
    104          6           0      -13.626553   -3.266435   -0.287668
    105          6           0      -14.752198   -4.119176    0.200554
    106          6           0      -15.793903   -2.995384    0.666714
    107          6           0      -15.156621   -1.665016    0.350845
    108          6           0      -15.283433   -5.137547   -0.825511
    109          6           0      -16.295931   -3.092312    2.175194
    110          6           0      -17.807689   -3.085063    2.502539
    111          7           0      -13.608183    0.860132    0.506454
    112          6           0      -14.932190    0.766856    0.800659
    113          6           0      -15.466581    2.038320    1.013590
    114          6           0      -14.397911    2.923852    0.999516
    115          6           0      -13.286935    2.153812    0.762562
    116          6           0      -16.960419    2.323696    1.346449
    117          6           0      -14.004135    4.249117    1.118153
    118          8           0      -14.685346    5.212875    1.450229
    119          6           0      -12.403260    4.303880    1.027049
    120          6           0      -11.960793    5.028932   -0.108924
    121          8           0      -11.925890    4.718588   -1.302056
    122          8           0      -11.513076    6.255929    0.370959
    123          6           0      -10.985681    7.261715   -0.535186
    124          1           0       -7.856989   -0.366191   -1.372058
    125          1           0      -12.601627   -4.895060   -0.816166
    126          1           0      -16.718444   -0.490572    0.900359
    127          1           0       -9.643181    4.001198    0.153690
    128          1           0       -7.686901    1.641768    0.282303
    129          1           0       -8.426662    3.701219   -1.741982
    130          1           0       -8.144317    2.080703   -2.434135
    131          1           0       -6.886668    2.804356   -1.463784
    132          1           0       -8.396837    2.256227    2.345516
    133          1           0       -9.965386    2.763601    2.546922
    134          1           0       -9.300789    4.965230    2.811126
    135          1           0       -8.147729    4.786041    1.508633
    136          1           0       -7.642422   -3.019603   -3.120430
    137          1           0       -7.091614   -4.021590   -1.715924
    138          1           0       -6.901963   -2.281409   -1.668299
    139          1           0      -11.075992   -6.656434   -1.005314
    140          1           0      -10.479776   -7.281678   -2.496859
    141          1           0      -11.768675   -5.960800   -2.544669
    142          1           0      -14.263112   -4.610798    1.040887
    143          1           0      -16.745884   -3.090363    0.144369
    144          1           0      -14.923166   -6.111059   -0.491331
    145          1           0      -14.967772   -4.917371   -1.845830
    146          1           0      -16.371509   -5.167268   -0.773389
    147          1           0      -15.875959   -2.251887    2.727646
    148          1           0      -15.982267   -4.013047    2.667583
    149          1           0      -17.960087   -2.011917    2.616842
    150          1           0      -17.990108   -3.568713    3.461304
    151          1           0      -18.537516   -3.322939    1.728788
    152          1           0      -17.148334    2.016332    2.374401
    153          1           0      -17.696352    1.758655    0.774079
    154          1           0      -17.182348    3.387610    1.258683
    155          1           0      -12.067983    4.710535    1.981281
    156          1           0      -11.222850    8.233353   -0.102956
    157          1           0      -11.287362    7.152558   -1.577243
    158          1           0       -9.898093    7.211667   -0.480878
 ---------------------------------------------------------------------

 SCF Done:  E(RCAM-B3LYP) =  -4069.79836985     A.U. after   19 cycles

 Excitation energies and oscillator strengths:

 Excited State   1:      Singlet-A      1.6627 eV  745.66 nm  f=0.4277  <S**2>=0.000
     310 -> 316       -0.16533
     312 -> 313        0.68705
     310 <- 316       -0.10505
 This state for optimization and/or second-order correction.
 Total Energy, E(TD-HF/TD-DFT) =  -4069.73726520
 Copying the excited state density for this state as the 1-particle RhoCI density.

 Excited State   2:      Singlet-A      1.6992 eV  729.67 nm  f=0.3828  <S**2>=0.000
     309 -> 315       -0.18465
     311 -> 314        0.68304
     309 <- 315       -0.10970

 Excited State   3:      Singlet-A      2.1713 eV  571.03 nm  f=0.1401  <S**2>=0.000
     310 -> 313        0.65256
     312 -> 316        0.25464

 Excited State   4:      Singlet-A      2.2278 eV  556.53 nm  f=0.0999  <S**2>=0.000
     309 -> 314        0.63667
     311 -> 315        0.29380

 Excited State   5:      Singlet-A      2.9438 eV  421.17 nm  f=0.0000  <S**2>=0.000
     311 -> 313        0.70704

 The electronic state is 1-A.
 Alpha  occ. eigenvalues --  -46.89628 -46.87756 -19.25748 -19.24595 -19.20145
 Alpha  occ. eigenvalues --  -19.19622 -19.19190 -19.18766 -19.18466 -19.18283
 Alpha  occ. eigenvalues --  -14.42500 -14.42287 -14.42165 -14.41960 -14.39958
 Alpha  occ. eigenvalues --  -14.39743 -14.39140 -14.38862 -10.39944 -10.39575
 Alpha  occ. eigenvalues --  -10.35175 -10.34739 -10.34647 -10.34551 -10.31974
 Alpha  occ. eigenvalues --  -10.31893 -10.31546 -10.31500 -10.31479 -10.31371
 Alpha  occ. eigenvalues --  -10.31332 -10.31249 -10.31094 -10.31084 -10.30843
 Alpha  occ. eigenvalues --  -10.30692 -10.30617 -10.30470 -10.29714 -10.29376
 Alpha  occ. eigenvalues --  -10.29264 -10.28963 -10.28961 -10.28878 -10.28820
 Alpha  occ. eigenvalues --  -10.28754 -10.28663 -10.28653 -10.28597 -10.28591
 Alpha  occ. eigenvalues --  -10.28439 -10.28282 -10.28267 -10.28258 -10.28252
 Alpha  occ. eigenvalues --  -10.28108 -10.28107 -10.27752 -10.27735 -10.27697
 Alpha  occ. eigenvalues --  -10.27533 -10.27509 -10.27387 -10.27306 -10.27009
 Alpha  occ. eigenvalues --  -10.26979 -10.26971 -10.26842 -10.26804 -10.26741
 Alpha  occ. eigenvalues --  -10.26540 -10.26480 -10.26280 -10.25990 -10.25962
 Alpha  occ. eigenvalues --  -10.25901 -10.25849 -10.25828 -10.25791 -10.25732
 Alpha  occ. eigenvalues --  -10.25721 -10.25629 -10.24826 -10.24790 -10.24704
 Alpha  occ. eigenvalues --  -10.24566  -3.17950  -3.16497  -1.92864  -1.92400
 Alpha  occ. eigenvalues --   -1.92243  -1.91402  -1.90963  -1.90799  -1.15990
 Alpha  occ. eigenvalues --   -1.15702  -1.10386  -1.09978  -1.09917  -1.07801
 Alpha  occ. eigenvalues --   -1.07478  -1.05751  -1.05450  -1.05052  -1.04022
 Alpha  occ. eigenvalues --   -1.03802  -1.02824  -1.02550  -1.02271  -1.00607
 Alpha  occ. eigenvalues --   -0.93841  -0.92305  -0.89696  -0.89420  -0.89085
 Alpha  occ. eigenvalues --   -0.88861  -0.88699  -0.88349  -0.87835  -0.87323
 Alpha  occ. eigenvalues --   -0.87002  -0.86820  -0.86128  -0.85882  -0.85372
 Alpha  occ. eigenvalues --   -0.84772  -0.84584  -0.84053  -0.82996  -0.82941
 Alpha  occ. eigenvalues --   -0.82303  -0.82193  -0.81426  -0.81416  -0.80739
 Alpha  occ. eigenvalues --   -0.80079  -0.78523  -0.78126  -0.77561  -0.77273
 Alpha  occ. eigenvalues --   -0.76812  -0.76507  -0.76457  -0.75964  -0.75500
 Alpha  occ. eigenvalues --   -0.75118  -0.73457  -0.72764  -0.72334  -0.71953
 Alpha  occ. eigenvalues --   -0.70301  -0.69768  -0.69450  -0.69207  -0.68062
 Alpha  occ. eigenvalues --   -0.67638  -0.67357  -0.67142  -0.66128  -0.65855
 Alpha  occ. eigenvalues --   -0.65430  -0.65065  -0.64805  -0.64664  -0.64330
 Alpha  occ. eigenvalues --   -0.63821  -0.62660  -0.61937  -0.60448  -0.60231
 Alpha  occ. eigenvalues --   -0.59834  -0.59164  -0.59082  -0.59076  -0.59046
 Alpha  occ. eigenvalues --   -0.58324  -0.58128  -0.57938  -0.57716  -0.57401
 Alpha  occ. eigenvalues --   -0.56298  -0.56282  -0.56103  -0.55984  -0.55482
 Alpha  occ. eigenvalues --   -0.55400  -0.55303  -0.54827  -0.54802  -0.54329
 Alpha  occ. eigenvalues --   -0.54291  -0.53486  -0.53464  -0.53341  -0.53075
 Alpha  occ. eigenvalues --   -0.52727  -0.52598  -0.52500  -0.52281  -0.52131
 Alpha  occ. eigenvalues --   -0.52037  -0.52023  -0.51778  -0.51450  -0.51253
 Alpha  occ. eigenvalues --   -0.51145  -0.50835  -0.50735  -0.50388  -0.50327
 Alpha  occ. eigenvalues --   -0.50189  -0.50081  -0.49969  -0.49794  -0.49536
 Alpha  occ. eigenvalues --   -0.49524  -0.49385  -0.48971  -0.48935  -0.48841
 Alpha  occ. eigenvalues --   -0.48811  -0.48546  -0.48450  -0.48327  -0.48236
 Alpha  occ. eigenvalues --   -0.48079  -0.47717  -0.47567  -0.47484  -0.47022
 Alpha  occ. eigenvalues --   -0.46831  -0.46759  -0.46701  -0.46647  -0.46556
 Alpha  occ. eigenvalues --   -0.46523  -0.46155  -0.46068  -0.46002  -0.45910
 Alpha  occ. eigenvalues --   -0.45768  -0.45698  -0.45442  -0.45418  -0.45238
 Alpha  occ. eigenvalues --   -0.45025  -0.44945  -0.44642  -0.44535  -0.44464
 Alpha  occ. eigenvalues --   -0.44354  -0.44183  -0.43976  -0.43843  -0.43559
 Alpha  occ. eigenvalues --   -0.43490  -0.43339  -0.43185  -0.43109  -0.42811
 Alpha  occ. eigenvalues --   -0.42630  -0.42505  -0.42199  -0.42141  -0.41996
 Alpha  occ. eigenvalues --   -0.41870  -0.41852  -0.41772  -0.41758  -0.41391
 Alpha  occ. eigenvalues --   -0.41205  -0.41013  -0.40958  -0.40465  -0.40195
 Alpha  occ. eigenvalues --   -0.39957  -0.39668  -0.39231  -0.39108  -0.38897
 Alpha  occ. eigenvalues --   -0.38228  -0.38154  -0.37913  -0.37333  -0.37314
 Alpha  occ. eigenvalues --   -0.37206  -0.37131  -0.36763  -0.36522  -0.36233
 Alpha  occ. eigenvalues --   -0.36110  -0.35613  -0.34875  -0.34304  -0.34303
 Alpha  occ. eigenvalues --   -0.34092  -0.33559  -0.33070  -0.31772  -0.31515
 Alpha  occ. eigenvalues --   -0.31272  -0.31151  -0.30648  -0.30442  -0.30401
 Alpha  occ. eigenvalues --   -0.30318  -0.29383  -0.29174  -0.24493  -0.24252
 Alpha  occ. eigenvalues --   -0.21487  -0.21479
 Alpha virt. eigenvalues --   -0.09295  -0.09125  -0.02214  -0.01663  -0.00121
 Alpha virt. eigenvalues --    0.00329   0.02188   0.02398   0.02568   0.03366
 Alpha virt. eigenvalues --    0.04103   0.04516   0.04714   0.05157   0.05571

 Mulliken charges:
               1
     1  Mg   0.833752
     2  C   -0.021246
     3  C   -0.080177
     4  C   -0.082752
     5  C   -0.070314
     6  N   -0.301379
     7  C   -0.047389
     8  C   -0.021565
     9  C   -0.058536
    10  C    0.064043
    11  C    0.100724
    12  C    0.032537
    13  C   -0.071100
    14  H    0.011653
    15  N   -0.386343
    16  C    0.147003
    17  C   -0.156157
    18  C   -0.010740
    19  C    0.125034
    20  C    0.113787
    21  C   -0.027303
    22  O   -0.211705
    23  C    0.063954
    24  N   -0.345416
    25  C    0.087668
    26  C   -0.030105
    27  C   -0.026310
    28  C    0.096075
    29  C    0.087958
    30  C    0.059785
    31  C   -0.013193
    32  N   -0.360276
    33  C    0.064893
    34  C   -0.139122
    35  C   -0.053511
    36  C    0.135972
    37  C    0.107476
    38  C    0.083481
    39  O   -0.200381
    40  C    0.008592
    41  C    0.216146
    42  O   -0.257505
    43  O   -0.336470
    44  C    0.163724
    45  H   -0.033265
    46  H   -0.005324
    47  H   -0.025199
    48  H    0.025911
    49  H    0.008692
    50  H    0.023458
    51  H    0.000317
    52  H    0.025591
    53  H    0.009511
    54  H    0.036923
    55  H    0.030458
    56  H    0.032644
    57  H    0.039122
    58  H    0.020302
    59  H    0.045794
    60  H    0.005846
    61  H    0.040871
    62  H    0.037691
    63  H    0.013741
    64  H   -0.013268
    65  H    0.012803
    66  H    0.026550
    67  H    0.015555
    68  H    0.009172
    69  H    0.003993
    70  H    0.005163
    71  H    0.012458
    72  H    0.021974
    73  H    0.039050
    74  H    0.005088
    75  H    0.032715
    76  H    0.049664
    77  H    0.048527
    78  H    0.042629
    79  H    0.059583
    80  Mg   0.803360
    81  C   -0.053476
    82  C   -0.077507
    83  C   -0.031450
    84  C   -0.113958
    85  N   -0.266366
    86  C   -0.028635
    87  C   -0.077969
    88  C   -0.056790
    89  C    0.065555
    90  C    0.083010
    91  C    0.065058
    92  C   -0.060498
    93  H    0.029306
    94  N   -0.375724
    95  C    0.137265
    96  C   -0.161229
    97  C   -0.019028
    98  C    0.178120
    99  C    0.123692
   100  C   -0.042819
   101  O   -0.204797
   102  C    0.067974
   103  N   -0.281937
   104  C   -0.040125
   105  C   -0.032413
   106  C   -0.000385
   107  C    0.029859
   108  C    0.073843
   109  C   -0.008435
   110  C   -0.012543
   111  N   -0.343797
   112  C    0.184269
   113  C   -0.180588
   114  C    0.103139
   115  C    0.131939
   116  C    0.117911
   117  C   -0.022308
   118  O   -0.171408
   119  C   -0.002518
   120  C    0.227963
   121  O   -0.227899
   122  O   -0.357549
   123  C    0.177921
   124  H   -0.024981
   125  H   -0.050638
   126  H   -0.029669
   127  H    0.015941
   128  H    0.020693
   129  H    0.026734
   130  H    0.012707
   131  H    0.014032
   132  H    0.013440
   133  H    0.002756
   134  H    0.032494
   135  H    0.023427
   136  H    0.036401
   137  H    0.042594
   138  H    0.002694
   139  H    0.037031
   140  H    0.025036
   141  H    0.043269
   142  H    0.026640
   143  H   -0.001391
   144  H    0.020740
   145  H    0.031690
   146  H    0.017544
   147  H    0.019614
   148  H    0.006291
   149  H    0.003032
   150  H    0.024510
   151  H    0.018967
   152  H    0.024456
   153  H    0.016523
   154  H    0.037663
   155  H    0.052392
   156  H    0.038498
   157  H    0.051677
   158  H    0.019162
 Sum of Mulliken charges =  -0.00000

 Dipole moment (field-independent basis, Debye):
    X=              1.1525    Y=              1.8963    Z=             -2.0787  Tot=              3.0406
 Quadrupole moment (field-independent basis, Debye-Ang):
   XX=           -439.7667   YY=           -524.6619   ZZ=           -483.5357
   XY=             99.7301   XZ=            -33.3293   YZ=            -26.4751

 Normal termination of Gaussian 16 at Wed Sep 15 02:57:12 2021.
