 Gaussian 16, Revision A.03,
 Gaussian 16:  ES64L-G16RevA.03 25-Dec-2016

 -----------------------------------
 #p cam-b3lyp/Def2SVP td=(nstates=5)
 -----------------------------------

 --------------------------------
 TDDFT excited states in gaussian
 --------------------------------
 Symbolic Z-matrix:
 Charge =  0 Multiplicity = 1

                         Standard orientation:
 ---------------------------------------------------------------------
 Center     Atomic      Atomic             Coordinates (Angstroms)
 Number     Number       Type             X           Y           Z
 ---------------------------------------------------------------------
      1         12           0       -9.268135    0.641802    0.068775
      2          6           0       -7.199439   -1.900448    1.124116
      3          6           0       -7.259935    2.863244    1.710913
      4          6           0      -10.465601    2.981096   -1.932848
      5          6           0      -11.196256   -1.774501   -1.595951
      6          7           0       -7.176431    0.468723    0.881103
      7          6           0       -6.666859   -0.669235    1.419062
      8          6           0       -5.470056   -0.415496    2.287218
      9          6           0       -5.795004    1.034209    2.772819
     10          6           0       -6.863315    1.472208    1.781878
     11          6           0       -6.210386    1.096697    4.270672
     12          6           0       -4.092152   -0.463766    1.454757
     13          6           0       -2.834738   -1.058612    2.243149
     14          1           0       -1.775727    0.014097    2.305028
     15          7           0       -9.044402    2.677261    0.058852
     16          6           0       -8.138417    3.435182    0.714828
     17          6           0       -8.271848    4.837299    0.340058
     18          6           0       -9.226135    4.887794   -0.696770
     19          6           0       -9.616992    3.464139   -0.897558
     20          6           0       -7.395978    5.930031    0.999651
     21          6           0       -9.499493    6.132288   -1.494516
     22          8           0       -8.948494    7.160058   -1.197311
     23          6           0      -10.417261    6.196640   -2.730297
     24          7           0      -10.758511    0.670041   -1.487744
     25          6           0      -11.034945    1.716358   -2.130099
     26          6           0      -11.938003    1.480778   -3.283916
     27          6           0      -12.209013   -0.072263   -3.191359
     28          6           0      -11.361093   -0.434045   -2.050355
     29          6           0      -13.188034    2.423465   -3.244155
     30          6           0      -11.793411   -0.835830   -4.532968
     31          6           0      -12.399612   -2.264623   -4.770435
     32          7           0       -9.309069   -1.409695   -0.152727
     33          6           0      -10.216814   -2.248662   -0.773244
     34          6           0       -9.922617   -3.622469   -0.473138
     35          6           0       -8.736820   -3.536744    0.337336
     36          6           0       -8.365299   -2.207706    0.402408
     37          6           0      -10.677897   -4.838016   -0.904818
     38          6           0       -7.806240   -4.314146    1.080525
     39          8           0       -7.654175   -5.522342    1.302313
     40          6           0       -6.665654   -3.312027    1.458472
     41          6           0       -6.324079   -3.574385    2.887345
     42          8           0       -5.416286   -4.325086    3.271493
     43          8           0       -7.198044   -2.908489    3.701641
     44          6           0       -6.871152   -3.221331    5.121196
     45          1           0       -6.773503    3.640485    2.304623
     46          1           0      -10.797838    3.764941   -2.615891
     47          1           0      -11.710269   -2.511783   -2.217384
     48          1           0       -5.580467   -1.131900    3.100288
     49          1           0       -4.890894    1.640080    2.710538
     50          1           0       -5.471042    1.674060    4.825008
     51          1           0       -6.152174    0.080093    4.660928
     52          1           0       -7.229458    1.480033    4.311506
     53          1           0       -3.791225    0.462701    0.965906
     54          1           0       -4.203870   -1.099891    0.577301
     55          1           0       -2.465076   -1.850114    1.591076
     56          1           0       -2.980087   -1.540274    3.210159
     57          1           0       -6.777170    6.502091    0.308430
     58          1           0       -6.761969    5.563854    1.807910
     59          1           0       -8.075992    6.603359    1.520421
     60          1           0      -11.460864    5.981408   -2.503139
     61          1           0      -10.087461    5.564059   -3.554801
     62          1           0      -10.240815    7.188299   -3.148039
     63          1           0      -11.302984    1.695003   -4.143440
     64          1           0      -13.201004   -0.408981   -2.891191
     65          1           0      -13.175399    3.001523   -4.167903
     66          1           0      -13.177870    3.076806   -2.371535
     67          1           0      -14.139392    1.908535   -3.376912
     68          1           0      -10.709667   -0.944653   -4.579916
     69          1           0      -12.093876   -0.172000   -5.342295
     70          1           0      -13.017345   -2.476381   -5.642739
     71          1           0      -13.068042   -2.535856   -3.954429
     72          1           0      -11.605106   -3.010398   -4.797052
     73          1           0      -11.641115   -4.670065   -1.386192
     74          1           0      -10.765063   -5.338168    0.058887
     75          1           0       -9.907198   -5.334491   -1.494567
     76          1           0       -5.774797   -3.389928    0.834335
     77          1           0       -7.124164   -4.260547    5.328802
     78          1           0       -7.527346   -2.711942    5.826945
     79          1           0       -5.823267   -2.966485    5.280969
     80         12           0        9.285644    0.170516   -0.150662
     81          6           0        6.594212   -1.910321    0.363071
     82          6           0        7.591660    2.641227    1.661683
     83          6           0       11.842334    2.308330   -0.686827
     84          6           0       10.700910   -2.130982   -2.204288
     85          7           0        7.170192    0.402373    0.670959
     86          6           0        6.356086   -0.700366    0.958116
     87          6           0        5.256265   -0.357187    1.982241
     88          6           0        5.583681    1.155518    2.263617
     89          6           0        6.882230    1.455477    1.546134
     90          6           0        4.461513    2.097602    1.846290
     91          6           0        5.140459   -1.194755    3.304787
     92          6           0        3.817874   -2.120704    3.481056
     93          1           0        3.024450   -1.722876    4.729539
     94          7           0        9.628334    2.182235    0.301541
     95          6           0        8.864116    2.979366    1.169008
     96          6           0        9.573259    4.212938    1.524534
     97          6           0       10.863579    4.210198    0.763277
     98          6           0       10.881842    2.837741    0.116385
     99          6           0        9.000458    5.256983    2.457503
    100          6           0       11.923238    5.202645    0.657133
    101          8           0       12.866732    5.013828   -0.124813
    102          6           0       11.905971    6.517910    1.416141
    103          7           0       10.911878    0.097440   -1.322032
    104          6           0       11.945257    1.052458   -1.305888
    105          6           0       13.251025    0.638432   -2.097468
    106          6           0       12.789563   -0.826101   -2.598191
    107          6           0       11.378744   -0.965048   -1.982777
    108          6           0       13.647518    1.631326   -3.298384
    109          6           0       13.784712   -1.940967   -2.125308
    110          6           0       14.072656   -3.069384   -3.065374
    111          7           0        8.683861   -1.644792   -0.879263
    112          6           0        9.413078   -2.518823   -1.690584
    113          6           0        8.763716   -3.781078   -1.790866
    114          6           0        7.651227   -3.612481   -0.885914
    115          6           0        7.643362   -2.281447   -0.449967
    116          6           0        9.144527   -5.016742   -2.492386
    117          6           0        6.462382   -4.247767   -0.410148
    118          8           0        5.969525   -5.375874   -0.519998
    119          6           0        5.646067   -3.085148    0.317124
    120          6           0        4.375080   -2.859838   -0.420946
    121          8           0        4.123482   -2.029105   -1.202411
    122          8           0        3.393454   -3.737531    0.033259
    123          6           0        2.031441   -3.277602   -0.141458
    124          1           0        7.096384    3.374248    2.301916
    125          1           0       12.756320    2.874125   -0.878740
    126          1           0       11.221930   -2.927275   -2.739856
    127          1           0        4.290183   -0.401701    1.480597
    128          1           0        5.671144    1.357783    3.331471
    129          1           0        4.815250    2.719873    1.024685
    130          1           0        4.315993    2.703328    2.739914
    131          1           0        3.504217    1.627035    1.623120
    132          1           0        5.186634   -0.499839    4.143647
    133          1           0        5.963467   -1.903555    3.397291
    134          1           0        4.252705   -3.103314    3.664937
    135          1           0        3.191190   -2.062296    2.591416
    136          1           0        8.211114    5.767646    1.904518
    137          1           0        9.795388    5.959531    2.702965
    138          1           0        8.491627    4.833555    3.323739
    139          1           0       12.620544    7.159554    0.900195
    140          1           0       12.146005    6.418715    2.475262
    141          1           0       11.014191    7.137429    1.323212
    142          1           0       14.070501    0.476847   -1.397898
    143          1           0       12.768855   -0.956467   -3.680409
    144          1           0       14.008303    1.031405   -4.134126
    145          1           0       14.499472    2.288849   -3.129680
    146          1           0       12.818271    2.259954   -3.623458
    147          1           0       13.531998   -2.378663   -1.159704
    148          1           0       14.795727   -1.561697   -1.977881
    149          1           0       13.630769   -3.942749   -2.585982
    150          1           0       15.090030   -3.440443   -3.189373
    151          1           0       13.596391   -2.878080   -4.027530
    152          1           0       10.231174   -5.040563   -2.578922
    153          1           0        8.712151   -4.898654   -3.485895
    154          1           0        8.630875   -5.855871   -2.022828
    155          1           0        5.408653   -3.379022    1.339253
    156          1           0        1.837353   -3.437826   -1.201458
    157          1           0        2.052284   -2.211283    0.082982
    158          1           0        1.330389   -3.863072    0.454085
 ---------------------------------------------------------------------

 SCF Done:  E(RCAM-B3LYP) =  -4069.78615148     A.U. after   19 cycles

 Excitation energies and oscillator strengths:

 Excited State   1:      Singlet-A      1.6694 eV  742.69 nm  f=0.2059  <S**2>=0.000
     309 -> 315        0.15060
     311 -> 313        0.66138
     312 -> 314       -0.19173
 This state for optimization and/or second-order correction.
 Total Energy, E(TD-HF/TD-DFT) =  -4069.72480222
 Copying the excited state density for this state as the 1-particle RhoCI density.

 Excited State   2:      Singlet-A      1.6897 eV  733.77 nm  f=0.5442  <S**2>=0.000
     310 -> 316        0.15842
     311 -> 313        0.19128
     312 -> 314        0.66068

 Excited State   3:      Singlet-A      2.1902 eV  566.08 nm  f=0.1423  <S**2>=0.000
     309 -> 313        0.64144
     311 -> 315       -0.25555

 Excited State   4:      Singlet-A      2.2125 eV  560.38 nm  f=0.0994  <S**2>=0.000
     310 -> 314        0.63688
     312 -> 316       -0.27840

 Excited State   5:      Singlet-A      2.7554 eV  449.96 nm  f=0.0000  <S**2>=0.000
     312 -> 313        0.70697

 The electronic state is 1-A.
 Alpha  occ. eigenvalues --  -46.89230 -46.87839 -19.25578 -19.21958 -19.19530
 Alpha  occ. eigenvalues --  -19.19415 -19.19056 -19.18784 -19.17897 -19.17829
 Alpha  occ. eigenvalues --  -14.42474 -14.42118 -14.41923 -14.41907 -14.40320
 Alpha  occ. eigenvalues --  -14.40185 -14.38594 -14.38490 -10.38675 -10.37935
 Alpha  occ. eigenvalues --  -10.35763 -10.35263 -10.34078 -10.34070 -10.32333
 Alpha  occ. eigenvalues --  -10.31738 -10.31734 -10.31711 -10.31189 -10.30990
 Alpha  occ. eigenvalues --  -10.30958 -10.30937 -10.30680 -10.30663 -10.30379
 Alpha  occ. eigenvalues --  -10.30353 -10.30256 -10.30202 -10.29991 -10.29379
 Alpha  occ. eigenvalues --  -10.29338 -10.29206 -10.29164 -10.28962 -10.28471
 Alpha  occ. eigenvalues --  -10.28396 -10.28380 -10.28220 -10.28178 -10.28149
 Alpha  occ. eigenvalues --  -10.28138 -10.28046 -10.27854 -10.27839 -10.27795
 Alpha  occ. eigenvalues --  -10.27743 -10.27663 -10.27618 -10.27588 -10.27560
 Alpha  occ. eigenvalues --  -10.27531 -10.27516 -10.27326 -10.27270 -10.27225
 Alpha  occ. eigenvalues --  -10.27175 -10.27022 -10.26986 -10.26672 -10.26656
 Alpha  occ. eigenvalues --  -10.26631 -10.26612 -10.26438 -10.26418 -10.26408
 Alpha  occ. eigenvalues --  -10.26403 -10.26279 -10.26247 -10.26202 -10.26117
 Alpha  occ. eigenvalues --  -10.25884 -10.25806 -10.25737 -10.25257 -10.24436
 Alpha  occ. eigenvalues --  -10.24393  -3.17804  -3.16601  -1.92691  -1.92273
 Alpha  occ. eigenvalues --   -1.92095  -1.91470  -1.91066  -1.90918  -1.16593
 Alpha  occ. eigenvalues --   -1.15966  -1.11965  -1.09491  -1.08102  -1.07984
 Alpha  occ. eigenvalues --   -1.07524  -1.07052  -1.06442  -1.04603  -1.04543
 Alpha  occ. eigenvalues --   -1.03951  -1.03349  -1.02838  -1.01973  -1.00537
 Alpha  occ. eigenvalues --   -0.92507  -0.92481  -0.89725  -0.89105  -0.88687
 Alpha  occ. eigenvalues --   -0.88534  -0.88406  -0.88315  -0.87317  -0.87255
 Alpha  occ. eigenvalues --   -0.87116  -0.86887  -0.86629  -0.86595  -0.84326
 Alpha  occ. eigenvalues --   -0.84127  -0.83802  -0.83378  -0.82310  -0.82291
 Alpha  occ. eigenvalues --   -0.81865  -0.81810  -0.80935  -0.80744  -0.80363
 Alpha  occ. eigenvalues --   -0.80102  -0.78699  -0.78421  -0.77853  -0.77316
 Alpha  occ. eigenvalues --   -0.76861  -0.76582  -0.75987  -0.75514  -0.75166
 Alpha  occ. eigenvalues --   -0.75076  -0.72977  -0.72698  -0.72237  -0.71596
 Alpha  occ. eigenvalues --   -0.70471  -0.69336  -0.69240  -0.68611  -0.68181
 Alpha  occ. eigenvalues --   -0.67827  -0.67817  -0.67453  -0.66820  -0.65592
 Alpha  occ. eigenvalues --   -0.65396  -0.65199  -0.64908  -0.64865  -0.64473
 Alpha  occ. eigenvalues --   -0.63776  -0.62434  -0.60694  -0.60523  -0.60110
 Alpha  occ. eigenvalues --   -0.59641  -0.59289  -0.59201  -0.58901  -0.58813
 Alpha  occ. eigenvalues --   -0.58362  -0.58172  -0.57982  -0.57585  -0.57004
 Alpha  occ. eigenvalues --   -0.56702  -0.56422  -0.56215  -0.55683  -0.55450
 Alpha  occ. eigenvalues --   -0.55177  -0.55053  -0.54152  -0.53823  -0.53620
 Alpha  occ. eigenvalues --   -0.53498  -0.53178  -0.52956  -0.52882  -0.52674
 Alpha  occ. eigenvalues --   -0.52529  -0.52413  -0.52214  -0.52057  -0.51987
 Alpha  occ. eigenvalues --   -0.51700  -0.51511  -0.51256  -0.51228  -0.51178
 Alpha  occ. eigenvalues --   -0.51086  -0.50669  -0.50632  -0.50459  -0.50422
 Alpha  occ. eigenvalues --   -0.50268  -0.50056  -0.49958  -0.49913  -0.49711
 Alpha  occ. eigenvalues --   -0.49644  -0.49535  -0.49147  -0.48940  -0.48890
 Alpha  occ. eigenvalues --   -0.48631  -0.48493  -0.48394  -0.48335  -0.47987
 Alpha  occ. eigenvalues --   -0.47915  -0.47803  -0.47698  -0.47426  -0.47202
 Alpha  occ. eigenvalues --   -0.46938  -0.46866  -0.46819  -0.46731  -0.46383
 Alpha  occ. eigenvalues --   -0.46329  -0.46234  -0.46050  -0.45903  -0.45839
 Alpha  occ. eigenvalues --   -0.45827  -0.45404  -0.45317  -0.45166  -0.45127
 Alpha  occ. eigenvalues --   -0.44832  -0.44716  -0.44545  -0.44433  -0.44294
 Alpha  occ. eigenvalues --   -0.44235  -0.44053  -0.44013  -0.43576  -0.43436
 Alpha  occ. eigenvalues --   -0.43396  -0.43225  -0.43172  -0.42982  -0.42925
 Alpha  occ. eigenvalues --   -0.42806  -0.42618  -0.42430  -0.42202  -0.41948
 Alpha  occ. eigenvalues --   -0.41924  -0.41890  -0.41558  -0.41474  -0.41332
 Alpha  occ. eigenvalues --   -0.41182  -0.41098  -0.40903  -0.40751  -0.40441
 Alpha  occ. eigenvalues --   -0.40113  -0.40059  -0.39781  -0.39609  -0.38966
 Alpha  occ. eigenvalues --   -0.38704  -0.38587  -0.38297  -0.37769  -0.37674
 Alpha  occ. eigenvalues --   -0.37595  -0.36983  -0.36830  -0.36730  -0.36566
 Alpha  occ. eigenvalues --   -0.36035  -0.34984  -0.34710  -0.34360  -0.33922
 Alpha  occ. eigenvalues --   -0.33605  -0.33393  -0.33086  -0.31915  -0.31476
 Alpha  occ. eigenvalues --   -0.31388  -0.31343  -0.30607  -0.30050  -0.29929
 Alpha  occ. eigenvalues --   -0.29672  -0.29171  -0.28956  -0.24287  -0.24192
 Alpha  occ. eigenvalues --   -0.21374  -0.21167
 Alpha virt. eigenvalues --   -0.09198  -0.08806  -0.02091  -0.01806  -0.00146
 Alpha virt. eigenvalues --    0.00199   0.01653   0.02032   0.02353   0.02515
 Alpha virt. eigenvalues --    0.04599   0.05256   0.05465   0.05738   0.05986

 Mulliken charges:
               1
     1  Mg   0.828138
     2  C    0.029993
     3  C   -0.080717
     4  C   -0.069769
     5  C   -0.084963
     6  N   -0.279546
     7  C   -0.085820
     8  C    0.013147
     9  C   -0.095701
    10  C    0.097114
    11  C    0.091328
    12  C    0.062597
    13  C   -0.074532
    14  H    0.010842
    15  N   -0.375424
    16  C    0.100394
    17  C   -0.122071
    18  C   -0.020035
    19  C    0.147607
    20  C    0.133106
    21  C   -0.028631
    22  O   -0.181451
    23  C    0.044338
    24  N   -0.219528
    25  C   -0.004044
    26  C   -0.028887
    27  C    0.001767
    28  C   -0.020642
    29  C    0.065772
    30  C    0.026666
    31  C   -0.008656
    32  N   -0.362127
    33  C    0.142968
    34  C   -0.189630
    35  C    0.039625
    36  C    0.070908
    37  C    0.143865
    38  C    0.011367
    39  O   -0.189236
    40  C    0.005406
    41  C    0.178960
    42  O   -0.228014
    43  O   -0.342862
    44  C    0.180447
    45  H   -0.022973
    46  H   -0.066989
    47  H   -0.046717
    48  H    0.007663
    49  H    0.014741
    50  H    0.018401
    51  H    0.006665
    52  H    0.019921
    53  H    0.017633
    54  H    0.008831
    55  H    0.034075
    56  H    0.041529
    57  H    0.045932
    58  H   -0.004112
    59  H    0.028681
    60  H    0.045392
    61  H    0.039689
    62  H    0.024629
    63  H    0.020224
    64  H    0.015969
    65  H    0.008970
    66  H    0.036816
    67  H    0.015558
    68  H    0.016592
    69  H    0.011689
    70  H    0.016154
    71  H    0.014938
    72  H    0.022660
    73  H    0.021605
    74  H    0.042301
    75  H    0.042291
    76  H    0.048114
    77  H    0.046701
    78  H    0.028238
    79  H    0.044141
    80  Mg   0.825803
    81  C    0.028364
    82  C   -0.094202
    83  C   -0.058449
    84  C   -0.101797
    85  N   -0.299844
    86  C   -0.077922
    87  C    0.037646
    88  C   -0.089499
    89  C    0.070568
    90  C    0.065734
    91  C    0.032285
    92  C   -0.092543
    93  H    0.019732
    94  N   -0.403821
    95  C    0.188194
    96  C   -0.166314
    97  C    0.011812
    98  C    0.173142
    99  C    0.129807
   100  C   -0.021041
   101  O   -0.222559
   102  C    0.028046
   103  N   -0.333164
   104  C    0.018199
   105  C    0.006534
   106  C   -0.041531
   107  C    0.114651
   108  C    0.047096
   109  C    0.002821
   110  C   -0.000927
   111  N   -0.325012
   112  C    0.108977
   113  C   -0.169602
   114  C    0.001397
   115  C    0.101920
   116  C    0.151107
   117  C    0.020559
   118  O   -0.180724
   119  C   -0.047634
   120  C    0.190008
   121  O   -0.157050
   122  O   -0.358874
   123  C    0.188523
   124  H   -0.036948
   125  H   -0.001894
   126  H   -0.045828
   127  H    0.009607
   128  H    0.006720
   129  H    0.028393
   130  H    0.005154
   131  H    0.024058
   132  H    0.019019
   133  H    0.016335
   134  H    0.052873
   135  H    0.039990
   136  H    0.034037
   137  H    0.012710
   138  H    0.031278
   139  H    0.024456
   140  H    0.050586
   141  H    0.032164
   142  H    0.024915
   143  H    0.015778
   144  H    0.012141
   145  H    0.023965
   146  H    0.035780
   147  H    0.008847
   148  H    0.005316
   149  H    0.005735
   150  H    0.014866
   151  H    0.015257
   152  H    0.020467
   153  H    0.030248
   154  H    0.043268
   155  H    0.024389
   156  H    0.031060
   157  H    0.021006
   158  H    0.043814
 Sum of Mulliken charges =  -0.00000

 Dipole moment (field-independent basis, Debye):
    X=             -2.3346    Y=              7.3694    Z=              1.6852  Tot=              7.9119
 Quadrupole moment (field-independent basis, Debye-Ang):
   XX=           -385.5686   YY=           -583.6820   ZZ=           -473.4936
   XY=            -14.6964   XZ=             41.2863   YZ=             25.6989

 Normal termination of Gaussian 16 at Thu Sep 16 04:43:11 2021.
