 Gaussian 16, Revision A.03,
 Gaussian 16:  ES64L-G16RevA.03 25-Dec-2016

 ----------------------------------------------------------
 #p cam-b3lyp/Def2SVP td=(nstates=5) density=(transition=1)
 ----------------------------------------------------------

 --------------------------------
 TDDFT excited states in gaussian
 --------------------------------
 Symbolic Z-matrix:
 Charge =  0 Multiplicity = 1

                         Standard orientation:
 ---------------------------------------------------------------------
 Center     Atomic      Atomic             Coordinates (Angstroms)
 Number     Number       Type             X           Y           Z
 ---------------------------------------------------------------------
      1         12           0       22.086200   -0.577980    0.439702
      2          6           0       21.585825    2.130139   -1.683770
      3          6           0       22.256785    1.590062    3.087977
      4          6           0       22.890715   -3.234816    2.416620
      5          6           0       22.125148   -2.600554   -2.482798
      6          7           0       21.974100    1.599695    0.671040
      7          6           0       21.641690    2.468231   -0.334907
      8          6           0       21.505925    3.848810    0.312054
      9          6           0       22.013460    3.689734    1.734157
     10          6           0       22.050236    2.170127    1.849982
     11          6           0       23.297388    4.355445    2.151098
     12          6           0       20.058612    4.526876    0.194757
     13          6           0       19.844856    5.827539    1.033944
     14          1           0       20.149006    7.196467    0.370927
     15          7           0       22.363708   -0.785095    2.485898
     16          6           0       22.428474    0.215111    3.399648
     17          6           0       22.732950   -0.401414    4.664661
     18          6           0       22.920876   -1.799653    4.457729
     19          6           0       22.755606   -2.003415    3.088964
     20          6           0       22.822987    0.426680    5.909222
     21          6           0       23.388992   -2.834590    5.521888
     22          8           0       23.853823   -3.914990    5.205286
     23          6           0       23.425610   -2.560188    6.949206
     24          7           0       22.425323   -2.500702    0.028037
     25          6           0       22.701878   -3.460432    1.001262
     26          6           0       22.836177   -4.875425    0.412219
     27          6           0       22.314322   -4.659181   -1.048984
     28          6           0       22.241130   -3.144906   -1.156123
     29          6           0       24.111293   -5.572614    0.650779
     30          6           0       20.955718   -5.414998   -1.531749
     31          6           0       20.980369   -6.378621   -2.721990
     32          7           0       21.947077   -0.311937   -1.735592
     33          6           0       21.999899   -1.231599   -2.745179
     34          6           0       21.839745   -0.610952   -4.016918
     35          6           0       21.588045    0.765691   -3.648185
     36          6           0       21.757506    0.890212   -2.240725
     37          6           0       21.830544   -1.339125   -5.306780
     38          6           0       21.197471    2.051523   -4.178937
     39          8           0       20.879919    2.449821   -5.282400
     40          6           0       21.195050    3.019385   -2.854913
     41          6           0       21.990772    4.252941   -3.080674
     42          8           0       23.192896    4.259937   -3.230943
     43          8           0       21.231183    5.362374   -3.085614
     44          6           0       21.950078    6.693546   -3.049166
     45          1           0       22.258781    2.270192    3.942625
     46          1           0       23.155822   -4.067418    3.071296
     47          1           0       22.142946   -3.385202   -3.242292
     48          1           0       22.207413    4.411331   -0.303895
     49          1           0       21.287855    4.118567    2.424865
     50          1           0       23.938496    3.475835    2.200330
     51          1           0       23.198223    4.914290    3.081780
     52          1           0       23.723208    4.971139    1.358531
     53          1           0       19.415252    3.729462    0.567272
     54          1           0       19.838606    4.749475   -0.848679
     55          1           0       20.469815    5.838016    1.926046
     56          1           0       18.809786    5.836463    1.375463
     57          1           0       22.569390    1.485289    5.845130
     58          1           0       23.876307    0.419599    6.187562
     59          1           0       22.295472   -0.014133    6.755333
     60          1           0       23.879150   -1.640308    7.316856
     61          1           0       23.824999   -3.361558    7.570675
     62          1           0       22.366463   -2.572854    7.205547
     63          1           0       22.046441   -5.346391    0.998184
     64          1           0       23.213573   -4.949737   -1.591911
     65          1           0       24.074496   -6.478134    1.257005
     66          1           0       24.781566   -4.866988    1.142320
     67          1           0       24.601877   -5.925696   -0.256195
     68          1           0       20.227241   -4.643659   -1.780937
     69          1           0       20.423492   -6.013123   -0.791125
     70          1           0       20.564535   -5.977294   -3.646544
     71          1           0       20.610556   -7.380912   -2.507637
     72          1           0       22.024080   -6.512882   -3.006474
     73          1           0       22.659089   -2.046974   -5.308951
     74          1           0       21.851815   -0.670972   -6.167303
     75          1           0       20.990290   -2.033615   -5.278625
     76          1           0       20.159858    3.336852   -2.733896
     77          1           0       21.184664    7.372477   -3.424381
     78          1           0       22.823155    6.635546   -3.698833
     79          1           0       22.162244    6.903876   -2.000804
     80         12           0      -21.606950   -0.703762   -0.097819
     81          6           0      -23.264450    1.914055    1.486142
     82          6           0      -19.843474    1.502213   -1.935005
     83          6           0      -20.392628   -3.304486   -1.883075
     84          6           0      -23.784915   -2.877873    1.457655
     85          7           0      -21.599412    1.510104   -0.198294
     86          6           0      -22.208783    2.358451    0.690824
     87          6           0      -21.792034    3.757380    0.437790
     88          6           0      -20.743666    3.703926   -0.679544
     89          6           0      -20.664895    2.147596   -0.991911
     90          6           0      -20.933486    4.577080   -1.910186
     91          6           0      -21.271713    4.481822    1.805471
     92          6           0      -22.054095    5.718590    2.306013
     93          1           0      -21.330804    6.910037    2.884119
     94          7           0      -20.215852   -0.891006   -1.599826
     95          6           0      -19.589562    0.155288   -2.260334
     96          6           0      -18.754202   -0.360432   -3.283098
     97          6           0      -18.896690   -1.774470   -3.297039
     98          6           0      -19.851008   -2.047071   -2.217412
     99          6           0      -17.810234    0.642001   -4.055429
    100          6           0      -18.235810   -2.717643   -4.300798
    101          8           0      -18.419763   -3.942642   -4.363673
    102          6           0      -17.236150   -2.194692   -5.236066
    103          7           0      -22.160561   -2.789785   -0.416853
    104          6           0      -21.454968   -3.669866   -1.096590
    105          6           0      -22.117609   -5.065192   -1.050788
    106          6           0      -22.815808   -4.917144    0.358263
    107          6           0      -22.917947   -3.402888    0.511386
    108          6           0      -23.164295   -5.494436   -2.144619
    109          6           0      -22.077077   -5.592354    1.611179
    110          6           0      -20.710488   -5.146401    1.936188
    111          7           0      -23.299662   -0.601502    1.221189
    112          6           0      -24.100731   -1.606516    1.797929
    113          6           0      -25.083943   -1.002639    2.639594
    114          6           0      -24.860259    0.353969    2.513850
    115          6           0      -23.684690    0.541266    1.715374
    116          6           0      -26.232738   -1.660331    3.231541
    117          6           0      -25.196522    1.586795    3.052818
    118          8           0      -26.066827    1.919711    3.863850
    119          6           0      -24.269728    2.689524    2.364337
    120          6           0      -25.180673    3.477886    1.482452
    121          8           0      -25.885423    3.152075    0.550297
    122          8           0      -25.115836    4.726204    1.948892
    123          6           0      -25.928323    5.747322    1.209923
    124          1           0      -19.184713    2.294663   -2.296198
    125          1           0      -19.860809   -4.121165   -2.374252
    126          1           0      -24.423431   -3.583374    1.993006
    127          1           0      -22.696306    4.257060    0.092576
    128          1           0      -19.770709    3.962297   -0.262157
    129          1           0      -21.423769    3.817599   -2.518070
    130          1           0      -20.025730    5.016730   -2.323833
    131          1           0      -21.602780    5.435833   -1.866013
    132          1           0      -20.221163    4.743512    1.682632
    133          1           0      -21.352390    3.852049    2.691819
    134          1           0      -22.653697    5.371275    3.147909
    135          1           0      -22.790019    6.059162    1.578854
    136          1           0      -17.965857    0.505245   -5.125392
    137          1           0      -16.867621    0.175020   -3.769669
    138          1           0      -17.961085    1.711937   -3.911616
    139          1           0      -17.651212   -1.392527   -5.844701
    140          1           0      -17.121415   -2.964595   -5.998710
    141          1           0      -16.266272   -1.958491   -4.797537
    142          1           0      -21.339940   -5.803787   -0.855832
    143          1           0      -23.767746   -5.430334    0.224164
    144          1           0      -23.862170   -4.720399   -2.461632
    145          1           0      -23.666272   -6.335540   -1.665078
    146          1           0      -22.659199   -5.835429   -3.048722
    147          1           0      -21.967570   -6.672935    1.516021
    148          1           0      -22.536837   -5.286271    2.550833
    149          1           0      -20.879220   -4.227487    2.495889
    150          1           0      -20.024123   -4.895669    1.126828
    151          1           0      -20.101030   -5.771408    2.588069
    152          1           0      -26.960344   -1.681127    2.419334
    153          1           0      -26.673106   -1.153529    4.089735
    154          1           0      -26.002695   -2.639585    3.652780
    155          1           0      -23.701303    3.284840    3.078975
    156          1           0      -25.190771    6.321731    0.648965
    157          1           0      -26.498622    6.346189    1.919645
    158          1           0      -26.634247    5.382214    0.463424
 ---------------------------------------------------------------------

 SCF Done:  E(RCAM-B3LYP) =  -4069.79035999     A.U. after   19 cycles

 Excitation energies and oscillator strengths:

 Excited State   1:      Singlet-A      1.6981 eV  730.14 nm  f=0.3711  <S**2>=0.000
     309 -> 315       -0.17887
     312 -> 314        0.68449
     309 <- 315       -0.10815
 This state for optimization and/or second-order correction.
 Total Energy, E(TD-HF/TD-DFT) =  -4069.72795656
 Copying the excited state density for this state as the 1-particle RhoCI density.

 Excited State   2:      Singlet-A      1.7047 eV  727.31 nm  f=0.4010  <S**2>=0.000
     310 -> 316        0.17488
     311 -> 313        0.68474
     310 <- 316        0.10595

 Excited State   3:      Singlet-A      2.1770 eV  569.53 nm  f=0.1381  <S**2>=0.000
     310 -> 313        0.65149
     311 -> 316       -0.26308

 Excited State   4:      Singlet-A      2.2225 eV  557.87 nm  f=0.0947  <S**2>=0.000
     309 -> 314        0.63226
     312 -> 315        0.30142

 Excited State   5:      Singlet-A      3.0911 eV  401.10 nm  f=0.0000  <S**2>=0.000
     312 -> 313        0.70710

 The electronic state is 1-A.
 Alpha  occ. eigenvalues --  -46.89373 -46.87898 -19.25075 -19.24440 -19.19104
 Alpha  occ. eigenvalues --  -19.19099 -19.18699 -19.18681 -19.18278 -19.18242
 Alpha  occ. eigenvalues --  -14.42734 -14.42063 -14.42032 -14.41860 -14.39734
 Alpha  occ. eigenvalues --  -14.39069 -14.39019 -14.38459 -10.38643 -10.37986
 Alpha  occ. eigenvalues --  -10.35604 -10.35105 -10.34668 -10.34187 -10.32128
 Alpha  occ. eigenvalues --  -10.31730 -10.31618 -10.31456 -10.31238 -10.31147
 Alpha  occ. eigenvalues --  -10.31134 -10.30657 -10.30463 -10.30315 -10.30136
 Alpha  occ. eigenvalues --  -10.29826 -10.29822 -10.29718 -10.29632 -10.29137
 Alpha  occ. eigenvalues --  -10.29018 -10.29014 -10.28703 -10.28583 -10.28572
 Alpha  occ. eigenvalues --  -10.28316 -10.28315 -10.28187 -10.28158 -10.28130
 Alpha  occ. eigenvalues --  -10.28093 -10.27916 -10.27897 -10.27830 -10.27555
 Alpha  occ. eigenvalues --  -10.27554 -10.27552 -10.27546 -10.27538 -10.27512
 Alpha  occ. eigenvalues --  -10.27505 -10.27282 -10.27234 -10.27189 -10.27160
 Alpha  occ. eigenvalues --  -10.27077 -10.27053 -10.26972 -10.26963 -10.26884
 Alpha  occ. eigenvalues --  -10.26878 -10.26531 -10.26494 -10.26411 -10.26295
 Alpha  occ. eigenvalues --  -10.26272 -10.26174 -10.26068 -10.25837 -10.25769
 Alpha  occ. eigenvalues --  -10.25613 -10.25610 -10.25509 -10.25261 -10.24765
 Alpha  occ. eigenvalues --  -10.24689  -3.17782  -3.16558  -1.92684  -1.92216
 Alpha  occ. eigenvalues --   -1.92099  -1.91473  -1.91014  -1.90860  -1.17037
 Alpha  occ. eigenvalues --   -1.15867  -1.11002  -1.09511  -1.09156  -1.08593
 Alpha  occ. eigenvalues --   -1.07389  -1.06753  -1.05455  -1.05261  -1.04290
 Alpha  occ. eigenvalues --   -1.04130  -1.03417  -1.03336  -1.02662  -1.02373
 Alpha  occ. eigenvalues --   -0.92454  -0.92245  -0.89253  -0.89236  -0.88781
 Alpha  occ. eigenvalues --   -0.88729  -0.88403  -0.88353  -0.87997  -0.87632
 Alpha  occ. eigenvalues --   -0.87592  -0.86994  -0.86896  -0.86723  -0.84670
 Alpha  occ. eigenvalues --   -0.84662  -0.84321  -0.83726  -0.83105  -0.82661
 Alpha  occ. eigenvalues --   -0.82493  -0.82040  -0.81595  -0.81432  -0.80773
 Alpha  occ. eigenvalues --   -0.80763  -0.78814  -0.78785  -0.77815  -0.77697
 Alpha  occ. eigenvalues --   -0.77414  -0.77304  -0.75981  -0.75914  -0.75399
 Alpha  occ. eigenvalues --   -0.75169  -0.73513  -0.72800  -0.71837  -0.71711
 Alpha  occ. eigenvalues --   -0.69421  -0.69410  -0.69125  -0.68966  -0.68248
 Alpha  occ. eigenvalues --   -0.67808  -0.67244  -0.66938  -0.65791  -0.65568
 Alpha  occ. eigenvalues --   -0.65445  -0.65423  -0.64850  -0.64700  -0.64225
 Alpha  occ. eigenvalues --   -0.64003  -0.62092  -0.61445  -0.60550  -0.60470
 Alpha  occ. eigenvalues --   -0.59957  -0.59775  -0.59342  -0.58975  -0.58850
 Alpha  occ. eigenvalues --   -0.58650  -0.58293  -0.57979  -0.57957  -0.57321
 Alpha  occ. eigenvalues --   -0.56471  -0.56383  -0.55810  -0.55774  -0.55514
 Alpha  occ. eigenvalues --   -0.55431  -0.55088  -0.54864  -0.54804  -0.54737
 Alpha  occ. eigenvalues --   -0.54595  -0.53826  -0.53423  -0.53286  -0.53178
 Alpha  occ. eigenvalues --   -0.53023  -0.52987  -0.52725  -0.52613  -0.52365
 Alpha  occ. eigenvalues --   -0.52221  -0.52097  -0.51937  -0.51335  -0.51200
 Alpha  occ. eigenvalues --   -0.51123  -0.51012  -0.50863  -0.50513  -0.50401
 Alpha  occ. eigenvalues --   -0.50322  -0.49951  -0.49833  -0.49760  -0.49487
 Alpha  occ. eigenvalues --   -0.49458  -0.49367  -0.49232  -0.49159  -0.49024
 Alpha  occ. eigenvalues --   -0.49012  -0.48645  -0.48537  -0.48386  -0.48249
 Alpha  occ. eigenvalues --   -0.48106  -0.47740  -0.47469  -0.47403  -0.47146
 Alpha  occ. eigenvalues --   -0.47124  -0.46870  -0.46857  -0.46702  -0.46611
 Alpha  occ. eigenvalues --   -0.46559  -0.46272  -0.46272  -0.46085  -0.46026
 Alpha  occ. eigenvalues --   -0.45847  -0.45283  -0.45172  -0.45133  -0.44820
 Alpha  occ. eigenvalues --   -0.44668  -0.44507  -0.44427  -0.44260  -0.44145
 Alpha  occ. eigenvalues --   -0.44090  -0.44031  -0.43756  -0.43703  -0.43396
 Alpha  occ. eigenvalues --   -0.43390  -0.43225  -0.42977  -0.42830  -0.42724
 Alpha  occ. eigenvalues --   -0.42538  -0.42252  -0.42144  -0.41977  -0.41862
 Alpha  occ. eigenvalues --   -0.41845  -0.41638  -0.41530  -0.41304  -0.41103
 Alpha  occ. eigenvalues --   -0.41002  -0.40984  -0.40747  -0.40400  -0.40218
 Alpha  occ. eigenvalues --   -0.40196  -0.39557  -0.39526  -0.39296  -0.38972
 Alpha  occ. eigenvalues --   -0.38808  -0.38097  -0.38059  -0.37795  -0.37726
 Alpha  occ. eigenvalues --   -0.37281  -0.37049  -0.36905  -0.36402  -0.36309
 Alpha  occ. eigenvalues --   -0.36155  -0.36074  -0.34509  -0.34336  -0.34088
 Alpha  occ. eigenvalues --   -0.34004  -0.33512  -0.33004  -0.31512  -0.31327
 Alpha  occ. eigenvalues --   -0.31070  -0.30988  -0.30563  -0.30489  -0.30229
 Alpha  occ. eigenvalues --   -0.30018  -0.29739  -0.29068  -0.24225  -0.24049
 Alpha  occ. eigenvalues --   -0.21473  -0.21147
 Alpha virt. eigenvalues --   -0.09012  -0.08816  -0.01894  -0.01650   0.00249
 Alpha virt. eigenvalues --    0.00596   0.01980   0.02430   0.02711   0.03356
 Alpha virt. eigenvalues --    0.04678   0.05223   0.05309   0.06068   0.06241

 Mulliken charges:
               1
     1  Mg  12.003231
     2  C    6.023336
     3  C    5.978942
     4  C    5.976672
     5  C    6.016855
     6  N    7.005778
     7  C    5.962318
     8  C    6.007517
     9  C    5.992654
    10  C    6.029519
    11  C    5.998906
    12  C    6.005343
    13  C    5.998606
    14  H    1.000951
    15  N    6.991543
    16  C    6.042133
    17  C    6.028320
    18  C    6.008897
    19  C    6.040708
    20  C    5.993221
    21  C    6.012614
    22  O    8.021786
    23  C    5.991905
    24  N    6.995681
    25  C    6.045765
    26  C    5.989686
    27  C    6.015422
    28  C    5.961705
    29  C    5.997477
    30  C    6.003036
    31  C    6.000345
    32  N    7.006148
    33  C    5.961445
    34  C    5.968357
    35  C    5.996399
    36  C    5.964003
    37  C    6.002870
    38  C    5.984363
    39  O    7.968785
    40  C    5.996407
    41  C    5.996406
    42  O    7.995294
    43  O    7.998932
    44  C    6.001460
    45  H    1.008395
    46  H    1.009023
    47  H    0.988323
    48  H    1.000375
    49  H    0.999642
    50  H    0.995067
    51  H    1.000495
    52  H    1.013177
    53  H    0.993228
    54  H    1.005585
    55  H    0.992628
    56  H    0.997513
    57  H    1.022366
    58  H    1.023413
    59  H    1.021834
    60  H    1.005122
    61  H    1.014794
    62  H    1.007777
    63  H    0.999404
    64  H    0.997384
    65  H    1.002252
    66  H    0.996588
    67  H    1.013479
    68  H    1.003329
    69  H    0.987503
    70  H    1.004568
    71  H    0.994071
    72  H    0.997922
    73  H    0.980036
    74  H    0.984861
    75  H    0.977613
    76  H    0.992769
    77  H    0.996331
    78  H    0.998177
    79  H    0.993218
    80  Mg  12.000212
    81  C    6.002129
    82  C    5.999572
    83  C    5.997910
    84  C    5.999480
    85  N    7.001230
    86  C    5.997586
    87  C    6.000770
    88  C    5.999634
    89  C    6.001578
    90  C    5.999869
    91  C    6.000157
    92  C    6.000029
    93  H    0.999739
    94  N    6.999357
    95  C    6.002566
    96  C    6.001101
    97  C    6.000916
    98  C    6.002556
    99  C    5.999983
   100  C    6.000780
   101  O    8.001798
   102  C    5.999428
   103  N    6.998627
   104  C    6.002586
   105  C    5.999335
   106  C    6.000604
   107  C    5.998649
   108  C    6.000046
   109  C    6.000645
   110  C    5.999942
   111  N    7.000460
   112  C    5.997809
   113  C    5.998255
   114  C    5.999520
   115  C    5.997924
   116  C    6.000246
   117  C    5.999381
   118  O    7.997790
   119  C    5.999856
   120  C    5.999745
   121  O    7.999854
   122  O    7.999928
   123  C    6.000150
   124  H    1.000937
   125  H    1.000031
   126  H    0.999001
   127  H    1.000025
   128  H    1.000214
   129  H    0.999946
   130  H    1.000135
   131  H    1.000872
   132  H    0.999523
   133  H    1.000285
   134  H    1.000338
   135  H    0.999991
   136  H    1.001191
   137  H    1.001011
   138  H    1.001024
   139  H    1.000346
   140  H    1.000946
   141  H    1.000594
   142  H    0.999905
   143  H    0.999637
   144  H    1.000276
   145  H    1.000449
   146  H    0.999631
   147  H    0.999289
   148  H    1.000180
   149  H    1.000439
   150  H    0.998948
   151  H    0.999673
   152  H    0.998701
   153  H    0.998921
   154  H    0.998921
   155  H    0.999546
   156  H    0.999585
   157  H    0.999876
   158  H    0.999876
 Sum of Mulliken charges = 624.00000

 Dipole moment (field-independent basis, Debye):
    X=              2.3317    Y=             -1.6411    Z=             10.3507  Tot=             10.7362
 Quadrupole moment (field-independent basis, Debye-Ang):
   XX=             61.2214   YY=             -1.7926   ZZ=              8.7543
   XY=            -40.1238   XZ=            251.9343   YZ=             -5.6547

 Normal termination of Gaussian 16 at Wed Sep 22 23:46:40 2021.
