 Gaussian 16, Revision A.03,
 Gaussian 16:  ES64L-G16RevA.03 25-Dec-2016

 ----------------------------------------------------------
 #p cam-b3lyp/Def2SVP td=(nstates=5) density=(transition=1)
 ----------------------------------------------------------

 --------------------------------
 TDDFT excited states in gaussian
 --------------------------------
 Symbolic Z-matrix:
 Charge =  0 Multiplicity = 1

                         Standard orientation:
 ---------------------------------------------------------------------
 Center     Atomic      Atomic             Coordinates (Angstroms)
 Number     Number       Type             X           Y           Z
 ---------------------------------------------------------------------
      1         12           0      -13.389415   -0.793594   -0.002811
      2          6           0      -11.731294    2.025243    1.653145
      3          6           0      -14.653134    1.557505   -2.272454
      4          6           0      -15.177279   -3.180358   -1.319808
      5          6           0      -11.893958   -2.933798    2.220939
      6          7           0      -13.383108    1.513172   -0.152468
      7          6           0      -12.537788    2.472023    0.548203
      8          6           0      -12.716290    3.927970    0.066983
      9          6           0      -13.853697    3.686436   -1.085608
     10          6           0      -14.018697    2.158608   -1.204269
     11          6           0      -15.160904    4.405749   -0.815221
     12          6           0      -11.350830    4.528010   -0.385781
     13          6           0      -11.436288    5.817419   -1.145786
     14          1           0      -10.480191    6.944144   -0.823235
     15          7           0      -14.775498   -0.837730   -1.586513
     16          6           0      -15.163924    0.223550   -2.411980
     17          6           0      -16.096928   -0.259471   -3.428287
     18          6           0      -16.269715   -1.681443   -3.173189
     19          6           0      -15.396206   -1.995865   -1.982716
     20          6           0      -16.683653    0.610270   -4.599950
     21          6           0      -17.130819   -2.700782   -3.827739
     22          8           0      -17.160594   -3.888157   -3.532778
     23          6           0      -17.946909   -2.335049   -4.997614
     24          7           0      -13.450062   -2.731761    0.317893
     25          6           0      -14.356050   -3.523533   -0.258808
     26          6           0      -14.256915   -4.991438    0.218420
     27          6           0      -12.949309   -4.959742    0.982098
     28          6           0      -12.757541   -3.419497    1.265817
     29          6           0      -15.439205   -5.426854    1.076402
     30          6           0      -11.673192   -5.554929    0.445719
     31          6           0      -11.160977   -4.895560   -0.816973
     32          7           0      -12.166730   -0.550872    1.665686
     33          6           0      -11.552030   -1.566889    2.419548
     34          6           0      -10.718331   -0.959845    3.427665
     35          6           0      -10.745502    0.411139    3.064040
     36          6           0      -11.643997    0.627300    2.001861
     37          6           0       -9.856802   -1.628423    4.458838
     38          6           0      -10.108990    1.711815    3.438482
     39          8           0       -9.184337    1.970217    4.238347
     40          6           0      -10.768075    2.764537    2.550051
     41          6           0      -11.387963    3.865006    3.413777
     42          8           0      -12.336888    3.810868    4.250729
     43          8           0      -10.820540    5.041420    3.022061
     44          6           0      -11.345254    6.258767    3.681302
     45          1           0      -14.876008    2.250317   -3.085377
     46          1           0      -15.813171   -3.981085   -1.703001
     47          1           0      -11.405012   -3.551343    2.977415
     48          1           0      -13.012711    4.484521    0.956027
     49          1           0      -13.434348    3.957527   -2.054524
     50          1           0      -15.366420    5.074739   -1.651364
     51          1           0      -15.003632    4.996214    0.086698
     52          1           0      -15.998646    3.810413   -0.452732
     53          1           0      -10.829062    3.713886   -0.890028
     54          1           0      -10.744623    4.713056    0.501080
     55          1           0      -12.374344    6.368376   -1.082018
     56          1           0      -11.199603    5.630637   -2.192861
     57          1           0      -16.305627    0.139195   -5.507762
     58          1           0      -16.349964    1.647633   -4.579990
     59          1           0      -17.768074    0.538606   -4.515346
     60          1           0      -18.466506   -1.382415   -4.892572
     61          1           0      -18.674715   -3.143178   -5.061572
     62          1           0      -17.209933   -2.157503   -5.780250
     63          1           0      -14.234375   -5.614852   -0.675491
     64          1           0      -13.018427   -5.485890    1.934612
     65          1           0      -15.712094   -6.443598    0.796168
     66          1           0      -16.301968   -4.780920    0.917111
     67          1           0      -15.131651   -5.528125    2.117820
     68          1           0      -11.823264   -6.630144    0.344490
     69          1           0      -10.840390   -5.367518    1.123321
     70          1           0      -10.863393   -5.626633   -1.567794
     71          1           0      -10.257572   -4.308745   -0.649309
     72          1           0      -11.885084   -4.247976   -1.311505
     73          1           0       -8.841274   -1.238424    4.394762
     74          1           0       -9.749512   -2.712948    4.477193
     75          1           0      -10.269235   -1.363620    5.432653
     76          1           0       -9.984948    3.259914    1.975397
     77          1           0      -12.052558    6.759185    3.020262
     78          1           0      -10.398201    6.763802    3.871437
     79          1           0      -11.755660    6.053093    4.670752
     80         12           0       13.505741   -0.585758    0.115535
     81          6           0       11.290325    1.991700   -0.717107
     82          6           0       16.096433    1.643236    0.092946
     83          6           0       15.577414   -3.125265    0.563049
     84          6           0       10.736734   -2.837311   -0.083299
     85          7           0       13.649398    1.581844   -0.323376
     86          6           0       12.636192    2.480088   -0.574906
     87          6           0       13.152286    3.904023   -0.479972
     88          6           0       14.720629    3.715368   -0.504244
     89          6           0       14.802466    2.196782   -0.127482
     90          6           0       15.350547    4.010718   -1.859490
     91          6           0       12.474418    4.641283    0.731976
     92          6           0       13.097695    6.031914    1.035935
     93          1           0       13.683673    6.786013   -0.139611
     94          7           0       15.483008   -0.712851    0.312411
     95          6           0       16.424926    0.298556    0.172152
     96          6           0       17.800131   -0.215280    0.298530
     97          6           0       17.619167   -1.621392    0.476813
     98          6           0       16.179443   -1.864989    0.445003
     99          6           0       18.998675    0.657628    0.282714
    100          6           0       18.714096   -2.642879    0.646110
    101          8           0       18.463653   -3.864030    0.844538
    102          6           0       20.163344   -2.238720    0.666392
    103          7           0       13.178779   -2.699870    0.280558
    104          6           0       14.236196   -3.490502    0.465763
    105          6           0       13.799445   -5.020416    0.413456
    106          6           0       12.192944   -4.930132    0.156651
    107          6           0       12.017463   -3.412064    0.098347
    108          6           0       14.613705   -5.736375   -0.740788
    109          6           0       11.304810   -5.526122    1.331028
    110          6           0       11.029807   -7.055824    1.262980
    111          7           0       11.483248   -0.525311   -0.360284
    112          6           0       10.434792   -1.480591   -0.293848
    113          6           0        9.101388   -0.796880   -0.593572
    114          6           0        9.389121    0.542214   -0.837583
    115          6           0       10.850079    0.666958   -0.601134
    116          6           0        7.735020   -1.407497   -0.584017
    117          6           0        8.851474    1.849618   -1.133072
    118          8           0        7.702337    2.241286   -1.359951
    119          6           0       10.046908    2.897897   -0.887734
    120          6           0       10.184528    3.901417   -2.009712
    121          8           0       10.829756    3.713083   -3.005447
    122          8           0        9.662918    5.160121   -1.634496
    123          6           0       10.110370    6.331090   -2.403484
    124          1           0       16.814349    2.461334    0.000790
    125          1           0       16.267936   -3.961002    0.695293
    126          1           0        9.870169   -3.477421   -0.262113
    127          1           0       12.823946    4.430178   -1.375426
    128          1           0       15.272465    4.260793    0.262003
    129          1           0       16.099366    4.780314   -1.672769
    130          1           0       14.556334    4.268936   -2.559576
    131          1           0       15.987283    3.200760   -2.214548
    132          1           0       12.435274    3.841821    1.471204
    133          1           0       11.434957    4.779550    0.436379
    134          1           0       13.860984    5.800394    1.778881
    135          1           0       12.321204    6.659847    1.472579
    136          1           0       19.513822    0.328370   -0.619516
    137          1           0       19.598930    0.581356    1.188951
    138          1           0       18.877428    1.733221    0.148021
    139          1           0       20.339294   -1.599335    1.530364
    140          1           0       20.205709   -1.755137   -0.310340
    141          1           0       20.893195   -3.047474    0.642565
    142          1           0       14.043037   -5.318762    1.433883
    143          1           0       11.826681   -5.185657   -0.838571
    144          1           0       15.285298   -5.080611   -1.294632
    145          1           0       13.924101   -6.165474   -1.468210
    146          1           0       15.259427   -6.454512   -0.236258
    147          1           0       10.419517   -4.922193    1.528033
    148          1           0       11.891559   -5.388639    2.238703
    149          1           0       11.367446   -7.475356    2.209997
    150          1           0       11.522339   -7.456062    0.376701
    151          1           0        9.966049   -7.276745    1.171980
    152          1           0        7.242871   -1.031908    0.313366
    153          1           0        7.807771   -2.495740   -0.583530
    154          1           0        7.055601   -1.147238   -1.395387
    155          1           0        9.824987    3.387830    0.059883
    156          1           0        9.526845    6.297636   -3.323143
    157          1           0       11.196333    6.339311   -2.499020
    158          1           0        9.869267    7.201953   -1.794508
 ---------------------------------------------------------------------

 SCF Done:  E(RCAM-B3LYP) =  -4069.83319984     A.U. after   19 cycles

 Excitation energies and oscillator strengths:

 Excited State   1:      Singlet-A      1.6627 eV  745.67 nm  f=0.4273  <S**2>=0.000
     309 -> 316       -0.16562
     311 -> 313        0.68821
     309 <- 316       -0.10523
 This state for optimization and/or second-order correction.
 Total Energy, E(TD-HF/TD-DFT) =  -4069.77209577
 Copying the excited state density for this state as the 1-particle RhoCI density.

 Excited State   2:      Singlet-A      1.7142 eV  723.29 nm  f=0.3630  <S**2>=0.000
     310 -> 315        0.19930
     312 -> 314        0.67972
     310 <- 315        0.11153

 Excited State   3:      Singlet-A      2.1712 eV  571.05 nm  f=0.1359  <S**2>=0.000
     309 -> 313        0.65262
     311 -> 316        0.25463

 Excited State   4:      Singlet-A      2.2903 eV  541.35 nm  f=0.0344  <S**2>=0.000
     310 -> 314        0.58794
     312 -> 315       -0.38621

 Excited State   5:      Singlet-A      2.6831 eV  462.09 nm  f=0.0000  <S**2>=0.000
     312 -> 313        0.70708

 The electronic state is 1-A.
 Alpha  occ. eigenvalues --  -46.88029 -46.87699 -19.25698 -19.23936 -19.20260
 Alpha  occ. eigenvalues --  -19.19574 -19.19137 -19.18714 -19.18407 -19.18353
 Alpha  occ. eigenvalues --  -14.42443 -14.42109 -14.42108 -14.41518 -14.39909
 Alpha  occ. eigenvalues --  -14.39902 -14.39835 -14.38805 -10.39895 -10.39380
 Alpha  occ. eigenvalues --  -10.35488 -10.35209 -10.34687 -10.34588 -10.31916
 Alpha  occ. eigenvalues --  -10.31851 -10.31722 -10.31442 -10.31313 -10.31039
 Alpha  occ. eigenvalues --  -10.30874 -10.30714 -10.30636 -10.30569 -10.30563
 Alpha  occ. eigenvalues --  -10.30414 -10.30324 -10.30314 -10.30272 -10.30070
 Alpha  occ. eigenvalues --  -10.29577 -10.29435 -10.29209 -10.29184 -10.29062
 Alpha  occ. eigenvalues --  -10.28902 -10.28883 -10.28821 -10.28760 -10.28597
 Alpha  occ. eigenvalues --  -10.28537 -10.28537 -10.28497 -10.28258 -10.28196
 Alpha  occ. eigenvalues --  -10.28151 -10.28097 -10.27697 -10.27668 -10.27574
 Alpha  occ. eigenvalues --  -10.27534 -10.27476 -10.27452 -10.27336 -10.27118
 Alpha  occ. eigenvalues --  -10.26953 -10.26918 -10.26863 -10.26769 -10.26578
 Alpha  occ. eigenvalues --  -10.26400 -10.26399 -10.26229 -10.26169 -10.25943
 Alpha  occ. eigenvalues --  -10.25844 -10.25779 -10.25728 -10.25677 -10.25666
 Alpha  occ. eigenvalues --  -10.25583 -10.25532 -10.25357 -10.25110 -10.24647
 Alpha  occ. eigenvalues --  -10.24503  -3.16711  -3.16440  -1.91616  -1.91345
 Alpha  occ. eigenvalues --   -1.91152  -1.91042  -1.90906  -1.90742  -1.15941
 Alpha  occ. eigenvalues --   -1.15436  -1.10335  -1.09069  -1.07768  -1.07742
 Alpha  occ. eigenvalues --   -1.07735  -1.05703  -1.04997  -1.04287  -1.03426
 Alpha  occ. eigenvalues --   -1.02768  -1.02756  -1.02214  -1.01334  -1.00549
 Alpha  occ. eigenvalues --   -0.92248  -0.91563  -0.89641  -0.88873  -0.88806
 Alpha  occ. eigenvalues --   -0.88636  -0.88535  -0.87787  -0.87522  -0.87267
 Alpha  occ. eigenvalues --   -0.86947  -0.86684  -0.86279  -0.85825  -0.84714
 Alpha  occ. eigenvalues --   -0.84206  -0.83998  -0.82897  -0.82884  -0.82251
 Alpha  occ. eigenvalues --   -0.82154  -0.81890  -0.81364  -0.80713  -0.80020
 Alpha  occ. eigenvalues --   -0.79961  -0.78922  -0.78468  -0.77376  -0.77218
 Alpha  occ. eigenvalues --   -0.76935  -0.76753  -0.75910  -0.75721  -0.75446
 Alpha  occ. eigenvalues --   -0.74504  -0.72707  -0.72024  -0.71898  -0.71429
 Alpha  occ. eigenvalues --   -0.70244  -0.69390  -0.69369  -0.68574  -0.68233
 Alpha  occ. eigenvalues --   -0.67575  -0.67088  -0.67024  -0.65470  -0.65087
 Alpha  occ. eigenvalues --   -0.65008  -0.64607  -0.64270  -0.63902  -0.63768
 Alpha  occ. eigenvalues --   -0.63723  -0.61885  -0.61224  -0.60597  -0.60176
 Alpha  occ. eigenvalues --   -0.59452  -0.59109  -0.59026  -0.58654  -0.58266
 Alpha  occ. eigenvalues --   -0.57753  -0.57661  -0.57469  -0.57346  -0.56731
 Alpha  occ. eigenvalues --   -0.56228  -0.56109  -0.55931  -0.55906  -0.55429
 Alpha  occ. eigenvalues --   -0.55249  -0.54748  -0.54480  -0.54232  -0.54197
 Alpha  occ. eigenvalues --   -0.53913  -0.53644  -0.53411  -0.53203  -0.53021
 Alpha  occ. eigenvalues --   -0.52673  -0.52470  -0.52444  -0.52168  -0.52073
 Alpha  occ. eigenvalues --   -0.51859  -0.51706  -0.51396  -0.51112  -0.51091
 Alpha  occ. eigenvalues --   -0.50791  -0.50777  -0.50680  -0.50440  -0.50329
 Alpha  occ. eigenvalues --   -0.50138  -0.50024  -0.49736  -0.49490  -0.49471
 Alpha  occ. eigenvalues --   -0.49384  -0.49278  -0.48963  -0.48841  -0.48788
 Alpha  occ. eigenvalues --   -0.48756  -0.48491  -0.48461  -0.48394  -0.48065
 Alpha  occ. eigenvalues --   -0.48021  -0.48013  -0.47664  -0.47512  -0.47345
 Alpha  occ. eigenvalues --   -0.46956  -0.46833  -0.46704  -0.46467  -0.46138
 Alpha  occ. eigenvalues --   -0.46100  -0.46034  -0.45942  -0.45687  -0.45645
 Alpha  occ. eigenvalues --   -0.45552  -0.45388  -0.45160  -0.45117  -0.44890
 Alpha  occ. eigenvalues --   -0.44814  -0.44605  -0.44482  -0.44299  -0.44134
 Alpha  occ. eigenvalues --   -0.44127  -0.43949  -0.43921  -0.43435  -0.43423
 Alpha  occ. eigenvalues --   -0.43130  -0.43081  -0.43028  -0.42851  -0.42576
 Alpha  occ. eigenvalues --   -0.42506  -0.42446  -0.42299  -0.42146  -0.42056
 Alpha  occ. eigenvalues --   -0.41796  -0.41704  -0.41472  -0.41243  -0.41148
 Alpha  occ. eigenvalues --   -0.40904  -0.40867  -0.40409  -0.40288  -0.40143
 Alpha  occ. eigenvalues --   -0.39891  -0.39181  -0.39171  -0.39054  -0.39031
 Alpha  occ. eigenvalues --   -0.38840  -0.38454  -0.38179  -0.37943  -0.37276
 Alpha  occ. eigenvalues --   -0.37072  -0.36707  -0.36607  -0.36466  -0.36231
 Alpha  occ. eigenvalues --   -0.36048  -0.35850  -0.34493  -0.34249  -0.34100
 Alpha  occ. eigenvalues --   -0.34040  -0.33132  -0.33014  -0.31459  -0.31269
 Alpha  occ. eigenvalues --   -0.31220  -0.30886  -0.30473  -0.30442  -0.30342
 Alpha  occ. eigenvalues --   -0.30261  -0.29985  -0.29117  -0.24195  -0.23940
 Alpha  occ. eigenvalues --   -0.21422  -0.20383
 Alpha virt. eigenvalues --   -0.09239  -0.07842  -0.02094  -0.01607  -0.00165
 Alpha virt. eigenvalues --    0.00386   0.02214   0.02245   0.03308   0.03428
 Alpha virt. eigenvalues --    0.04534   0.04567   0.04999   0.05219   0.05799

 Mulliken charges:
               1
     1  Mg  11.997003
     2  C    6.021359
     3  C    5.986074
     4  C    5.978715
     5  C    6.015574
     6  N    7.005379
     7  C    5.966090
     8  C    6.010953
     9  C    5.991496
    10  C    6.027318
    11  C    5.992400
    12  C    6.003246
    13  C    6.000081
    14  H    0.999513
    15  N    6.990717
    16  C    6.043978
    17  C    6.021263
    18  C    6.017063
    19  C    6.037141
    20  C    6.000020
    21  C    6.011842
    22  O    8.030799
    23  C    5.996108
    24  N    7.001246
    25  C    6.037813
    26  C    5.991863
    27  C    6.001599
    28  C    5.965529
    29  C    5.997788
    30  C    6.007967
    31  C    6.005922
    32  N    7.004482
    33  C    5.952344
    34  C    5.979490
    35  C    5.991434
    36  C    5.961647
    37  C    6.004762
    38  C    5.981382
    39  O    7.967418
    40  C    6.001514
    41  C    5.997126
    42  O    7.994286
    43  O    7.998249
    44  C    6.001625
    45  H    1.011012
    46  H    1.006015
    47  H    0.990333
    48  H    0.999903
    49  H    1.000218
    50  H    1.001607
    51  H    1.014116
    52  H    0.998005
    53  H    0.997555
    54  H    1.005875
    55  H    0.994814
    56  H    0.994367
    57  H    1.017284
    58  H    1.019247
    59  H    1.016819
    60  H    1.007073
    61  H    1.015008
    62  H    1.008251
    63  H    0.999185
    64  H    0.999680
    65  H    1.003171
    66  H    0.994732
    67  H    1.014208
    68  H    0.989040
    69  H    1.004794
    70  H    0.993888
    71  H    1.006251
    72  H    0.983578
    73  H    0.983733
    74  H    0.980101
    75  H    0.981200
    76  H    0.991515
    77  H    0.993051
    78  H    0.996928
    79  H    0.997826
    80  Mg  11.999910
    81  C    5.998673
    82  C    6.000611
    83  C    6.001048
    84  C    5.999458
    85  N    6.999526
    86  C    6.001760
    87  C    5.999667
    88  C    6.000352
    89  C    5.998657
    90  C    6.000155
    91  C    5.999847
    92  C    6.000033
    93  H    0.999999
    94  N    7.000503
    95  C    5.998095
    96  C    5.998954
    97  C    5.999242
    98  C    5.998573
    99  C    6.000281
   100  C    5.999454
   101  O    7.998592
   102  C    6.000145
   103  N    7.000186
   104  C    5.998536
   105  C    6.000313
   106  C    5.999526
   107  C    6.001539
   108  C    6.000158
   109  C    5.999650
   110  C    6.000031
   111  N    6.999641
   112  C    6.001879
   113  C    6.001305
   114  C    6.000352
   115  C    6.001431
   116  C    5.999703
   117  C    6.000760
   118  O    8.001704
   119  C    6.000155
   120  C    6.000052
   121  O    8.000140
   122  O    8.000156
   123  C    5.999932
   124  H    0.999296
   125  H    0.999708
   126  H    1.000532
   127  H    0.999973
   128  H    0.999941
   129  H    0.999708
   130  H    0.999264
   131  H    1.000117
   132  H    1.000226
   133  H    0.999841
   134  H    1.000279
   135  H    1.000080
   136  H    0.999035
   137  H    0.999034
   138  H    0.999091
   139  H    0.999672
   140  H    0.999745
   141  H    0.999177
   142  H    1.000112
   143  H    0.999889
   144  H    1.000153
   145  H    0.999464
   146  H    0.999935
   147  H    1.000076
   148  H    1.000473
   149  H    1.000249
   150  H    1.000018
   151  H    1.000168
   152  H    1.001423
   153  H    1.000808
   154  H    1.000974
   155  H    1.000486
   156  H    0.999984
   157  H    1.000133
   158  H    1.000255
 Sum of Mulliken charges = 624.00000

 Dipole moment (field-independent basis, Debye):
    X=             -7.9710    Y=             -1.1736    Z=             -8.4039  Tot=             11.6421
 Quadrupole moment (field-independent basis, Debye-Ang):
   XX=            186.0720   YY=             -1.6993   ZZ=              1.0061
   XY=             21.5695   XZ=            112.9001   YZ=              3.9368

 Normal termination of Gaussian 16 at Wed Sep 22 04:38:24 2021.
