 Gaussian 16, Revision A.03,
 Gaussian 16:  ES64L-G16RevA.03 25-Dec-2016

 -----------------------------------
 #p cam-b3lyp/Def2SVP td=(nstates=5)
 -----------------------------------

 --------------------------------
 TDDFT excited states in gaussian
 --------------------------------
 Symbolic Z-matrix:
 Charge =  0 Multiplicity = 1

                         Standard orientation:
 ---------------------------------------------------------------------
 Center     Atomic      Atomic             Coordinates (Angstroms)
 Number     Number       Type             X           Y           Z
 ---------------------------------------------------------------------
      1         12           0       22.025455   -0.595991    0.300419
      2          6           0       21.375845    2.093489   -1.693159
      3          6           0       21.728022    1.525309    3.115653
      4          6           0       22.887195   -3.155422    2.280305
      5          6           0       22.225013   -2.571614   -2.502413
      6          7           0       21.917153    1.592927    0.669859
      7          6           0       21.533514    2.487638   -0.337302
      8          6           0       21.311944    3.924347    0.214721
      9          6           0       21.513456    3.636395    1.726234
     10          6           0       21.806225    2.153758    1.869075
     11          6           0       22.527685    4.484197    2.606341
     12          6           0       19.906706    4.603882   -0.098469
     13          6           0       19.791449    6.016859    0.533743
     14          1           0       19.851829    7.145998   -0.495940
     15          7           0       22.228566   -0.792265    2.462687
     16          6           0       21.829456    0.137065    3.399055
     17          6           0       22.131634   -0.455290    4.696824
     18          6           0       22.477046   -1.820616    4.437358
     19          6           0       22.526686   -2.001185    3.020604
     20          6           0       21.963283    0.321149    5.945590
     21          6           0       22.885314   -2.829919    5.566609
     22          8           0       23.389146   -3.949538    5.344040
     23          6           0       22.746553   -2.435376    7.013872
     24          7           0       22.492086   -2.464286   -0.039172
     25          6           0       22.846290   -3.409473    0.964293
     26          6           0       23.427563   -4.661381    0.347253
     27          6           0       22.769746   -4.604071   -1.030129
     28          6           0       22.412737   -3.136805   -1.220896
     29          6           0       24.991513   -4.639774    0.277668
     30          6           0       21.463000   -5.425219   -1.103708
     31          6           0       21.556137   -6.894757   -1.415586
     32          7           0       21.893978   -0.387652   -1.746488
     33          6           0       21.839624   -1.270346   -2.756930
     34          6           0       21.656528   -0.567668   -3.992471
     35          6           0       21.447790    0.750430   -3.646248
     36          6           0       21.558933    0.811204   -2.248429
     37          6           0       21.608592   -1.260895   -5.309314
     38          6           0       21.167530    2.014837   -4.179424
     39          8           0       20.961541    2.384958   -5.319142
     40          6           0       21.103463    2.975112   -2.900632
     41          6           0       22.093807    4.067241   -3.099878
     42          8           0       23.296443    3.966902   -3.119397
     43          8           0       21.498215    5.263444   -3.115560
     44          6           0       22.407671    6.464869   -3.259547
     45          1           0       21.467707    2.201625    3.932353
     46          1           0       23.163078   -4.000965    2.913611
     47          1           0       22.146061   -3.151856   -3.423733
     48          1           0       22.115980    4.562188   -0.152549
     49          1           0       20.562482    3.752814    2.246900
     50          1           0       22.220364    4.692553    3.631500
     51          1           0       22.877218    5.346589    2.038428
     52          1           0       23.376448    3.814905    2.746238
     53          1           0       19.187778    3.871267    0.266241
     54          1           0       19.794737    4.669851   -1.180617
     55          1           0       20.509238    6.119579    1.347581
     56          1           0       18.796069    6.076905    0.972892
     57          1           0       22.954172    0.502491    6.362388
     58          1           0       21.241448   -0.234455    6.544242
     59          1           0       21.471393    1.273261    5.745999
     60          1           0       23.016855   -3.274939    7.654326
     61          1           0       21.670664   -2.315160    7.148031
     62          1           0       23.263654   -1.530805    7.332888
     63          1           0       23.141008   -5.548867    0.912161
     64          1           0       23.429793   -4.917332   -1.838762
     65          1           0       25.340346   -3.966275   -0.504191
     66          1           0       25.376840   -5.646619    0.114594
     67          1           0       25.317553   -4.299374    1.259865
     68          1           0       20.730922   -4.996942   -1.787178
     69          1           0       20.916457   -5.321189   -0.166283
     70          1           0       21.115199   -7.420039   -0.568864
     71          1           0       22.625703   -7.092282   -1.342416
     72          1           0       21.157725   -7.178156   -2.389916
     73          1           0       20.575703   -1.435834   -5.607854
     74          1           0       22.234227   -2.142005   -5.455157
     75          1           0       21.996225   -0.534226   -6.023524
     76          1           0       20.097987    3.391804   -2.837258
     77          1           0       23.189414    6.362980   -2.506498
     78          1           0       21.905048    7.411293   -3.058458
     79          1           0       22.824167    6.446315   -4.266905
     80         12           0      -21.482290   -0.765075    0.013400
     81          6           0      -23.467152    1.798999    1.299471
     82          6           0      -19.375305    1.487687   -1.236619
     83          6           0      -20.467833   -3.140777   -2.225353
     84          6           0      -23.743893   -3.082844    1.297678
     85          7           0      -21.342638    1.422729    0.175989
     86          6           0      -22.236843    2.219540    0.748422
     87          6           0      -21.684786    3.690924    0.745609
     88          6           0      -20.439749    3.569485   -0.165358
     89          6           0      -20.369742    2.074722   -0.463139
     90          6           0      -20.590967    4.314060   -1.583552
     91          6           0      -21.312920    4.280972    2.181189
     92          6           0      -21.736797    5.701237    2.336373
     93          1           0      -20.731658    6.734508    2.821436
     94          7           0      -20.092018   -0.807547   -1.497403
     95          6           0      -19.285483    0.239457   -1.857238
     96          6           0      -18.216166   -0.270289   -2.726872
     97          6           0      -18.548398   -1.624859   -3.008439
     98          6           0      -19.788587   -1.882795   -2.257971
     99          6           0      -17.067229    0.629057   -3.284687
    100          6           0      -17.830054   -2.625622   -3.963037
    101          8           0      -18.187705   -3.784641   -4.140837
    102          6           0      -16.622540   -2.154864   -4.681752
    103          7           0      -22.019778   -2.742136   -0.424283
    104          6           0      -21.517466   -3.549684   -1.449112
    105          6           0      -22.366779   -4.843383   -1.553660
    106          6           0      -22.917382   -5.025735   -0.071630
    107          6           0      -22.868164   -3.510771    0.275612
    108          6           0      -23.427597   -4.786824   -2.673843
    109          6           0      -22.078119   -5.831161    0.879116
    110          6           0      -20.863754   -5.240398    1.531750
    111          7           0      -23.137823   -0.753936    1.248196
    112          6           0      -23.988845   -1.752116    1.662979
    113          6           0      -25.075751   -1.234934    2.497550
    114          6           0      -24.981786    0.217034    2.308210
    115          6           0      -23.779575    0.423119    1.525583
    116          6           0      -26.130077   -2.004374    3.111065
    117          6           0      -25.603924    1.505418    2.588075
    118          8           0      -26.610931    1.803065    3.112455
    119          6           0      -24.574183    2.601718    1.994868
    120          6           0      -25.222224    3.670955    1.152057
    121          8           0      -25.358217    3.626365   -0.067038
    122          8           0      -25.547157    4.748430    1.975535
    123          6           0      -26.167931    5.926919    1.343945
    124          1           0      -18.496228    2.049001   -1.561163
    125          1           0      -20.104765   -3.843027   -2.979169
    126          1           0      -24.356110   -3.866135    1.748643
    127          1           0      -22.366177    4.384642    0.252470
    128          1           0      -19.506201    3.962881    0.236879
    129          1           0      -20.186745    5.318322   -1.454807
    130          1           0      -21.614981    4.466943   -1.923343
    131          1           0      -19.985700    3.771657   -2.310826
    132          1           0      -20.239279    4.244503    2.366503
    133          1           0      -21.715795    3.733298    3.033273
    134          1           0      -22.470677    5.650307    3.140227
    135          1           0      -22.233053    6.181640    1.493604
    136          1           0      -17.436609    1.023433   -4.230911
    137          1           0      -16.129234    0.079195   -3.365298
    138          1           0      -16.950338    1.577485   -2.759279
    139          1           0      -16.566509   -1.155626   -5.113303
    140          1           0      -16.400631   -2.831818   -5.506358
    141          1           0      -15.738434   -2.399674   -4.092394
    142          1           0      -21.624222   -5.615216   -1.754061
    143          1           0      -23.921696   -5.448530   -0.052094
    144          1           0      -24.456607   -4.998606   -2.383285
    145          1           0      -23.132929   -5.313399   -3.581860
    146          1           0      -23.494434   -3.773086   -3.068376
    147          1           0      -21.690257   -6.758187    0.458609
    148          1           0      -22.724756   -6.155737    1.694481
    149          1           0      -21.259391   -4.903915    2.489889
    150          1           0      -20.437965   -4.364193    1.042311
    151          1           0      -20.110110   -6.018229    1.658810
    152          1           0      -26.342125   -1.510229    4.059371
    153          1           0      -25.727962   -2.997847    3.308045
    154          1           0      -27.018014   -1.997021    2.479684
    155          1           0      -24.118732    3.101957    2.849530
    156          1           0      -27.025906    5.566212    0.775968
    157          1           0      -25.482981    6.394022    0.636789
    158          1           0      -26.509298    6.754369    1.966174
 ---------------------------------------------------------------------

 SCF Done:  E(RCAM-B3LYP) =  -4069.84131774     A.U. after   17 cycles

 Excitation energies and oscillator strengths:

 Excited State   1:      Singlet-A      1.6534 eV  749.87 nm  f=0.3847  <S**2>=0.000
     309 -> 315       -0.16011
     311 -> 313        0.69074
     309 <- 315       -0.10387
 This state for optimization and/or second-order correction.
 Total Energy, E(TD-HF/TD-DFT) =  -4069.78055605
 Copying the excited state density for this state as the 1-particle RhoCI density.

 Excited State   2:      Singlet-A      1.6811 eV  737.51 nm  f=0.3845  <S**2>=0.000
     310 -> 316        0.17702
     312 -> 314        0.68648
     310 <- 316        0.10855

 Excited State   3:      Singlet-A      2.2510 eV  550.79 nm  f=0.1046  <S**2>=0.000
     309 -> 313        0.63830
     311 -> 315        0.28831

 Excited State   4:      Singlet-A      2.2559 eV  549.59 nm  f=0.1081  <S**2>=0.000
     310 -> 314        0.63263
     312 -> 316       -0.30594

 Excited State   5:      Singlet-A      2.9672 eV  417.85 nm  f=0.0000  <S**2>=0.000
     312 -> 313        0.70711

 The electronic state is 1-A.
 Alpha  occ. eigenvalues --  -46.87936 -46.87538 -19.25035 -19.24952 -19.20115
 Alpha  occ. eigenvalues --  -19.19703 -19.19411 -19.19199 -19.18774 -19.18587
 Alpha  occ. eigenvalues --  -14.42756 -14.42210 -14.41776 -14.41440 -14.39301
 Alpha  occ. eigenvalues --  -14.39242 -14.38902 -14.38886 -10.39707 -10.38563
 Alpha  occ. eigenvalues --  -10.35664 -10.35538 -10.35248 -10.34976 -10.32327
 Alpha  occ. eigenvalues --  -10.32090 -10.31815 -10.31392 -10.31350 -10.30608
 Alpha  occ. eigenvalues --  -10.30603 -10.30600 -10.30045 -10.30019 -10.29901
 Alpha  occ. eigenvalues --  -10.29766 -10.29597 -10.29509 -10.29493 -10.29404
 Alpha  occ. eigenvalues --  -10.29303 -10.29028 -10.29017 -10.28797 -10.28681
 Alpha  occ. eigenvalues --  -10.28638 -10.28516 -10.28396 -10.28316 -10.28309
 Alpha  occ. eigenvalues --  -10.28234 -10.28132 -10.28093 -10.27926 -10.27823
 Alpha  occ. eigenvalues --  -10.27794 -10.27683 -10.27576 -10.27555 -10.27491
 Alpha  occ. eigenvalues --  -10.27406 -10.27403 -10.27152 -10.27096 -10.26908
 Alpha  occ. eigenvalues --  -10.26800 -10.26721 -10.26706 -10.26567 -10.26387
 Alpha  occ. eigenvalues --  -10.26201 -10.26138 -10.26102 -10.26069 -10.25948
 Alpha  occ. eigenvalues --  -10.25868 -10.25829 -10.25770 -10.25611 -10.25584
 Alpha  occ. eigenvalues --  -10.25562 -10.25554 -10.25392 -10.25134 -10.25052
 Alpha  occ. eigenvalues --  -10.24566  -3.16639  -3.16318  -1.91543  -1.91220
 Alpha  occ. eigenvalues --   -1.91070  -1.90967  -1.90789  -1.90617  -1.16947
 Alpha  occ. eigenvalues --   -1.15170  -1.12961  -1.10475  -1.10176  -1.08314
 Alpha  occ. eigenvalues --   -1.07468  -1.07177  -1.05476  -1.05197  -1.03958
 Alpha  occ. eigenvalues --   -1.03596  -1.03136  -1.02886  -1.02154  -1.01997
 Alpha  occ. eigenvalues --   -0.93370  -0.91886  -0.89118  -0.89048  -0.88816
 Alpha  occ. eigenvalues --   -0.88698  -0.88650  -0.88037  -0.87942  -0.87208
 Alpha  occ. eigenvalues --   -0.87200  -0.86915  -0.86605  -0.86323  -0.84364
 Alpha  occ. eigenvalues --   -0.84195  -0.84005  -0.83612  -0.82565  -0.82558
 Alpha  occ. eigenvalues --   -0.81883  -0.81618  -0.81250  -0.81015  -0.80672
 Alpha  occ. eigenvalues --   -0.80381  -0.78423  -0.78262  -0.77591  -0.77287
 Alpha  occ. eigenvalues --   -0.77254  -0.76750  -0.76247  -0.75865  -0.75238
 Alpha  occ. eigenvalues --   -0.74880  -0.73256  -0.72263  -0.71846  -0.71485
 Alpha  occ. eigenvalues --   -0.69482  -0.69243  -0.68994  -0.68513  -0.68352
 Alpha  occ. eigenvalues --   -0.67769  -0.66775  -0.66118  -0.65836  -0.65724
 Alpha  occ. eigenvalues --   -0.64990  -0.64659  -0.64631  -0.64254  -0.64222
 Alpha  occ. eigenvalues --   -0.64114  -0.62120  -0.61819  -0.60288  -0.60165
 Alpha  occ. eigenvalues --   -0.60029  -0.59611  -0.59153  -0.58917  -0.58892
 Alpha  occ. eigenvalues --   -0.58363  -0.58119  -0.58055  -0.57783  -0.57248
 Alpha  occ. eigenvalues --   -0.56587  -0.56119  -0.55823  -0.55541  -0.55364
 Alpha  occ. eigenvalues --   -0.55060  -0.54853  -0.54792  -0.54284  -0.54114
 Alpha  occ. eigenvalues --   -0.53584  -0.53500  -0.53395  -0.53387  -0.52982
 Alpha  occ. eigenvalues --   -0.52973  -0.52751  -0.52529  -0.52323  -0.52184
 Alpha  occ. eigenvalues --   -0.51800  -0.51790  -0.51706  -0.51640  -0.51399
 Alpha  occ. eigenvalues --   -0.51363  -0.51254  -0.50423  -0.50408  -0.50287
 Alpha  occ. eigenvalues --   -0.50192  -0.50087  -0.50021  -0.49939  -0.49769
 Alpha  occ. eigenvalues --   -0.49633  -0.49541  -0.49311  -0.49164  -0.48981
 Alpha  occ. eigenvalues --   -0.48798  -0.48623  -0.48332  -0.48297  -0.48118
 Alpha  occ. eigenvalues --   -0.48006  -0.47816  -0.47777  -0.47537  -0.47158
 Alpha  occ. eigenvalues --   -0.46980  -0.46962  -0.46809  -0.46611  -0.46556
 Alpha  occ. eigenvalues --   -0.46492  -0.46295  -0.46113  -0.46069  -0.45891
 Alpha  occ. eigenvalues --   -0.45764  -0.45535  -0.45522  -0.45310  -0.45212
 Alpha  occ. eigenvalues --   -0.44967  -0.44731  -0.44651  -0.44405  -0.44263
 Alpha  occ. eigenvalues --   -0.44182  -0.43787  -0.43750  -0.43746  -0.43592
 Alpha  occ. eigenvalues --   -0.43371  -0.43342  -0.43266  -0.42883  -0.42819
 Alpha  occ. eigenvalues --   -0.42681  -0.42041  -0.41899  -0.41843  -0.41662
 Alpha  occ. eigenvalues --   -0.41590  -0.41589  -0.41545  -0.41383  -0.41202
 Alpha  occ. eigenvalues --   -0.41160  -0.40914  -0.40676  -0.40515  -0.40448
 Alpha  occ. eigenvalues --   -0.40251  -0.40079  -0.39859  -0.39148  -0.38681
 Alpha  occ. eigenvalues --   -0.38474  -0.38100  -0.38083  -0.37695  -0.37513
 Alpha  occ. eigenvalues --   -0.36995  -0.36970  -0.36700  -0.36603  -0.36603
 Alpha  occ. eigenvalues --   -0.36548  -0.35928  -0.34478  -0.34301  -0.34253
 Alpha  occ. eigenvalues --   -0.34044  -0.33313  -0.32824  -0.31496  -0.31424
 Alpha  occ. eigenvalues --   -0.31281  -0.31237  -0.31030  -0.30686  -0.30512
 Alpha  occ. eigenvalues --   -0.30042  -0.29573  -0.29132  -0.24643  -0.24001
 Alpha  occ. eigenvalues --   -0.21151  -0.20796
 Alpha virt. eigenvalues --   -0.09105  -0.08481  -0.01581  -0.01398   0.00372
 Alpha virt. eigenvalues --    0.00385   0.02323   0.02402   0.02773   0.03378
 Alpha virt. eigenvalues --    0.04548   0.04621   0.05328   0.05563   0.06045

 Mulliken charges:
               1
     1  Mg   0.828476
     2  C    0.007482
     3  C   -0.059511
     4  C   -0.069218
     5  C   -0.093580
     6  N   -0.267895
     7  C   -0.051209
     8  C    0.020232
     9  C   -0.103968
    10  C    0.038328
    11  C    0.063726
    12  C    0.034960
    13  C   -0.056559
    14  H    0.031808
    15  N   -0.358575
    16  C    0.139190
    17  C   -0.203023
    18  C   -0.035953
    19  C    0.110419
    20  C    0.139572
    21  C    0.019222
    22  O   -0.225601
    23  C    0.056039
    24  N   -0.391521
    25  C    0.083614
    26  C   -0.019357
    27  C   -0.020655
    28  C    0.118476
    29  C    0.088225
    30  C   -0.004920
    31  C    0.053330
    32  N   -0.339560
    33  C    0.089629
    34  C   -0.168115
    35  C    0.069272
    36  C    0.103902
    37  C    0.107986
    38  C    0.017654
    39  O   -0.153783
    40  C   -0.052430
    41  C    0.180643
    42  O   -0.217028
    43  O   -0.331567
    44  C    0.179186
    45  H   -0.027516
    46  H   -0.006582
    47  H   -0.026937
    48  H    0.017595
    49  H    0.009436
    50  H    0.020281
    51  H    0.021751
    52  H    0.015410
    53  H    0.010946
    54  H    0.033005
    55  H    0.030027
    56  H    0.029295
    57  H    0.042933
    58  H    0.027688
    59  H    0.001081
    60  H    0.024424
    61  H    0.024837
    62  H    0.039987
    63  H    0.000244
    64  H   -0.003805
    65  H    0.020456
    66  H    0.019257
    67  H    0.019165
    68  H   -0.002538
    69  H   -0.003890
    70  H    0.012707
    71  H   -0.002465
    72  H    0.028759
    73  H    0.038328
    74  H    0.023686
    75  H    0.027429
    76  H    0.043165
    77  H    0.041494
    78  H    0.041628
    79  H    0.051376
    80  Mg   0.845330
    81  C    0.027427
    82  C   -0.076857
    83  C   -0.074872
    84  C   -0.103112
    85  N   -0.243944
    86  C   -0.032165
    87  C    0.000735
    88  C   -0.076726
    89  C    0.082367
    90  C    0.038847
    91  C    0.070154
    92  C   -0.093375
    93  H    0.009668
    94  N   -0.370824
    95  C    0.094410
    96  C   -0.139777
    97  C   -0.061990
    98  C    0.101692
    99  C    0.093648
   100  C    0.039042
   101  O   -0.200702
   102  C    0.041871
   103  N   -0.293947
   104  C    0.034437
   105  C    0.001860
   106  C   -0.010237
   107  C    0.025364
   108  C    0.092677
   109  C    0.017535
   110  C    0.022138
   111  N   -0.363040
   112  C    0.153957
   113  C   -0.162529
   114  C   -0.039991
   115  C    0.088723
   116  C    0.123004
   117  C    0.056380
   118  O   -0.102365
   119  C   -0.071474
   120  C    0.218774
   121  O   -0.220130
   122  O   -0.352130
   123  C    0.187109
   124  H   -0.036745
   125  H   -0.006443
   126  H   -0.034608
   127  H    0.020346
   128  H    0.017609
   129  H    0.008609
   130  H    0.029609
   131  H    0.017112
   132  H    0.013808
   133  H    0.012989
   134  H    0.031514
   135  H    0.030136
   136  H    0.034940
   137  H    0.042240
   138  H    0.009159
   139  H    0.038133
   140  H    0.012081
   141  H    0.038764
   142  H   -0.003741
   143  H   -0.003976
   144  H    0.017251
   145  H    0.021819
   146  H    0.010557
   147  H    0.001295
   148  H   -0.002062
   149  H    0.005370
   150  H    0.031856
   151  H    0.016186
   152  H    0.033349
   153  H    0.015306
   154  H    0.051229
   155  H    0.046714
   156  H    0.036684
   157  H    0.023051
   158  H    0.042898
 Sum of Mulliken charges =  -0.00000

 Dipole moment (field-independent basis, Debye):
    X=              1.1381    Y=              2.5322    Z=              3.2550  Tot=              4.2781
 Quadrupole moment (field-independent basis, Debye-Ang):
   XX=           -755.4189   YY=           -471.5361   ZZ=           -528.6116
   XY=             27.4986   XZ=             46.4347   YZ=             18.1810

 Normal termination of Gaussian 16 at Wed Sep 15 23:25:53 2021.
