 Gaussian 16, Revision A.03,
 Gaussian 16:  ES64L-G16RevA.03 25-Dec-2016

 -----------------------------------
 #p cam-b3lyp/Def2SVP td=(nstates=5)
 -----------------------------------

 --------------------------------
 TDDFT excited states in gaussian
 --------------------------------
 Symbolic Z-matrix:
 Charge =  0 Multiplicity = 1

                         Standard orientation:
 ---------------------------------------------------------------------
 Center     Atomic      Atomic             Coordinates (Angstroms)
 Number     Number       Type             X           Y           Z
 ---------------------------------------------------------------------
      1         12           0       -5.215547   -0.214698    0.625244
      2          6           0       -4.572752    3.276360   -0.138507
      3          6           0       -2.774843    0.085792    2.931229
      4          6           0       -5.756145   -3.302321    1.239345
      5          6           0       -7.490568   -0.308457   -2.086280
      6          7           0       -3.807123    1.603983    1.340988
      7          6           0       -3.814791    2.890017    0.949947
      8          6           0       -2.893479    3.728161    1.856740
      9          6           0       -2.049585    2.515297    2.469386
     10          6           0       -2.938081    1.355936    2.296126
     11          6           0       -0.580501    2.398710    2.099027
     12          6           0       -3.763860    4.530479    2.839409
     13          6           0       -3.066202    5.827012    3.346272
     14          1           0       -1.735505    6.418778    2.687507
     15          7           0       -4.406733   -1.484360    1.967056
     16          6           0       -3.334069   -1.225823    2.798735
     17          6           0       -3.008963   -2.459364    3.508321
     18          6           0       -3.928672   -3.447401    3.078056
     19          6           0       -4.741460   -2.743150    2.046211
     20          6           0       -1.916079   -2.593400    4.472992
     21          6           0       -4.122196   -4.974772    3.573782
     22          8           0       -5.066313   -5.631886    3.229913
     23          6           0       -3.290065   -5.556278    4.730786
     24          7           0       -6.262294   -1.661275   -0.488366
     25          6           0       -6.446396   -2.843256    0.094315
     26          6           0       -7.440373   -3.732174   -0.603616
     27          6           0       -8.237903   -2.649272   -1.370656
     28          6           0       -7.162024   -1.510793   -1.429896
     29          6           0       -6.784608   -4.799307   -1.598263
     30          6           0       -9.623784   -2.216926   -0.731375
     31          6           0      -10.440795   -3.237157    0.113695
     32          7           0       -5.831392    1.108304   -0.885813
     33          6           0       -6.770200    0.994380   -1.857624
     34          6           0       -7.017377    2.212253   -2.485954
     35          6           0       -6.153530    3.078568   -1.879047
     36          6           0       -5.450895    2.411714   -0.894939
     37          6           0       -8.076492    2.474370   -3.553162
     38          6           0       -5.764337    4.496607   -1.899735
     39          8           0       -5.990034    5.412166   -2.676815
     40          6           0       -4.759063    4.655618   -0.676930
     41          6           0       -3.560763    5.304257   -1.179845
     42          8           0       -2.647680    4.780606   -1.826052
     43          8           0       -3.748815    6.633552   -1.044066
     44          6           0       -2.815147    7.411661   -1.838355
     45          1           0       -1.869715    0.140012    3.539842
     46          1           0       -5.885508   -4.365412    1.450163
     47          1           0       -8.270049   -0.363543   -2.848817
     48          1           0       -2.202880    4.337656    1.273775
     49          1           0       -2.006315    2.702638    3.541426
     50          1           0        0.073176    2.582557    2.951138
     51          1           0       -0.334549    3.106192    1.307369
     52          1           0       -0.307007    1.438625    1.661319
     53          1           0       -3.883596    3.921281    3.735589
     54          1           0       -4.768720    4.740802    2.473646
     55          1           0       -2.931647    5.816264    4.428359
     56          1           0       -3.890071    6.540335    3.328506
     57          1           0       -1.647324   -1.634450    4.915524
     58          1           0       -1.086376   -3.012409    3.903412
     59          1           0       -2.143375   -3.248073    5.314611
     60          1           0       -3.483738   -5.083558    5.693631
     61          1           0       -2.264193   -5.539357    4.362165
     62          1           0       -3.480622   -6.625983    4.821368
     63          1           0       -7.937193   -4.233931    0.226408
     64          1           0       -8.469766   -2.935464   -2.396249
     65          1           0       -7.326898   -5.706014   -1.331087
     66          1           0       -5.716786   -4.960518   -1.446271
     67          1           0       -6.945389   -4.618516   -2.660389
     68          1           0      -10.255781   -1.808090   -1.518470
     69          1           0       -9.282897   -1.485272    0.001358
     70          1           0      -10.112891   -3.218233    1.152749
     71          1           0      -10.302609   -4.174689   -0.425989
     72          1           0      -11.512182   -3.044666    0.069178
     73          1           0       -8.866518    1.755590   -3.334356
     74          1           0       -7.735349    2.246784   -4.562654
     75          1           0       -8.414662    3.505421   -3.451416
     76          1           0       -5.266092    5.284130    0.056266
     77          1           0       -2.969328    8.487236   -1.756799
     78          1           0       -2.658668    7.085822   -2.866809
     79          1           0       -1.805583    7.316774   -1.437024
     80         12           0        4.476634   -1.030695   -1.072032
     81          6           0        7.202490    0.988852   -0.073990
     82          6           0        2.430551    1.679005   -0.624652
     83          6           0        1.878821   -3.063658   -1.365711
     84          6           0        6.626104   -3.792410   -1.007470
     85          7           0        4.767588    1.054789   -0.263172
     86          6           0        6.004073    1.664181   -0.034073
     87          6           0        5.822581    3.197736    0.082165
     88          6           0        4.270377    3.389953   -0.079556
     89          6           0        3.739441    1.962244   -0.386543
     90          6           0        3.559474    4.211923    0.981334
     91          6           0        6.639155    4.061054   -0.892072
     92          6           0        7.518567    5.136038   -0.196278
     93          1           0        7.285371    6.560126   -0.649672
     94          7           0        2.430599   -0.687477   -1.084730
     95          6           0        1.753596    0.473802   -0.853386
     96          6           0        0.357673    0.229600   -1.128243
     97          6           0        0.157038   -1.214837   -1.205662
     98          6           0        1.534102   -1.684073   -1.193566
     99          6           0       -0.763334    1.388464   -1.023805
    100          6           0       -1.037621   -2.048381   -1.023400
    101          8           0       -1.115200   -3.240661   -1.111167
    102          6           0       -2.321155   -1.303921   -0.667957
    103          7           0        4.288288   -3.181043   -0.962193
    104          6           0        3.093473   -3.765310   -1.177245
    105          6           0        3.262053   -5.265343   -1.429838
    106          6           0        4.774598   -5.401947   -1.667068
    107          6           0        5.288785   -4.048095   -1.231105
    108          6           0        2.764058   -6.127000   -0.180367
    109          6           0        5.027257   -5.613186   -3.246014
    110          6           0        4.809489   -4.359794   -4.136976
    111          7           0        6.534265   -1.415867   -0.759256
    112          6           0        7.233590   -2.562024   -0.780936
    113          6           0        8.609766   -2.253247   -0.499290
    114          6           0        8.645013   -0.890487   -0.270660
    115          6           0        7.340307   -0.399774   -0.371306
    116          6           0        9.803988   -3.185360   -0.423258
    117          6           0        9.587028    0.163738    0.114721
    118          8           0       10.732805    0.264723    0.452303
    119          6           0        8.710192    1.442018    0.182201
    120          6           0        8.863143    1.956558    1.565754
    121          8           0        8.637142    1.261037    2.523944
    122          8           0        9.363783    3.247274    1.623522
    123          6           0        9.825056    3.723469    2.970449
    124          1           0        1.828263    2.588188   -0.682389
    125          1           0        1.069328   -3.763939   -1.583800
    126          1           0        7.398243   -4.546952   -1.171729
    127          1           0        6.044926    3.497663    1.106440
    128          1           0        4.101594    4.023161   -0.950786
    129          1           0        4.175093    4.321352    1.872935
    130          1           0        2.582205    3.817625    1.260995
    131          1           0        3.470996    5.216040    0.567345
    132          1           0        6.096648    4.659817   -1.623713
    133          1           0        7.290473    3.438752   -1.505351
    134          1           0        8.573302    4.861772   -0.213806
    135          1           0        7.243651    5.150157    0.857621
    136          1           0       -1.379312    1.336445   -1.921493
    137          1           0       -0.396322    2.413846   -1.000002
    138          1           0       -1.414025    1.410636   -0.149646
    139          1           0       -2.486666   -0.664278   -1.535202
    140          1           0       -2.071671   -0.735738    0.227603
    141          1           0       -3.202789   -1.937569   -0.566599
    142          1           0        2.774170   -5.611511   -2.341632
    143          1           0        5.357042   -6.131616   -1.104097
    144          1           0        2.425846   -7.085858   -0.574065
    145          1           0        1.937915   -5.745879    0.420865
    146          1           0        3.665737   -6.271966    0.414461
    147          1           0        4.440322   -6.432053   -3.661565
    148          1           0        6.089722   -5.779171   -3.424637
    149          1           0        4.811700   -4.542603   -5.211012
    150          1           0        5.624064   -3.665898   -3.928807
    151          1           0        3.869829   -3.899273   -3.830180
    152          1           0       10.041899   -3.688566   -1.360150
    153          1           0        9.495137   -3.935515    0.304270
    154          1           0       10.686355   -2.705583    0.000195
    155          1           0        9.205281    2.118782   -0.513974
    156          1           0        9.386696    4.721232    2.950261
    157          1           0       10.909404    3.800349    3.048128
    158          1           0        9.532884    3.187383    3.873071
 ---------------------------------------------------------------------

 SCF Done:  E(RCAM-B3LYP) =  -4069.79728688     A.U. after   19 cycles

 Excitation energies and oscillator strengths:

 Excited State   1:      Singlet-A      1.6931 eV  732.31 nm  f=0.4998  <S**2>=0.000
     309 -> 315        0.16795
     311 -> 313        0.31253
     312 -> 313        0.61063
     309 <- 315        0.10384
 This state for optimization and/or second-order correction.
 Total Energy, E(TD-HF/TD-DFT) =  -4069.73506840
 Copying the excited state density for this state as the 1-particle RhoCI density.

 Excited State   2:      Singlet-A      1.8376 eV  674.72 nm  f=0.3136  <S**2>=0.000
     310 -> 316       -0.18065
     311 -> 314        0.60216
     312 -> 314       -0.31690
     310 <- 316       -0.10067

 Excited State   3:      Singlet-A      2.1924 eV  565.51 nm  f=0.0725  <S**2>=0.000
     309 -> 313        0.64092
     310 -> 314       -0.14071
     312 -> 315       -0.21564

 Excited State   4:      Singlet-A      2.2332 eV  555.20 nm  f=0.1875  <S**2>=0.000
     309 -> 313        0.13658
     310 -> 314        0.64020
     311 -> 316        0.20708
     312 -> 316       -0.12257

 Excited State   5:      Singlet-A      2.3967 eV  517.32 nm  f=0.0000  <S**2>=0.000
     311 -> 313        0.62588
     312 -> 313       -0.32204

 The electronic state is 1-A.
 Alpha  occ. eigenvalues --  -46.89495 -46.89457 -19.25360 -19.25164 -19.20436
 Alpha  occ. eigenvalues --  -19.19566 -19.19370 -19.19300 -19.19095 -19.18346
 Alpha  occ. eigenvalues --  -14.42085 -14.41876 -14.41667 -14.41250 -14.39907
 Alpha  occ. eigenvalues --  -14.39703 -14.39179 -14.38813 -10.38809 -10.38730
 Alpha  occ. eigenvalues --  -10.36889 -10.35117 -10.35066 -10.34357 -10.31849
 Alpha  occ. eigenvalues --  -10.31456 -10.31383 -10.31060 -10.30954 -10.30808
 Alpha  occ. eigenvalues --  -10.30771 -10.30757 -10.30714 -10.30699 -10.30201
 Alpha  occ. eigenvalues --  -10.29876 -10.29817 -10.29704 -10.29454 -10.29445
 Alpha  occ. eigenvalues --  -10.29428 -10.29273 -10.29080 -10.28641 -10.28539
 Alpha  occ. eigenvalues --  -10.28509 -10.28285 -10.28161 -10.27999 -10.27997
 Alpha  occ. eigenvalues --  -10.27991 -10.27980 -10.27936 -10.27891 -10.27772
 Alpha  occ. eigenvalues --  -10.27752 -10.27743 -10.27679 -10.27463 -10.27435
 Alpha  occ. eigenvalues --  -10.27376 -10.27301 -10.27161 -10.27007 -10.26975
 Alpha  occ. eigenvalues --  -10.26858 -10.26627 -10.26583 -10.26481 -10.26452
 Alpha  occ. eigenvalues --  -10.26282 -10.26271 -10.26256 -10.26230 -10.26140
 Alpha  occ. eigenvalues --  -10.26112 -10.25989 -10.25863 -10.25618 -10.25564
 Alpha  occ. eigenvalues --  -10.25555 -10.25493 -10.25365 -10.24978 -10.24804
 Alpha  occ. eigenvalues --  -10.23901  -3.17946  -3.17898  -1.92848  -1.92781
 Alpha  occ. eigenvalues --   -1.92422  -1.92367  -1.92230  -1.92191  -1.16966
 Alpha  occ. eigenvalues --   -1.15708  -1.12510  -1.11637  -1.11008  -1.09697
 Alpha  occ. eigenvalues --   -1.07643  -1.07175  -1.05899  -1.05430  -1.05140
 Alpha  occ. eigenvalues --   -1.04710  -1.04237  -1.03775  -1.03581  -1.01955
 Alpha  occ. eigenvalues --   -0.92600  -0.92316  -0.89208  -0.89032  -0.88856
 Alpha  occ. eigenvalues --   -0.88774  -0.88181  -0.88138  -0.87712  -0.87683
 Alpha  occ. eigenvalues --   -0.87007  -0.86483  -0.86113  -0.85742  -0.84569
 Alpha  occ. eigenvalues --   -0.84356  -0.83490  -0.83363  -0.82490  -0.82485
 Alpha  occ. eigenvalues --   -0.81844  -0.81098  -0.80873  -0.80823  -0.80285
 Alpha  occ. eigenvalues --   -0.80057  -0.78583  -0.78201  -0.77358  -0.77020
 Alpha  occ. eigenvalues --   -0.76805  -0.76591  -0.76172  -0.75875  -0.75358
 Alpha  occ. eigenvalues --   -0.75095  -0.73005  -0.72901  -0.71821  -0.71740
 Alpha  occ. eigenvalues --   -0.69757  -0.69337  -0.69129  -0.68922  -0.68027
 Alpha  occ. eigenvalues --   -0.67772  -0.67255  -0.66838  -0.65711  -0.65447
 Alpha  occ. eigenvalues --   -0.65301  -0.65226  -0.65108  -0.64767  -0.64396
 Alpha  occ. eigenvalues --   -0.63843  -0.62280  -0.62104  -0.60811  -0.60315
 Alpha  occ. eigenvalues --   -0.59771  -0.59678  -0.59404  -0.59222  -0.58724
 Alpha  occ. eigenvalues --   -0.58553  -0.58194  -0.58099  -0.57681  -0.57490
 Alpha  occ. eigenvalues --   -0.56556  -0.55904  -0.55785  -0.55399  -0.55320
 Alpha  occ. eigenvalues --   -0.55226  -0.54714  -0.54494  -0.54407  -0.54193
 Alpha  occ. eigenvalues --   -0.53995  -0.53766  -0.53389  -0.53094  -0.52969
 Alpha  occ. eigenvalues --   -0.52909  -0.52777  -0.52416  -0.52278  -0.52034
 Alpha  occ. eigenvalues --   -0.51863  -0.51683  -0.51466  -0.51435  -0.51230
 Alpha  occ. eigenvalues --   -0.51216  -0.50813  -0.50730  -0.50550  -0.50173
 Alpha  occ. eigenvalues --   -0.50040  -0.49904  -0.49806  -0.49566  -0.49423
 Alpha  occ. eigenvalues --   -0.49343  -0.49113  -0.49033  -0.48949  -0.48868
 Alpha  occ. eigenvalues --   -0.48777  -0.48419  -0.48373  -0.48234  -0.48124
 Alpha  occ. eigenvalues --   -0.47781  -0.47652  -0.47576  -0.47445  -0.47075
 Alpha  occ. eigenvalues --   -0.46987  -0.46880  -0.46590  -0.46358  -0.46193
 Alpha  occ. eigenvalues --   -0.46088  -0.46010  -0.45887  -0.45841  -0.45584
 Alpha  occ. eigenvalues --   -0.45561  -0.45247  -0.45089  -0.45082  -0.44758
 Alpha  occ. eigenvalues --   -0.44489  -0.44409  -0.44333  -0.44226  -0.44097
 Alpha  occ. eigenvalues --   -0.44006  -0.43815  -0.43640  -0.43429  -0.43335
 Alpha  occ. eigenvalues --   -0.43307  -0.43188  -0.43066  -0.42958  -0.42825
 Alpha  occ. eigenvalues --   -0.42761  -0.42685  -0.42407  -0.42258  -0.42226
 Alpha  occ. eigenvalues --   -0.42130  -0.41958  -0.41883  -0.41732  -0.41405
 Alpha  occ. eigenvalues --   -0.41377  -0.41329  -0.40847  -0.40437  -0.40313
 Alpha  occ. eigenvalues --   -0.39804  -0.39696  -0.39460  -0.39054  -0.38862
 Alpha  occ. eigenvalues --   -0.38427  -0.38288  -0.38226  -0.38010  -0.37760
 Alpha  occ. eigenvalues --   -0.37517  -0.36997  -0.36718  -0.36412  -0.36349
 Alpha  occ. eigenvalues --   -0.36226  -0.35773  -0.34358  -0.34327  -0.34243
 Alpha  occ. eigenvalues --   -0.34096  -0.33343  -0.32670  -0.31842  -0.31574
 Alpha  occ. eigenvalues --   -0.31506  -0.31181  -0.30737  -0.30619  -0.30282
 Alpha  occ. eigenvalues --   -0.30231  -0.30058  -0.29626  -0.24134  -0.23532
 Alpha  occ. eigenvalues --   -0.21546  -0.21512
 Alpha virt. eigenvalues --   -0.09101  -0.08384  -0.01418  -0.01234   0.00497
 Alpha virt. eigenvalues --    0.00630   0.01790   0.02358   0.02508   0.02610
 Alpha virt. eigenvalues --    0.03914   0.05296   0.05317   0.05649   0.06346

 Mulliken charges:
               1
     1  Mg   0.750099
     2  C    0.012130
     3  C   -0.050194
     4  C   -0.066958
     5  C   -0.068305
     6  N   -0.187737
     7  C   -0.116311
     8  C   -0.013163
     9  C   -0.041264
    10  C   -0.040770
    11  C    0.076991
    12  C    0.049931
    13  C   -0.037907
    14  H    0.033488
    15  N   -0.376309
    16  C    0.134746
    17  C   -0.135532
    18  C   -0.048195
    19  C    0.094265
    20  C    0.104981
    21  C    0.033078
    22  O   -0.167213
    23  C    0.039506
    24  N   -0.245558
    25  C    0.043414
    26  C   -0.050945
    27  C   -0.063764
    28  C    0.033740
    29  C    0.072549
    30  C    0.034479
    31  C    0.005194
    32  N   -0.315745
    33  C    0.075453
    34  C   -0.207007
    35  C    0.001615
    36  C    0.120564
    37  C    0.136507
    38  C    0.059644
    39  O   -0.161666
    40  C   -0.025662
    41  C    0.189470
    42  O   -0.247728
    43  O   -0.297952
    44  C    0.195000
    45  H   -0.033572
    46  H   -0.012298
    47  H   -0.022479
    48  H    0.013803
    49  H   -0.008033
    50  H    0.018937
    51  H    0.012042
    52  H    0.029643
    53  H    0.009167
    54  H    0.025277
    55  H    0.016846
    56  H    0.015263
    57  H    0.021051
    58  H    0.046900
    59  H    0.018156
    60  H    0.064566
    61  H    0.025668
    62  H    0.024150
    63  H    0.019644
    64  H   -0.008949
    65  H    0.019822
    66  H    0.031334
    67  H    0.021221
    68  H    0.012226
    69  H    0.003502
    70  H    0.029441
    71  H    0.014819
    72  H    0.015717
    73  H    0.006356
    74  H    0.029666
    75  H    0.032352
    76  H    0.043985
    77  H    0.031767
    78  H    0.043041
    79  H    0.005155
    80  Mg   0.812045
    81  C   -0.023183
    82  C   -0.079024
    83  C   -0.062545
    84  C   -0.065357
    85  N   -0.302014
    86  C   -0.036285
    87  C    0.007368
    88  C   -0.059319
    89  C    0.048451
    90  C    0.068366
    91  C    0.056691
    92  C   -0.088597
    93  H    0.008510
    94  N   -0.362532
    95  C    0.156786
    96  C   -0.118826
    97  C   -0.035251
    98  C    0.128115
    99  C    0.055755
   100  C   -0.009882
   101  O   -0.173587
   102  C   -0.037546
   103  N   -0.263590
   104  C    0.028994
   105  C   -0.033994
   106  C   -0.014618
   107  C    0.032115
   108  C    0.066812
   109  C    0.004377
   110  C   -0.014686
   111  N   -0.320554
   112  C    0.064744
   113  C   -0.163436
   114  C   -0.035032
   115  C    0.139154
   116  C    0.117134
   117  C    0.068815
   118  O   -0.137302
   119  C    0.004031
   120  C    0.181029
   121  O   -0.202339
   122  O   -0.350927
   123  C    0.165390
   124  H   -0.030549
   125  H   -0.001341
   126  H   -0.031760
   127  H    0.017366
   128  H    0.010699
   129  H    0.006715
   130  H    0.021138
   131  H    0.010345
   132  H    0.020079
   133  H    0.009386
   134  H    0.045954
   135  H    0.014876
   136  H    0.037976
   137  H    0.014623
   138  H    0.038499
   139  H    0.052757
   140  H    0.070281
   141  H    0.084495
   142  H    0.017068
   143  H    0.012171
   144  H    0.017517
   145  H    0.031784
   146  H    0.015726
   147  H    0.019890
   148  H    0.002064
   149  H    0.024016
   150  H    0.021965
   151  H    0.021549
   152  H    0.028973
   153  H    0.018858
   154  H    0.035942
   155  H    0.033957
   156  H    0.035830
   157  H    0.044067
   158  H    0.055688
 Sum of Mulliken charges =  -0.00000

 Dipole moment (field-independent basis, Debye):
    X=             -0.9223    Y=             -0.8900    Z=              3.1445  Tot=              3.3956
 Quadrupole moment (field-independent basis, Debye-Ang):
   XX=           -544.9793   YY=           -495.7483   ZZ=           -496.3216
   XY=             10.3145   XZ=            -25.4120   YZ=             28.5752

 Normal termination of Gaussian 16 at Wed Sep  1 22:18:13 2021.
