 Gaussian 16, Revision A.03,
 Gaussian 16:  ES64L-G16RevA.03 25-Dec-2016

 ----------------------------------------------------------
 #p cam-b3lyp/Def2SVP td=(nstates=5) density=(transition=1)
 ----------------------------------------------------------

 --------------------------------
 TDDFT excited states in gaussian
 --------------------------------
 Symbolic Z-matrix:
 Charge =  0 Multiplicity = 1

                         Standard orientation:
 ---------------------------------------------------------------------
 Center     Atomic      Atomic             Coordinates (Angstroms)
 Number     Number       Type             X           Y           Z
 ---------------------------------------------------------------------
      1         12           0       12.173281    0.094798    0.586645
      2          6           0        8.653700    0.103116   -0.182298
      3          6           0       12.598245    2.672049   -1.494936
      4          6           0       15.457605   -0.564794    0.680984
      5          6           0       11.595597   -2.884111    2.346373
      6          7           0       10.802683    1.186092   -0.702676
      7          6           0        9.397724    1.170418   -0.729754
      8          6           0        8.825116    2.396097   -1.538696
      9          6           0       10.121137    3.138290   -1.984838
     10          6           0       11.254473    2.319843   -1.310977
     11          6           0       10.348901    3.304091   -3.465930
     12          6           0        7.772857    3.279908   -0.677962
     13          6           0        6.418064    3.524554   -1.353859
     14          1           0        6.064396    5.046283   -1.545214
     15          7           0       13.821072    1.031603   -0.183468
     16          6           0       13.816850    2.070673   -1.024599
     17          6           0       15.175183    2.459025   -1.408284
     18          6           0       15.999031    1.431703   -0.831374
     19          6           0       15.102055    0.551573   -0.075140
     20          6           0       15.477441    3.629485   -2.241886
     21          6           0       17.530134    1.293601   -1.102429
     22          8           0       18.211336    0.448930   -0.545620
     23          6           0       18.271473    2.195303   -2.037160
     24          7           0       13.301049   -1.452320    1.381011
     25          6           0       14.691516   -1.428927    1.396453
     26          6           0       15.263403   -2.631365    2.216984
     27          6           0       14.004576   -3.136596    3.015999
     28          6           0       12.889559   -2.420034    2.254658
     29          6           0       16.095575   -3.709386    1.449018
     30          6           0       14.006146   -2.745722    4.519292
     31          6           0       13.505577   -3.747926    5.528616
     32          7           0       10.500304   -1.188359    0.973341
     33          6           0       10.435280   -2.345547    1.696286
     34          6           0        8.969234   -2.756108    1.826583
     35          6           0        8.243354   -1.802884    1.154132
     36          6           0        9.219484   -0.910048    0.592634
     37          6           0        8.521670   -3.933787    2.662169
     38          6           0        6.930235   -1.353179    0.727538
     39          8           0        5.863287   -1.932690    1.019583
     40          6           0        7.146647   -0.081094   -0.289759
     41          6           0        6.756923   -0.345745   -1.729072
     42          8           0        7.228668   -1.318644   -2.350182
     43          8           0        5.723020    0.484133   -2.164686
     44          6           0        5.068537   -0.029753   -3.362238
     45          1           0       12.798000    3.576902   -2.072323
     46          1           0       16.544116   -0.666933    0.710092
     47          1           0       11.481783   -3.744730    3.009524
     48          1           0        8.292607    1.908134   -2.354810
     49          1           0        9.959814    4.174252   -1.683588
     50          1           0        9.578813    2.830158   -4.074726
     51          1           0       11.221193    2.661691   -3.581604
     52          1           0       10.412822    4.346700   -3.778807
     53          1           0        8.322279    4.205520   -0.508546
     54          1           0        7.667525    2.838223    0.312600
     55          1           0        5.677387    2.976641   -0.771376
     56          1           0        6.434967    3.091616   -2.354866
     57          1           0       16.050185    3.513532   -3.161475
     58          1           0       16.223943    4.180142   -1.670642
     59          1           0       14.672274    4.358228   -2.337910
     60          1           0       18.154894    3.194584   -1.615987
     61          1           0       17.724972    2.179978   -2.980551
     62          1           0       19.286115    1.801540   -2.081741
     63          1           0       15.947034   -2.157135    2.921194
     64          1           0       13.812985   -4.200409    2.877650
     65          1           0       16.210965   -3.292295    0.448865
     66          1           0       15.660270   -4.708128    1.466585
     67          1           0       17.132332   -3.744550    1.785966
     68          1           0       13.336319   -1.889269    4.444788
     69          1           0       14.958518   -2.369750    4.893658
     70          1           0       14.205921   -3.696158    6.362329
     71          1           0       13.524732   -4.773940    5.159741
     72          1           0       12.576383   -3.334707    5.921758
     73          1           0        9.419986   -4.396488    3.070465
     74          1           0        8.081156   -4.673764    1.994349
     75          1           0        7.787952   -3.602870    3.396910
     76          1           0        6.625364    0.780945    0.126488
     77          1           0        4.049724   -0.387264   -3.219471
     78          1           0        5.622369   -0.820574   -3.868377
     79          1           0        5.028500    0.802819   -4.064137
     80         12           0      -11.609646   -0.376114   -0.583829
     81          6           0      -11.264790    2.511018    1.408313
     82          6           0       -8.642188    0.390495   -1.944398
     83          6           0      -11.801541   -3.318592   -1.992948
     84          6           0      -14.340895   -1.248603    1.549130
     85          7           0      -10.116075    1.253537   -0.248068
     86          6           0      -10.182302    2.360948    0.528460
     87          6           0       -8.999586    3.293234    0.361052
     88          6           0       -8.342602    2.673598   -0.937159
     89          6           0       -9.039128    1.337073   -1.088090
     90          6           0       -8.479231    3.560694   -2.242814
     91          6           0       -7.930929    3.509195    1.519595
     92          6           0       -7.835861    2.539159    2.727114
     93          1           0       -6.415615    2.280479    3.355409
     94          7           0      -10.393249   -1.253105   -1.931678
     95          6           0       -9.179972   -0.857185   -2.292539
     96          6           0       -8.568920   -1.902956   -3.157493
     97          6           0       -9.617143   -2.952667   -3.300627
     98          6           0      -10.661741   -2.525991   -2.369127
     99          6           0       -7.254810   -1.742779   -3.873281
    100          6           0       -9.497338   -4.210590   -4.120576
    101          8           0       -8.488063   -4.376469   -4.801134
    102          6           0      -10.538779   -5.389628   -4.140691
    103          7           0      -12.867087   -2.167076   -0.188339
    104          6           0      -12.770725   -3.106054   -1.064784
    105          6           0      -13.944115   -4.145851   -0.779983
    106          6           0      -14.546791   -3.553181    0.495438
    107          6           0      -13.860554   -2.211381    0.664488
    108          6           0      -14.980711   -4.425718   -1.880852
    109          6           0      -14.183586   -4.385872    1.831633
    110          6           0      -15.354236   -5.092872    2.539011
    111          7           0      -12.592464    0.364012    1.148387
    112          6           0      -13.729538   -0.010731    1.814087
    113          6           0      -14.189606    1.075569    2.717605
    114          6           0      -13.168843    2.067673    2.695847
    115          6           0      -12.292304    1.596351    1.625117
    116          6           0      -15.401842    1.042495    3.674948
    117          6           0      -12.680057    3.301323    3.214905
    118          8           0      -13.001739    4.029609    4.169389
    119          6           0      -11.455534    3.690954    2.348328
    120          6           0      -11.775724    5.047681    1.714227
    121          8           0      -11.380548    6.162586    1.929748
    122          8           0      -12.547564    4.809895    0.571756
    123          6           0      -12.891322    5.983510   -0.289816
    124          1           0       -7.670708    0.660471   -2.364126
    125          1           0      -11.842261   -4.274787   -2.520241
    126          1           0      -15.319976   -1.413414    2.002969
    127          1           0       -9.442738    4.248385    0.079845
    128          1           0       -7.271747    2.551567   -0.773782
    129          1           0       -9.067856    4.455975   -2.045412
    130          1           0       -9.122264    2.935035   -2.860844
    131          1           0       -7.490014    3.764207   -2.653266
    132          1           0       -8.085787    4.518032    1.902395
    133          1           0       -6.935900    3.551207    1.075297
    134          1           0       -8.229165    1.587809    2.368789
    135          1           0       -8.323911    2.908907    3.628363
    136          1           0       -7.099752   -2.481850   -4.659024
    137          1           0       -6.488819   -1.697150   -3.098244
    138          1           0       -7.292626   -0.720480   -4.250990
    139          1           0      -11.595840   -5.204635   -4.335428
    140          1           0      -10.561173   -5.833995   -3.145629
    141          1           0      -10.279734   -6.152136   -4.874687
    142          1           0      -13.553965   -5.148432   -0.608006
    143          1           0      -15.629237   -3.438756    0.562748
    144          1           0      -14.767088   -3.865681   -2.791390
    145          1           0      -15.997762   -4.240879   -1.533480
    146          1           0      -14.982508   -5.460791   -2.222507
    147          1           0      -13.748392   -3.747096    2.598967
    148          1           0      -13.433374   -5.114423    1.523472
    149          1           0      -15.275634   -5.160477    3.624353
    150          1           0      -15.329814   -6.118622    2.171229
    151          1           0      -16.218172   -4.495563    2.247316
    152          1           0      -15.840029    0.057309    3.831255
    153          1           0      -16.137981    1.681179    3.187422
    154          1           0      -15.116616    1.542899    4.600007
    155          1           0      -10.577570    3.784807    2.986590
    156          1           0      -13.000913    6.960750    0.179878
    157          1           0      -13.884351    5.732684   -0.662277
    158          1           0      -12.304046    6.156567   -1.191854
 ---------------------------------------------------------------------

 SCF Done:  E(RCAM-B3LYP) =  -4069.78217013     A.U. after   18 cycles

 Excitation energies and oscillator strengths:

 Excited State   1:      Singlet-A      1.6980 eV  730.19 nm  f=0.4362  <S**2>=0.000
     310 -> 316        0.17292
     312 -> 314        0.68795
     310 <- 316        0.10776
 This state for optimization and/or second-order correction.
 Total Energy, E(TD-HF/TD-DFT) =  -4069.71977109
 Copying the excited state density for this state as the 1-particle RhoCI density.

 Excited State   2:      Singlet-A      1.7689 eV  700.93 nm  f=0.3981  <S**2>=0.000
     309 -> 315        0.18500
     311 -> 313        0.68334
     309 <- 315        0.10628

 Excited State   3:      Singlet-A      2.2832 eV  543.03 nm  f=0.0955  <S**2>=0.000
     309 -> 313        0.62492
     310 -> 314       -0.12343
     311 -> 315       -0.29042

 Excited State   4:      Singlet-A      2.2867 eV  542.20 nm  f=0.0953  <S**2>=0.000
     309 -> 313        0.12406
     310 -> 314        0.61786
     312 -> 316       -0.30701

 Excited State   5:      Singlet-A      2.8349 eV  437.35 nm  f=0.0000  <S**2>=0.000
     312 -> 313        0.70705

 The electronic state is 1-A.
 Alpha  occ. eigenvalues --  -46.90035 -46.88357 -19.26674 -19.24581 -19.20826
 Alpha  occ. eigenvalues --  -19.20396 -19.19899 -19.19437 -19.18561 -19.18526
 Alpha  occ. eigenvalues --  -14.42543 -14.42283 -14.41808 -14.41626 -14.40404
 Alpha  occ. eigenvalues --  -14.40130 -14.39659 -14.39344 -10.40809 -10.39860
 Alpha  occ. eigenvalues --  -10.36477 -10.35661 -10.35567 -10.34905 -10.31856
 Alpha  occ. eigenvalues --  -10.31717 -10.31570 -10.31488 -10.31089 -10.30993
 Alpha  occ. eigenvalues --  -10.30936 -10.30738 -10.30697 -10.30625 -10.30312
 Alpha  occ. eigenvalues --  -10.30143 -10.30096 -10.30077 -10.30068 -10.29929
 Alpha  occ. eigenvalues --  -10.29834 -10.29757 -10.29478 -10.29353 -10.29112
 Alpha  occ. eigenvalues --  -10.28994 -10.28941 -10.28838 -10.28765 -10.28721
 Alpha  occ. eigenvalues --  -10.28543 -10.28214 -10.28023 -10.27989 -10.27878
 Alpha  occ. eigenvalues --  -10.27789 -10.27696 -10.27591 -10.27524 -10.27442
 Alpha  occ. eigenvalues --  -10.27341 -10.27339 -10.27274 -10.27211 -10.27198
 Alpha  occ. eigenvalues --  -10.27157 -10.27058 -10.27056 -10.26920 -10.26803
 Alpha  occ. eigenvalues --  -10.26565 -10.26529 -10.26482 -10.26343 -10.26311
 Alpha  occ. eigenvalues --  -10.26149 -10.26127 -10.26112 -10.25896 -10.25757
 Alpha  occ. eigenvalues --  -10.25695 -10.25509 -10.25479 -10.25404 -10.25340
 Alpha  occ. eigenvalues --  -10.25194  -3.18513  -3.17009  -1.93402  -1.92968
 Alpha  occ. eigenvalues --   -1.92817  -1.91890  -1.91448  -1.91337  -1.16317
 Alpha  occ. eigenvalues --   -1.16040  -1.10089  -1.09530  -1.09301  -1.09014
 Alpha  occ. eigenvalues --   -1.07932  -1.07261  -1.06713  -1.04793  -1.03979
 Alpha  occ. eigenvalues --   -1.03896  -1.03273  -1.03271  -1.02621  -1.01860
 Alpha  occ. eigenvalues --   -0.93555  -0.92609  -0.89775  -0.89093  -0.88793
 Alpha  occ. eigenvalues --   -0.88726  -0.88583  -0.88270  -0.88011  -0.87306
 Alpha  occ. eigenvalues --   -0.87206  -0.86873  -0.86097  -0.85376  -0.84861
 Alpha  occ. eigenvalues --   -0.84267  -0.83927  -0.83639  -0.82870  -0.82697
 Alpha  occ. eigenvalues --   -0.81916  -0.81761  -0.81182  -0.80784  -0.80512
 Alpha  occ. eigenvalues --   -0.80209  -0.78487  -0.78409  -0.77686  -0.77585
 Alpha  occ. eigenvalues --   -0.76998  -0.76908  -0.76665  -0.76202  -0.75340
 Alpha  occ. eigenvalues --   -0.74684  -0.73289  -0.72425  -0.72369  -0.70949
 Alpha  occ. eigenvalues --   -0.69538  -0.69232  -0.68977  -0.68661  -0.68383
 Alpha  occ. eigenvalues --   -0.67897  -0.67493  -0.66826  -0.66697  -0.65665
 Alpha  occ. eigenvalues --   -0.65484  -0.65316  -0.64972  -0.64874  -0.64846
 Alpha  occ. eigenvalues --   -0.64331  -0.63143  -0.62570  -0.60574  -0.60267
 Alpha  occ. eigenvalues --   -0.60170  -0.59751  -0.59435  -0.58895  -0.58523
 Alpha  occ. eigenvalues --   -0.58502  -0.58310  -0.58056  -0.57297  -0.57290
 Alpha  occ. eigenvalues --   -0.56340  -0.56235  -0.55848  -0.55667  -0.55405
 Alpha  occ. eigenvalues --   -0.55094  -0.55043  -0.54901  -0.54508  -0.53920
 Alpha  occ. eigenvalues --   -0.53748  -0.53585  -0.53495  -0.53111  -0.52982
 Alpha  occ. eigenvalues --   -0.52798  -0.52579  -0.52438  -0.51989  -0.51813
 Alpha  occ. eigenvalues --   -0.51735  -0.51596  -0.51509  -0.51464  -0.51252
 Alpha  occ. eigenvalues --   -0.51220  -0.51115  -0.51077  -0.50802  -0.50588
 Alpha  occ. eigenvalues --   -0.50229  -0.49986  -0.49769  -0.49583  -0.49460
 Alpha  occ. eigenvalues --   -0.49349  -0.49139  -0.48998  -0.48851  -0.48770
 Alpha  occ. eigenvalues --   -0.48604  -0.48528  -0.48484  -0.48300  -0.48268
 Alpha  occ. eigenvalues --   -0.48123  -0.47931  -0.47869  -0.47603  -0.47404
 Alpha  occ. eigenvalues --   -0.47215  -0.47207  -0.47001  -0.46906  -0.46734
 Alpha  occ. eigenvalues --   -0.46618  -0.46461  -0.46245  -0.46063  -0.46001
 Alpha  occ. eigenvalues --   -0.45925  -0.45870  -0.45654  -0.45503  -0.45345
 Alpha  occ. eigenvalues --   -0.45330  -0.44838  -0.44549  -0.44305  -0.44177
 Alpha  occ. eigenvalues --   -0.44121  -0.44012  -0.43888  -0.43796  -0.43591
 Alpha  occ. eigenvalues --   -0.43551  -0.43264  -0.43176  -0.43097  -0.42974
 Alpha  occ. eigenvalues --   -0.42827  -0.42650  -0.42645  -0.42236  -0.42037
 Alpha  occ. eigenvalues --   -0.41982  -0.41703  -0.41686  -0.41435  -0.41217
 Alpha  occ. eigenvalues --   -0.41102  -0.40890  -0.40763  -0.40653  -0.40537
 Alpha  occ. eigenvalues --   -0.40157  -0.39938  -0.39482  -0.39204  -0.39112
 Alpha  occ. eigenvalues --   -0.38822  -0.38273  -0.38177  -0.37788  -0.37627
 Alpha  occ. eigenvalues --   -0.37407  -0.37394  -0.36862  -0.36645  -0.36399
 Alpha  occ. eigenvalues --   -0.36278  -0.36088  -0.35127  -0.34991  -0.34414
 Alpha  occ. eigenvalues --   -0.34234  -0.33615  -0.32862  -0.31880  -0.31526
 Alpha  occ. eigenvalues --   -0.31386  -0.31365  -0.31016  -0.30927  -0.30675
 Alpha  occ. eigenvalues --   -0.30364  -0.29758  -0.29235  -0.24461  -0.24147
 Alpha  occ. eigenvalues --   -0.21500  -0.20754
 Alpha virt. eigenvalues --   -0.08881  -0.08402  -0.01999  -0.01294  -0.00587
 Alpha virt. eigenvalues --   -0.00018   0.01214   0.01810   0.01903   0.02350
 Alpha virt. eigenvalues --    0.02829   0.04352   0.04547   0.04993   0.05476

 Mulliken charges:
               1
     1  Mg  12.003064
     2  C    6.028837
     3  C    5.978071
     4  C    5.980987
     5  C    6.024942
     6  N    7.006644
     7  C    5.959136
     8  C    6.010666
     9  C    5.986383
    10  C    6.034465
    11  C    5.999205
    12  C    6.004780
    13  C    6.003043
    14  H    0.989422
    15  N    6.992053
    16  C    6.045136
    17  C    6.023795
    18  C    6.011967
    19  C    6.043909
    20  C    5.991607
    21  C    6.013001
    22  O    8.023834
    23  C    5.997683
    24  N    7.000665
    25  C    6.031390
    26  C    5.991625
    27  C    6.009950
    28  C    5.966373
    29  C    6.001833
    30  C    6.001582
    31  C    6.002272
    32  N    7.002444
    33  C    5.951816
    34  C    5.968947
    35  C    5.997515
    36  C    5.961058
    37  C    6.004870
    38  C    5.983531
    39  O    7.970775
    40  C    5.993597
    41  C    5.994531
    42  O    7.996505
    43  O    7.997104
    44  C    6.003785
    45  H    1.008166
    46  H    1.008092
    47  H    0.990821
    48  H    0.998140
    49  H    1.005850
    50  H    1.012741
    51  H    0.993084
    52  H    1.002296
    53  H    0.988152
    54  H    1.004392
    55  H    1.003714
    56  H    0.998037
    57  H    1.024373
    58  H    1.020647
    59  H    1.020421
    60  H    1.005579
    61  H    1.005168
    62  H    1.014965
    63  H    1.000067
    64  H    1.000651
    65  H    0.994401
    66  H    1.012277
    67  H    1.001823
    68  H    1.000797
    69  H    0.987235
    70  H    0.994741
    71  H    0.998818
    72  H    1.004095
    73  H    0.979542
    74  H    0.978667
    75  H    0.979975
    76  H    0.991092
    77  H    0.996907
    78  H    0.996568
    79  H    0.992909
    80  Mg  12.000088
    81  C    6.000799
    82  C    5.999358
    83  C    5.999028
    84  C    6.000612
    85  N    7.000061
    86  C    5.998818
    87  C    6.000402
    88  C    5.999599
    89  C    6.001060
    90  C    5.999902
    91  C    5.999922
    92  C    5.999886
    93  H    1.000827
    94  N    6.999528
    95  C    6.001800
    96  C    6.001363
    97  C    6.000083
    98  C    6.001734
    99  C    5.999884
   100  C    6.000420
   101  O    8.000867
   102  C    5.999924
   103  N    7.000090
   104  C    6.001074
   105  C    5.999754
   106  C    6.000141
   107  C    5.998812
   108  C    6.000052
   109  C    6.000300
   110  C    6.000008
   111  N    7.000223
   112  C    5.998567
   113  C    5.998779
   114  C    5.999643
   115  C    5.998939
   116  C    6.000081
   117  C    5.999327
   118  O    7.998539
   119  C    6.000021
   120  C    5.999921
   121  O    7.999552
   122  O    8.000158
   123  C    6.000294
   124  H    1.000849
   125  H    1.000204
   126  H    0.999433
   127  H    0.999673
   128  H    1.000687
   129  H    1.000194
   130  H    0.999604
   131  H    1.000300
   132  H    0.999782
   133  H    1.000071
   134  H    0.999874
   135  H    0.999918
   136  H    1.000684
   137  H    1.001738
   138  H    1.000643
   139  H    1.000084
   140  H    1.000497
   141  H    1.000345
   142  H    1.000031
   143  H    0.999763
   144  H    0.999763
   145  H    1.000117
   146  H    0.999877
   147  H    1.000257
   148  H    0.999645
   149  H    0.999933
   150  H    0.999671
   151  H    0.999839
   152  H    0.999165
   153  H    0.999006
   154  H    0.999340
   155  H    0.999818
   156  H    0.999652
   157  H    0.999715
   158  H    0.999591
 Sum of Mulliken charges = 624.00000

 Dipole moment (field-independent basis, Debye):
    X=              9.8682    Y=              4.9949    Z=             -3.6275  Tot=             11.6400
 Quadrupole moment (field-independent basis, Debye-Ang):
   XX=            222.4877   YY=             -1.6520   ZZ=             -2.7810
   XY=             64.2687   XZ=            -38.0961   YZ=              1.8475

 Normal termination of Gaussian 16 at Wed Sep 22 16:28:40 2021.
