 Gaussian 16, Revision A.03,
 Gaussian 16:  ES64L-G16RevA.03 25-Dec-2016

 -----------------------------------
 #p cam-b3lyp/Def2SVP td=(nstates=5)
 -----------------------------------

 --------------------------------
 TDDFT excited states in gaussian
 --------------------------------
 Symbolic Z-matrix:
 Charge =  0 Multiplicity = 1

                         Standard orientation:
 ---------------------------------------------------------------------
 Center     Atomic      Atomic             Coordinates (Angstroms)
 Number     Number       Type             X           Y           Z
 ---------------------------------------------------------------------
      1         12           0      -20.943724    0.493364   -0.374199
      2          6           0      -18.213482   -1.608624    0.069152
      3          6           0      -22.971031   -2.387326    0.260783
      4          6           0      -23.595911    2.432856   -0.276433
      5          6           0      -18.754215    3.240696   -0.247948
      6          7           0      -20.604020   -1.695491    0.224820
      7          6           0      -19.369225   -2.304426    0.240756
      8          6           0      -19.516955   -3.785577    0.599418
      9          6           0      -21.036195   -4.016022    0.369129
     10          6           0      -21.604981   -2.622366    0.318999
     11          6           0      -21.490715   -4.832456   -0.903907
     12          6           0      -19.058662   -4.108261    2.031149
     13          6           0      -19.016345   -5.546384    2.382093
     14          1           0      -18.087539   -5.965170    3.585019
     15          7           0      -23.032780    0.098102   -0.038499
     16          6           0      -23.657913   -1.140626    0.173303
     17          6           0      -25.070238   -0.910456    0.297649
     18          6           0      -25.263337    0.520112    0.280235
     19          6           0      -23.911052    1.088792   -0.050379
     20          6           0      -26.090113   -2.048021    0.579959
     21          6           0      -26.634901    1.172620    0.480331
     22          8           0      -27.662130    0.515852    0.518644
     23          6           0      -26.715666    2.644598    0.622626
     24          7           0      -21.122545    2.547684   -0.499300
     25          6           0      -22.342668    3.094882   -0.480621
     26          6           0      -22.219849    4.670920   -0.411525
     27          6           0      -20.675082    4.981291   -0.343945
     28          6           0      -20.111544    3.457117   -0.308459
     29          6           0      -22.991805    5.497756   -1.473165
     30          6           0      -20.340008    5.746294    0.954322
     31          6           0      -19.134411    6.689717    0.863868
     32          7           0      -18.885897    0.841533   -0.142544
     33          6           0      -18.129009    1.975752   -0.236343
     34          6           0      -16.713047    1.589159   -0.244742
     35          6           0      -16.719987    0.220289   -0.221803
     36          6           0      -18.023415   -0.203050   -0.093324
     37          6           0      -15.519939    2.536793   -0.405476
     38          6           0      -15.874688   -0.935106   -0.187667
     39          8           0      -14.676842   -1.063689   -0.251005
     40          6           0      -16.813284   -2.175311   -0.011681
     41          6           0      -16.681693   -3.014294   -1.234480
     42          8           0      -16.751492   -2.650213   -2.375542
     43          8           0      -16.598953   -4.362097   -0.843958
     44          6           0      -16.547369   -5.316374   -1.914770
     45          1           0      -23.501050   -3.335529    0.368113
     46          1           0      -24.377803    3.195722   -0.283764
     47          1           0      -18.041953    4.068037   -0.277876
     48          1           0      -18.975396   -4.332067   -0.171509
     49          1           0      -21.578128   -4.477868    1.193680
     50          1           0      -22.158414   -5.593887   -0.501354
     51          1           0      -20.738195   -5.058670   -1.659792
     52          1           0      -22.153837   -4.175378   -1.466404
     53          1           0      -19.703935   -3.736367    2.827488
     54          1           0      -18.079585   -3.665348    2.214061
     55          1           0      -18.707607   -6.077239    1.481552
     56          1           0      -20.031399   -5.889386    2.581625
     57          1           0      -26.259508   -1.815356    1.631763
     58          1           0      -25.684186   -3.059596    0.601210
     59          1           0      -27.038336   -2.151227    0.052076
     60          1           0      -25.965976    2.887427    1.375677
     61          1           0      -27.692572    2.896385    1.035686
     62          1           0      -26.483400    3.007496   -0.378904
     63          1           0      -22.685237    4.954678    0.532824
     64          1           0      -20.266910    5.497290   -1.212410
     65          1           0      -23.848952    5.959014   -0.981583
     66          1           0      -23.230999    4.845925   -2.312749
     67          1           0      -22.384418    6.344791   -1.792025
     68          1           0      -20.169061    4.968361    1.697996
     69          1           0      -21.181325    6.296371    1.376344
     70          1           0      -19.559440    7.653144    1.147482
     71          1           0      -18.630778    6.691630   -0.102883
     72          1           0      -18.398567    6.436583    1.627221
     73          1           0      -14.672915    2.365972    0.258134
     74          1           0      -15.986440    3.509176   -0.245757
     75          1           0      -15.300294    2.561295   -1.472951
     76          1           0      -16.457774   -2.703121    0.873347
     77          1           0      -15.534385   -5.718919   -1.917678
     78          1           0      -16.800990   -5.000363   -2.926942
     79          1           0      -17.266919   -6.100982   -1.682380
     80         12           0       20.604058    0.609677   -0.210107
     81          6           0       19.715726   -2.669504    0.147244
     82          6           0       17.307477    1.455876    0.828704
     83          6           0       21.552367    3.847682   -0.165957
     84          6           0       23.955175   -0.338865   -0.296216
     85          7           0       18.774064   -0.552788    0.805091
     86          6           0       18.611466   -1.888273    0.588855
     87          6           0       17.265847   -2.326713    1.096821
     88          6           0       16.478627   -0.968788    1.353474
     89          6           0       17.548216    0.102189    0.969835
     90          6           0       15.054528   -0.939829    0.933206
     91          6           0       17.172099   -3.394332    2.287107
     92          6           0       18.260361   -3.402338    3.319381
     93          1           0       17.828996   -3.419804    4.779145
     94          7           0       19.508755    2.387551    0.032654
     95          6           0       18.211735    2.535213    0.415656
     96          6           0       17.834007    3.913539    0.521306
     97          6           0       19.063649    4.646649    0.109194
     98          6           0       20.119121    3.620253   -0.034796
     99          6           0       16.545709    4.477164    0.890891
    100          6           0       19.252387    6.139038   -0.122117
    101          8           0       18.402513    6.903437    0.169620
    102          6           0       20.499767    6.816001   -0.618692
    103          7           0       22.457863    1.583609   -0.097138
    104          6           0       22.555891    2.909597   -0.277409
    105          6           0       24.091860    3.394787   -0.127812
    106          6           0       24.812794    2.024531   -0.554557
    107          6           0       23.698651    1.052595   -0.246977
    108          6           0       24.499684    4.593612   -0.988731
    109          6           0       26.169375    1.820939    0.143923
    110          6           0       27.409418    1.406014   -0.656682
    111          7           0       21.657881   -1.139204    0.011663
    112          6           0       23.015818   -1.417328   -0.082827
    113          6           0       23.261816   -2.806896   -0.095919
    114          6           0       22.004275   -3.386590   -0.062669
    115          6           0       21.031999   -2.326607    0.003865
    116          6           0       24.581332   -3.505525   -0.211157
    117          6           0       21.221147   -4.550390   -0.109164
    118          8           0       21.619058   -5.711849   -0.172066
    119          6           0       19.741966   -4.178678    0.195321
    120          6           0       18.976626   -4.862815   -0.927853
    121          8           0       18.003606   -5.625919   -0.749869
    122          8           0       19.461479   -4.370652   -2.116668
    123          6           0       18.784933   -4.629984   -3.411083
    124          1           0       16.327730    1.647732    1.270990
    125          1           0       21.874106    4.868423    0.050346
    126          1           0       25.003017   -0.628569   -0.395384
    127          1           0       16.774780   -2.904094    0.312649
    128          1           0       16.445431   -0.845025    2.435531
    129          1           0       14.792371   -0.057791    0.349046
    130          1           0       14.374636   -1.116884    1.766587
    131          1           0       14.869309   -1.757982    0.237138
    132          1           0       17.164650   -4.433940    1.959394
    133          1           0       16.299147   -3.173316    2.902074
    134          1           0       19.070251   -2.697331    3.134892
    135          1           0       18.724241   -4.388384    3.277935
    136          1           0       15.760645    3.790934    0.574840
    137          1           0       16.349699    5.459213    0.462125
    138          1           0       16.542830    4.561304    1.978234
    139          1           0       20.815152    5.983750   -1.248422
    140          1           0       21.224666    7.004479    0.172587
    141          1           0       20.374759    7.744298   -1.176374
    142          1           0       24.250032    3.542260    0.940951
    143          1           0       25.012200    1.846122   -1.610918
    144          1           0       25.113126    4.203898   -1.801541
    145          1           0       24.894475    5.393320   -0.362743
    146          1           0       23.653772    5.081515   -1.472053
    147          1           0       26.009418    1.067870    0.916007
    148          1           0       26.380715    2.717737    0.726516
    149          1           0       28.333154    1.967789   -0.517212
    150          1           0       27.208006    1.287181   -1.722106
    151          1           0       27.514009    0.358768   -0.374868
    152          1           0       24.553419   -4.444778   -0.764066
    153          1           0       24.954063   -3.704289    0.793931
    154          1           0       25.330694   -2.925032   -0.750876
    155          1           0       19.579872   -4.627552    1.174533
    156          1           0       18.798329   -3.763364   -4.071830
    157          1           0       17.750707   -4.904428   -3.202711
    158          1           0       19.123953   -5.432377   -4.065122
 ---------------------------------------------------------------------

 SCF Done:  E(RCAM-B3LYP) =  -4069.76277025     A.U. after   19 cycles

 Excitation energies and oscillator strengths:

 Excited State   1:      Singlet-A      1.6347 eV  758.45 nm  f=0.3875  <S**2>=0.000
     310 -> 315        0.16911
     311 -> 313        0.68879
     310 <- 315        0.10872
 This state for optimization and/or second-order correction.
 Total Energy, E(TD-HF/TD-DFT) =  -4069.70269558
 Copying the excited state density for this state as the 1-particle RhoCI density.

 Excited State   2:      Singlet-A      1.7655 eV  702.27 nm  f=0.3969  <S**2>=0.000
     309 -> 316       -0.17238
     312 -> 314        0.68747
     309 <- 316       -0.10344

 Excited State   3:      Singlet-A      2.1488 eV  576.99 nm  f=0.1474  <S**2>=0.000
     310 -> 313        0.65208
     311 -> 315       -0.25547

 Excited State   4:      Singlet-A      2.2942 eV  540.41 nm  f=0.1178  <S**2>=0.000
     309 -> 314        0.63740
     312 -> 316        0.29060

 Excited State   5:      Singlet-A      3.0363 eV  408.34 nm  f=0.0000  <S**2>=0.000
     312 -> 313        0.70710

 The electronic state is 1-A.
 Alpha  occ. eigenvalues --  -46.89942 -46.89659 -19.26214 -19.24943 -19.20495
 Alpha  occ. eigenvalues --  -19.20316 -19.18690 -19.18525 -19.18471 -19.17233
 Alpha  occ. eigenvalues --  -14.42656 -14.42576 -14.42343 -14.42028 -14.40225
 Alpha  occ. eigenvalues --  -14.40048 -14.39654 -14.39094 -10.40469 -10.39504
 Alpha  occ. eigenvalues --  -10.34858 -10.34270 -10.34152 -10.33571 -10.32813
 Alpha  occ. eigenvalues --  -10.32359 -10.32085 -10.31601 -10.31592 -10.31223
 Alpha  occ. eigenvalues --  -10.31176 -10.31117 -10.31075 -10.31004 -10.30921
 Alpha  occ. eigenvalues --  -10.30754 -10.30691 -10.30561 -10.30170 -10.29541
 Alpha  occ. eigenvalues --  -10.29383 -10.29231 -10.28892 -10.28849 -10.28586
 Alpha  occ. eigenvalues --  -10.28456 -10.28424 -10.28347 -10.28291 -10.28247
 Alpha  occ. eigenvalues --  -10.28229 -10.28193 -10.28185 -10.28167 -10.27959
 Alpha  occ. eigenvalues --  -10.27951 -10.27902 -10.27797 -10.27786 -10.27744
 Alpha  occ. eigenvalues --  -10.27741 -10.27523 -10.27513 -10.27503 -10.27411
 Alpha  occ. eigenvalues --  -10.27225 -10.26920 -10.26797 -10.26788 -10.26773
 Alpha  occ. eigenvalues --  -10.26721 -10.26686 -10.26535 -10.26497 -10.26403
 Alpha  occ. eigenvalues --  -10.26342 -10.26239 -10.26221 -10.26075 -10.26057
 Alpha  occ. eigenvalues --  -10.26054 -10.25624 -10.25508 -10.25160 -10.25073
 Alpha  occ. eigenvalues --  -10.23982  -3.18414  -3.18080  -1.93272  -1.92987
 Alpha  occ. eigenvalues --   -1.92906  -1.92689  -1.92539  -1.92368  -1.16617
 Alpha  occ. eigenvalues --   -1.15674  -1.11410  -1.10336  -1.10116  -1.09351
 Alpha  occ. eigenvalues --   -1.08827  -1.07245  -1.05164  -1.04593  -1.04360
 Alpha  occ. eigenvalues --   -1.03789  -1.03720  -1.02932  -1.02822  -1.02152
 Alpha  occ. eigenvalues --   -0.93688  -0.93264  -0.89841  -0.89414  -0.89232
 Alpha  occ. eigenvalues --   -0.88837  -0.88731  -0.88401  -0.88092  -0.87940
 Alpha  occ. eigenvalues --   -0.87249  -0.86458  -0.85947  -0.85884  -0.85212
 Alpha  occ. eigenvalues --   -0.84549  -0.84047  -0.83996  -0.83162  -0.83097
 Alpha  occ. eigenvalues --   -0.82586  -0.82176  -0.81299  -0.80982  -0.80851
 Alpha  occ. eigenvalues --   -0.80589  -0.78517  -0.77805  -0.77759  -0.77351
 Alpha  occ. eigenvalues --   -0.77111  -0.76990  -0.76695  -0.76205  -0.75526
 Alpha  occ. eigenvalues --   -0.75475  -0.73586  -0.73246  -0.72045  -0.71753
 Alpha  occ. eigenvalues --   -0.70034  -0.69389  -0.69335  -0.69071  -0.68403
 Alpha  occ. eigenvalues --   -0.67788  -0.66765  -0.66568  -0.66274  -0.66097
 Alpha  occ. eigenvalues --   -0.65579  -0.65492  -0.64979  -0.64713  -0.64615
 Alpha  occ. eigenvalues --   -0.64400  -0.63595  -0.62696  -0.60282  -0.60239
 Alpha  occ. eigenvalues --   -0.59897  -0.59395  -0.59312  -0.58889  -0.58854
 Alpha  occ. eigenvalues --   -0.58458  -0.58064  -0.57623  -0.57572  -0.57219
 Alpha  occ. eigenvalues --   -0.56531  -0.56504  -0.55902  -0.55798  -0.55477
 Alpha  occ. eigenvalues --   -0.55327  -0.55110  -0.54929  -0.54466  -0.54388
 Alpha  occ. eigenvalues --   -0.54026  -0.53971  -0.53572  -0.53318  -0.53273
 Alpha  occ. eigenvalues --   -0.53186  -0.53149  -0.52645  -0.52509  -0.52078
 Alpha  occ. eigenvalues --   -0.51906  -0.51847  -0.51804  -0.51723  -0.51656
 Alpha  occ. eigenvalues --   -0.51350  -0.51080  -0.50841  -0.50736  -0.50695
 Alpha  occ. eigenvalues --   -0.50592  -0.50366  -0.50286  -0.49981  -0.49876
 Alpha  occ. eigenvalues --   -0.49712  -0.49463  -0.49317  -0.49184  -0.49046
 Alpha  occ. eigenvalues --   -0.48998  -0.48859  -0.48297  -0.48230  -0.48102
 Alpha  occ. eigenvalues --   -0.47869  -0.47560  -0.47540  -0.47379  -0.47306
 Alpha  occ. eigenvalues --   -0.47222  -0.47154  -0.47094  -0.47083  -0.46899
 Alpha  occ. eigenvalues --   -0.46466  -0.46414  -0.46402  -0.46148  -0.46143
 Alpha  occ. eigenvalues --   -0.45808  -0.45617  -0.45529  -0.45326  -0.45317
 Alpha  occ. eigenvalues --   -0.45131  -0.45018  -0.44884  -0.44674  -0.44167
 Alpha  occ. eigenvalues --   -0.44154  -0.44001  -0.43913  -0.43693  -0.43382
 Alpha  occ. eigenvalues --   -0.43318  -0.43236  -0.43072  -0.42956  -0.42715
 Alpha  occ. eigenvalues --   -0.42707  -0.42639  -0.42381  -0.42373  -0.42294
 Alpha  occ. eigenvalues --   -0.42073  -0.42033  -0.41944  -0.41862  -0.41725
 Alpha  occ. eigenvalues --   -0.41540  -0.41485  -0.41287  -0.40609  -0.40564
 Alpha  occ. eigenvalues --   -0.40263  -0.40225  -0.39918  -0.39714  -0.39031
 Alpha  occ. eigenvalues --   -0.38818  -0.38674  -0.38046  -0.37984  -0.37674
 Alpha  occ. eigenvalues --   -0.37364  -0.36906  -0.36879  -0.36519  -0.36146
 Alpha  occ. eigenvalues --   -0.36089  -0.35602  -0.35247  -0.34780  -0.34245
 Alpha  occ. eigenvalues --   -0.33862  -0.33723  -0.33081  -0.31764  -0.31567
 Alpha  occ. eigenvalues --   -0.31035  -0.30892  -0.30654  -0.30503  -0.30123
 Alpha  occ. eigenvalues --   -0.29947  -0.29544  -0.28348  -0.24667  -0.24459
 Alpha  occ. eigenvalues --   -0.21716  -0.21662
 Alpha virt. eigenvalues --   -0.09662  -0.09031  -0.01955  -0.01939   0.00148
 Alpha virt. eigenvalues --    0.00919   0.01004   0.02031   0.02696   0.02730
 Alpha virt. eigenvalues --    0.04416   0.04575   0.04918   0.05400   0.05823

 Mulliken charges:
               1
     1  Mg   0.819365
     2  C    0.006845
     3  C   -0.063022
     4  C   -0.089706
     5  C   -0.063098
     6  N   -0.263993
     7  C   -0.106203
     8  C    0.076808
     9  C   -0.101731
    10  C    0.006151
    11  C    0.083474
    12  C    0.079414
    13  C   -0.054130
    14  H    0.025167
    15  N   -0.352378
    16  C    0.164032
    17  C   -0.119947
    18  C   -0.079712
    19  C    0.210325
    20  C    0.108913
    21  C   -0.024743
    22  O   -0.198841
    23  C    0.067346
    24  N   -0.318188
    25  C    0.038759
    26  C   -0.072136
    27  C   -0.046002
    28  C    0.073380
    29  C    0.071530
    30  C    0.009603
    31  C    0.015620
    32  N   -0.337705
    33  C    0.071515
    34  C   -0.219921
    35  C    0.070810
    36  C    0.099101
    37  C    0.148647
    38  C    0.009768
    39  O   -0.147641
    40  C   -0.000607
    41  C    0.189455
    42  O   -0.181737
    43  O   -0.348333
    44  C    0.164107
    45  H   -0.031017
    46  H   -0.042642
    47  H   -0.031346
    48  H   -0.002958
    49  H    0.005808
    50  H    0.021131
    51  H    0.026170
    52  H    0.008142
    53  H    0.004407
    54  H    0.011781
    55  H    0.014315
    56  H    0.017991
    57  H    0.035810
    58  H   -0.003335
    59  H    0.050466
    60  H    0.031116
    61  H    0.030866
    62  H    0.058542
    63  H    0.015106
    64  H    0.017518
    65  H    0.014320
    66  H    0.028260
    67  H    0.012875
    68  H    0.008933
    69  H    0.006504
    70  H    0.015383
    71  H    0.022920
    72  H    0.016399
    73  H    0.047929
    74  H   -0.016024
    75  H    0.035041
    76  H    0.042160
    77  H    0.038415
    78  H    0.044904
    79  H    0.023747
    80  Mg   0.824970
    81  C    0.019341
    82  C   -0.076936
    83  C   -0.075330
    84  C   -0.091273
    85  N   -0.272170
    86  C   -0.046281
    87  C    0.019093
    88  C   -0.037940
    89  C    0.011844
    90  C    0.090854
    91  C    0.034503
    92  C   -0.113662
    93  H    0.011943
    94  N   -0.363520
    95  C    0.155781
    96  C   -0.164895
    97  C   -0.053248
    98  C    0.113995
    99  C    0.136375
   100  C   -0.034857
   101  O   -0.178685
   102  C    0.046385
   103  N   -0.288420
   104  C    0.057803
   105  C   -0.083513
   106  C   -0.035968
   107  C    0.048044
   108  C    0.096431
   109  C    0.030981
   110  C    0.010224
   111  N   -0.351626
   112  C    0.123530
   113  C   -0.172834
   114  C    0.107910
   115  C    0.078497
   116  C    0.118788
   117  C   -0.023679
   118  O   -0.180960
   119  C   -0.040759
   120  C    0.244532
   121  O   -0.225252
   122  O   -0.349256
   123  C    0.180455
   124  H   -0.016025
   125  H   -0.017642
   126  H   -0.037910
   127  H    0.015043
   128  H    0.022359
   129  H    0.014252
   130  H    0.019060
   131  H    0.005523
   132  H    0.034707
   133  H    0.020766
   134  H    0.042968
   135  H    0.033978
   136  H    0.010825
   137  H    0.039558
   138  H    0.029656
   139  H    0.015083
   140  H    0.048990
   141  H    0.031106
   142  H    0.029314
   143  H    0.016126
   144  H    0.016698
   145  H    0.016730
   146  H    0.012750
   147  H    0.006063
   148  H    0.002102
   149  H    0.033148
   150  H    0.005107
   151  H    0.010957
   152  H    0.037294
   153  H    0.037043
   154  H    0.010942
   155  H    0.037020
   156  H    0.035834
   157  H    0.037947
   158  H    0.041414
 Sum of Mulliken charges =  -0.00000

 Dipole moment (field-independent basis, Debye):
    X=              0.3226    Y=              3.3917    Z=             -2.1681  Tot=              4.0383
 Quadrupole moment (field-independent basis, Debye-Ang):
   XX=           -329.1553   YY=           -528.6482   ZZ=           -503.9061
   XY=             35.4072   XZ=            -52.7125   YZ=              5.5325

 Normal termination of Gaussian 16 at Thu Sep 16 11:01:46 2021.
