 Gaussian 16, Revision A.03,
 Gaussian 16:  ES64L-G16RevA.03 25-Dec-2016

 -----------------------------------
 #p cam-b3lyp/Def2SVP td=(nstates=5)
 -----------------------------------

 --------------------------------
 TDDFT excited states in gaussian
 --------------------------------
 Symbolic Z-matrix:
 Charge =  0 Multiplicity = 1

                         Standard orientation:
 ---------------------------------------------------------------------
 Center     Atomic      Atomic             Coordinates (Angstroms)
 Number     Number       Type             X           Y           Z
 ---------------------------------------------------------------------
      1         12           0       18.596015   -0.126099    0.272633
      2          6           0       15.495707   -1.640766   -0.393753
      3          6           0       19.258935   -0.167578   -3.100935
      4          6           0       21.095151    1.947706    0.904458
      5          6           0       17.673915    0.091170    3.696136
      6          7           0       17.400957   -0.587025   -1.527112
      7          6           0       16.128979   -1.213463   -1.579561
      8          6           0       15.821412   -1.773447   -2.906907
      9          6           0       17.107541   -1.368267   -3.748633
     10          6           0       18.011279   -0.690934   -2.730519
     11          6           0       17.703556   -2.561244   -4.534503
     12          6           0       14.633309   -1.161987   -3.584738
     13          6           0       14.425760    0.347081   -3.387761
     14          1           0       13.849299    1.255672   -4.542466
     15          7           0       20.044971    0.768249   -0.918201
     16          6           0       20.196616    0.513552   -2.231896
     17          6           0       21.411686    1.146019   -2.680843
     18          6           0       22.014339    1.709875   -1.529356
     19          6           0       21.075818    1.473222   -0.420652
     20          6           0       21.901182    1.209255   -4.102694
     21          6           0       23.365558    2.423035   -1.489130
     22          8           0       24.030234    2.564331   -2.496952
     23          6           0       23.994000    3.120119   -0.318974
     24          7           0       19.143341    1.078787    1.973730
     25          6           0       20.282266    1.838693    2.001101
     26          6           0       20.654423    2.260299    3.460635
     27          6           0       19.357514    1.895774    4.244716
     28          6           0       18.689428    0.954330    3.266683
     29          6           0       21.883102    1.541474    4.068379
     30          6           0       18.300935    3.081963    4.447211
     31          6           0       17.730608    3.247131    5.809229
     32          7           0       17.055403   -0.712184    1.444665
     33          6           0       16.933634   -0.718824    2.778961
     34          6           0       15.869332   -1.707102    3.197822
     35          6           0       15.331512   -2.115066    1.935776
     36          6           0       15.987462   -1.372642    0.913422
     37          6           0       15.416281   -2.145646    4.582990
     38          6           0       14.251714   -2.858681    1.353725
     39          8           0       13.363798   -3.512898    1.877319
     40          6           0       14.344315   -2.595593   -0.203482
     41          6           0       13.109052   -1.809758   -0.591694
     42          8           0       12.837674   -0.692699   -0.297548
     43          8           0       12.372146   -2.583044   -1.463315
     44          6           0       11.302239   -1.846737   -2.144106
     45          1           0       19.546636   -0.361610   -4.136144
     46          1           0       22.008364    2.484885    1.165920
     47          1           0       17.531904    0.080693    4.778796
     48          1           0       15.654819   -2.843425   -2.782474
     49          1           0       16.982755   -0.537608   -4.443205
     50          1           0       17.825279   -2.106512   -5.517773
     51          1           0       16.965489   -3.362773   -4.502290
     52          1           0       18.688947   -2.859180   -4.175702
     53          1           0       13.708917   -1.724014   -3.448976
     54          1           0       14.645697   -1.226782   -4.672963
     55          1           0       15.400629    0.722547   -3.074863
     56          1           0       13.788814    0.372907   -2.503429
     57          1           0       22.225264    2.218007   -4.360748
     58          1           0       21.135898    0.821133   -4.774746
     59          1           0       22.763218    0.541832   -4.113448
     60          1           0       23.470449    4.007929    0.034231
     61          1           0       24.896860    3.522451   -0.778647
     62          1           0       24.375693    2.432438    0.436440
     63          1           0       20.866202    3.329416    3.451873
     64          1           0       19.550929    1.392126    5.192185
     65          1           0       21.540512    0.892704    4.874299
     66          1           0       22.704946    2.232405    4.255517
     67          1           0       22.299929    0.874704    3.314394
     68          1           0       17.488711    3.010253    3.724217
     69          1           0       18.867177    3.977472    4.190645
     70          1           0       17.881111    4.246856    6.216133
     71          1           0       18.101243    2.516217    6.528275
     72          1           0       16.647928    3.123969    5.811590
     73          1           0       14.354888   -1.906303    4.648490
     74          1           0       16.106632   -1.715249    5.309484
     75          1           0       15.463431   -3.234488    4.571366
     76          1           0       14.431854   -3.519428   -0.774854
     77          1           0       11.534446   -0.791336   -2.285953
     78          1           0       10.450940   -1.962071   -1.473147
     79          1           0       11.052733   -2.437641   -3.024983
     80         12           0      -18.366196    0.587257    0.106842
     81          6           0      -15.492392   -1.496166   -0.162743
     82          6           0      -20.117084   -2.125949    1.288153
     83          6           0      -20.941743    2.653812    0.228440
     84          6           0      -16.566009    3.186730   -1.602365
     85          7           0      -17.876026   -1.658361    0.469865
     86          6           0      -16.599227   -2.179637    0.368044
     87          6           0      -16.693903   -3.661840    0.868221
     88          6           0      -18.235736   -3.893028    1.311270
     89          6           0      -18.772629   -2.493933    0.992572
     90          6           0      -18.963394   -5.079636    0.645719
     91          6           0      -15.612407   -4.136716    1.924464
     92          6           0      -14.769006   -5.307384    1.510384
     93          1           0      -15.231678   -6.372406    0.551498
     94          7           0      -20.321039    0.321199    0.828152
     95          6           0      -20.828336   -0.866356    1.252601
     96          6           0      -22.128763   -0.567454    1.794911
     97          6           0      -22.428168    0.758528    1.414450
     98          6           0      -21.220058    1.350752    0.753328
     99          6           0      -22.959076   -1.678178    2.459994
    100          6           0      -23.755352    1.448457    1.508040
    101          8           0      -23.935205    2.592962    1.028448
    102          6           0      -24.900864    0.740658    2.131148
    103          7           0      -18.671800    2.643333   -0.678851
    104          6           0      -19.773468    3.257479   -0.420424
    105          6           0      -19.867823    4.814411   -0.861139
    106          6           0      -18.461398    4.955182   -1.463057
    107          6           0      -17.864430    3.584749   -1.255873
    108          6           0      -21.056228    5.004430   -1.873425
    109          6           0      -17.547165    6.085105   -0.871678
    110          6           0      -16.981893    5.845480    0.548453
    111          7           0      -16.539073    0.755734   -0.795508
    112          6           0      -15.983099    1.872197   -1.463355
    113          6           0      -14.592205    1.544090   -1.804653
    114          6           0      -14.358412    0.240055   -1.305961
    115          6           0      -15.566597   -0.186361   -0.657753
    116          6           0      -13.591956    2.492065   -2.531601
    117          6           0      -13.380387   -0.708269   -1.202607
    118          8           0      -12.243109   -0.758357   -1.624839
    119          6           0      -14.004299   -1.887295   -0.404916
    120          6           0      -13.830587   -3.100012   -1.170597
    121          8           0      -14.619348   -3.511976   -2.028685
    122          8           0      -12.540165   -3.604065   -0.969130
    123          6           0      -12.184464   -4.742603   -1.851907
    124          1           0      -20.833328   -2.938792    1.427793
    125          1           0      -21.842075    3.263607    0.127583
    126          1           0      -15.972926    3.943038   -2.120640
    127          1           0      -16.380744   -4.152041   -0.052684
    128          1           0      -18.260907   -4.150094    2.369291
    129          1           0      -19.367568   -5.755835    1.400132
    130          1           0      -18.391362   -5.665970   -0.073173
    131          1           0      -19.778573   -4.608487    0.096532
    132          1           0      -16.095046   -4.367252    2.874411
    133          1           0      -14.929215   -3.294169    2.031812
    134          1           0      -14.717229   -5.967595    2.376875
    135          1           0      -13.801984   -4.922726    1.188272
    136          1           0      -22.349109   -2.539785    2.732397
    137          1           0      -23.753024   -1.996177    1.785474
    138          1           0      -23.371565   -1.208942    3.352596
    139          1           0      -24.596840    0.480186    3.144983
    140          1           0      -25.119836   -0.194412    1.614167
    141          1           0      -25.804530    1.345999    2.072564
    142          1           0      -19.986956    5.465681    0.005097
    143          1           0      -18.534288    5.001521   -2.549871
    144          1           0      -21.178703    4.069376   -2.419958
    145          1           0      -20.767034    5.769496   -2.594804
    146          1           0      -22.030974    5.283228   -1.472290
    147          1           0      -18.029916    7.053727   -0.997475
    148          1           0      -16.702655    6.206356   -1.549338
    149          1           0      -17.604434    5.272233    1.234610
    150          1           0      -16.688227    6.810859    0.962200
    151          1           0      -16.042581    5.316204    0.389018
    152          1           0      -12.629790    2.569744   -2.025234
    153          1           0      -13.991896    3.490682   -2.703773
    154          1           0      -13.220118    1.993000   -3.426813
    155          1           0      -13.381120   -1.897739    0.488706
    156          1           0      -12.078436   -4.408768   -2.883780
    157          1           0      -12.930595   -5.535522   -1.888686
    158          1           0      -11.336468   -5.240437   -1.381312
 ---------------------------------------------------------------------

 SCF Done:  E(RCAM-B3LYP) =  -4069.79931519     A.U. after   19 cycles

 Excitation energies and oscillator strengths:

 Excited State   1:      Singlet-A      1.6650 eV  744.63 nm  f=0.3820  <S**2>=0.000
     309 -> 315        0.17252
     312 -> 313        0.68780
     309 <- 315        0.10781
 This state for optimization and/or second-order correction.
 Total Energy, E(TD-HF/TD-DFT) =  -4069.73812578
 Copying the excited state density for this state as the 1-particle RhoCI density.

 Excited State   2:      Singlet-A      1.7535 eV  707.08 nm  f=0.3702  <S**2>=0.000
     310 -> 316       -0.18841
     311 -> 314        0.68191
     310 <- 316       -0.10759

 Excited State   3:      Singlet-A      2.2093 eV  561.20 nm  f=0.1087  <S**2>=0.000
     310 -> 314        0.64206
     311 -> 316        0.28092

 Excited State   4:      Singlet-A      2.2661 eV  547.12 nm  f=0.1010  <S**2>=0.000
     309 -> 313        0.62925
     312 -> 315       -0.31014

 Excited State   5:      Singlet-A      3.1315 eV  395.92 nm  f=0.0000  <S**2>=0.000
     311 -> 313        0.70710

 The electronic state is 1-A.
 Alpha  occ. eigenvalues --  -46.89790 -46.88549 -19.24560 -19.24237 -19.20386
 Alpha  occ. eigenvalues --  -19.19263 -19.19089 -19.18746 -19.18222 -19.17496
 Alpha  occ. eigenvalues --  -14.42648 -14.42343 -14.41855 -14.41855 -14.39737
 Alpha  occ. eigenvalues --  -14.39649 -14.39563 -14.39503 -10.39203 -10.38581
 Alpha  occ. eigenvalues --  -10.35041 -10.34957 -10.34577 -10.33271 -10.31876
 Alpha  occ. eigenvalues --  -10.31690 -10.31390 -10.31386 -10.31177 -10.31072
 Alpha  occ. eigenvalues --  -10.30915 -10.30870 -10.30784 -10.30756 -10.30627
 Alpha  occ. eigenvalues --  -10.30552 -10.30437 -10.30174 -10.29917 -10.29826
 Alpha  occ. eigenvalues --  -10.29333 -10.29286 -10.28798 -10.28748 -10.28684
 Alpha  occ. eigenvalues --  -10.28489 -10.28469 -10.28349 -10.28301 -10.28248
 Alpha  occ. eigenvalues --  -10.28089 -10.28078 -10.28031 -10.28020 -10.27961
 Alpha  occ. eigenvalues --  -10.27953 -10.27949 -10.27924 -10.27787 -10.27713
 Alpha  occ. eigenvalues --  -10.27660 -10.27403 -10.27377 -10.27308 -10.27200
 Alpha  occ. eigenvalues --  -10.27108 -10.27011 -10.26998 -10.26720 -10.26590
 Alpha  occ. eigenvalues --  -10.26569 -10.26537 -10.26477 -10.26454 -10.26363
 Alpha  occ. eigenvalues --  -10.26331 -10.26304 -10.25975 -10.25963 -10.25943
 Alpha  occ. eigenvalues --  -10.25843 -10.25484 -10.25464 -10.25343 -10.25097
 Alpha  occ. eigenvalues --  -10.23868  -3.18125  -3.17194  -1.93040  -1.92616
 Alpha  occ. eigenvalues --   -1.92382  -1.92056  -1.91654  -1.91513  -1.17222
 Alpha  occ. eigenvalues --   -1.14323  -1.10382  -1.09916  -1.09217  -1.08917
 Alpha  occ. eigenvalues --   -1.08438  -1.06280  -1.06083  -1.04552  -1.03963
 Alpha  occ. eigenvalues --   -1.03671  -1.03307  -1.03004  -1.02596  -1.01674
 Alpha  occ. eigenvalues --   -0.93149  -0.92252  -0.89832  -0.89721  -0.89402
 Alpha  occ. eigenvalues --   -0.88358  -0.88257  -0.87797  -0.87494  -0.87225
 Alpha  occ. eigenvalues --   -0.86764  -0.86305  -0.85775  -0.85449  -0.84714
 Alpha  occ. eigenvalues --   -0.84293  -0.84139  -0.83344  -0.82679  -0.82509
 Alpha  occ. eigenvalues --   -0.82197  -0.81660  -0.80843  -0.80645  -0.80482
 Alpha  occ. eigenvalues --   -0.80019  -0.78295  -0.77918  -0.77550  -0.77475
 Alpha  occ. eigenvalues --   -0.76815  -0.76414  -0.76010  -0.75699  -0.75105
 Alpha  occ. eigenvalues --   -0.74950  -0.72673  -0.72495  -0.71660  -0.71530
 Alpha  occ. eigenvalues --   -0.70438  -0.69597  -0.69009  -0.68777  -0.68656
 Alpha  occ. eigenvalues --   -0.67810  -0.67056  -0.66885  -0.65837  -0.65288
 Alpha  occ. eigenvalues --   -0.65049  -0.64877  -0.64614  -0.64504  -0.64348
 Alpha  occ. eigenvalues --   -0.64206  -0.62060  -0.61386  -0.60200  -0.59975
 Alpha  occ. eigenvalues --   -0.59474  -0.59385  -0.59029  -0.58910  -0.58577
 Alpha  occ. eigenvalues --   -0.58105  -0.58101  -0.57909  -0.57496  -0.57350
 Alpha  occ. eigenvalues --   -0.56531  -0.56253  -0.56068  -0.55992  -0.55385
 Alpha  occ. eigenvalues --   -0.55241  -0.55064  -0.54921  -0.54573  -0.54039
 Alpha  occ. eigenvalues --   -0.53563  -0.53213  -0.53007  -0.52986  -0.52823
 Alpha  occ. eigenvalues --   -0.52809  -0.52597  -0.52347  -0.52251  -0.52097
 Alpha  occ. eigenvalues --   -0.51994  -0.51588  -0.51523  -0.51386  -0.51260
 Alpha  occ. eigenvalues --   -0.51133  -0.50896  -0.50778  -0.50427  -0.50104
 Alpha  occ. eigenvalues --   -0.49822  -0.49571  -0.49481  -0.49368  -0.49220
 Alpha  occ. eigenvalues --   -0.49220  -0.49185  -0.48927  -0.48905  -0.48833
 Alpha  occ. eigenvalues --   -0.48738  -0.48572  -0.48542  -0.48333  -0.47951
 Alpha  occ. eigenvalues --   -0.47899  -0.47526  -0.47477  -0.47284  -0.47164
 Alpha  occ. eigenvalues --   -0.47077  -0.46874  -0.46751  -0.46707  -0.46581
 Alpha  occ. eigenvalues --   -0.46485  -0.46344  -0.46134  -0.45973  -0.45849
 Alpha  occ. eigenvalues --   -0.45792  -0.45471  -0.45457  -0.45193  -0.44899
 Alpha  occ. eigenvalues --   -0.44647  -0.44566  -0.44342  -0.44193  -0.44016
 Alpha  occ. eigenvalues --   -0.43869  -0.43751  -0.43718  -0.43567  -0.43415
 Alpha  occ. eigenvalues --   -0.43200  -0.43173  -0.42772  -0.42693  -0.42490
 Alpha  occ. eigenvalues --   -0.42448  -0.42349  -0.42335  -0.42169  -0.42094
 Alpha  occ. eigenvalues --   -0.41874  -0.41833  -0.41791  -0.41552  -0.41346
 Alpha  occ. eigenvalues --   -0.41226  -0.41113  -0.41088  -0.40743  -0.40559
 Alpha  occ. eigenvalues --   -0.40366  -0.40090  -0.39795  -0.39746  -0.39126
 Alpha  occ. eigenvalues --   -0.39088  -0.38419  -0.37847  -0.37295  -0.37006
 Alpha  occ. eigenvalues --   -0.36912  -0.36600  -0.36407  -0.36335  -0.36065
 Alpha  occ. eigenvalues --   -0.35727  -0.35462  -0.35063  -0.34197  -0.33905
 Alpha  occ. eigenvalues --   -0.33640  -0.33018  -0.32994  -0.31347  -0.31286
 Alpha  occ. eigenvalues --   -0.31179  -0.31067  -0.30510  -0.30299  -0.29932
 Alpha  occ. eigenvalues --   -0.29874  -0.29623  -0.29527  -0.24279  -0.23761
 Alpha  occ. eigenvalues --   -0.21215  -0.21016
 Alpha virt. eigenvalues --   -0.08749  -0.08513  -0.01757  -0.01755   0.00170
 Alpha virt. eigenvalues --    0.00248   0.01409   0.02353   0.02553   0.02613
 Alpha virt. eigenvalues --    0.05041   0.05092   0.05462   0.05567   0.05930

 Mulliken charges:
               1
     1  Mg   0.832691
     2  C   -0.065557
     3  C   -0.081979
     4  C   -0.051841
     5  C   -0.084160
     6  N   -0.298281
     7  C   -0.025746
     8  C    0.018486
     9  C   -0.084316
    10  C    0.035839
    11  C    0.085084
    12  C    0.007994
    13  C   -0.055362
    14  H    0.025577
    15  N   -0.351554
    16  C    0.137558
    17  C   -0.183566
    18  C   -0.001227
    19  C    0.138264
    20  C    0.160175
    21  C   -0.032222
    22  O   -0.208034
    23  C    0.057976
    24  N   -0.289645
    25  C    0.015896
    26  C   -0.027186
    27  C   -0.062474
    28  C    0.016125
    29  C    0.089651
    30  C    0.056719
    31  C    0.010158
    32  N   -0.344920
    33  C    0.137350
    34  C   -0.195341
    35  C   -0.004393
    36  C    0.133850
    37  C    0.146232
    38  C    0.051148
    39  O   -0.169651
    40  C    0.007105
    41  C    0.187090
    42  O   -0.181032
    43  O   -0.345679
    44  C    0.175610
    45  H   -0.026739
    46  H   -0.055843
    47  H   -0.024830
    48  H    0.014651
    49  H    0.028508
    50  H    0.016095
    51  H    0.023464
    52  H    0.024260
    53  H   -0.006851
    54  H   -0.001103
    55  H    0.031090
    56  H    0.037590
    57  H    0.042117
    58  H   -0.001144
    59  H    0.032037
    60  H    0.043726
    61  H    0.018191
    62  H    0.031536
    63  H    0.006897
    64  H    0.007241
    65  H    0.018853
    66  H    0.023670
    67  H    0.006577
    68  H    0.033423
    69  H   -0.000416
    70  H    0.016081
    71  H    0.005035
    72  H    0.013795
    73  H    0.046520
    74  H    0.016132
    75  H    0.034344
    76  H    0.034154
    77  H    0.056380
    78  H    0.035546
    79  H    0.036609
    80  Mg   0.811768
    81  C    0.029198
    82  C   -0.077362
    83  C   -0.042147
    84  C   -0.081033
    85  N   -0.244493
    86  C   -0.056740
    87  C   -0.021354
    88  C   -0.055009
    89  C    0.051343
    90  C    0.065161
    91  C    0.043244
    92  C   -0.087145
    93  H    0.017135
    94  N   -0.401989
    95  C    0.117229
    96  C   -0.164251
    97  C   -0.023784
    98  C    0.133578
    99  C    0.120919
   100  C   -0.011719
   101  O   -0.231023
   102  C    0.068117
   103  N   -0.203156
   104  C   -0.004724
   105  C   -0.058820
   106  C    0.082960
   107  C   -0.064792
   108  C    0.045414
   109  C    0.013633
   110  C    0.021062
   111  N   -0.385615
   112  C    0.134159
   113  C   -0.166518
   114  C    0.054436
   115  C    0.106903
   116  C    0.127402
   117  C   -0.040172
   118  O   -0.163424
   119  C    0.002742
   120  C    0.206308
   121  O   -0.235971
   122  O   -0.349677
   123  C    0.191039
   124  H   -0.014120
   125  H    0.003582
   126  H   -0.032100
   127  H    0.035336
   128  H    0.018434
   129  H    0.012695
   130  H    0.029369
   131  H    0.013523
   132  H    0.007442
   133  H    0.012032
   134  H    0.024970
   135  H    0.041488
   136  H    0.024806
   137  H    0.041255
   138  H    0.023644
   139  H    0.030377
   140  H    0.029311
   141  H    0.031541
   142  H    0.025037
   143  H    0.007605
   144  H    0.023932
   145  H    0.014044
   146  H    0.042000
   147  H    0.005546
   148  H    0.000357
   149  H    0.029208
   150  H    0.017372
   151  H    0.017735
   152  H    0.021205
   153  H    0.010603
   154  H    0.028622
   155  H    0.044101
   156  H    0.045777
   157  H    0.025239
   158  H    0.035197
 Sum of Mulliken charges =  -0.00000

 Dipole moment (field-independent basis, Debye):
    X=             -1.3394    Y=             -0.5737    Z=              4.2958  Tot=              4.5362
 Quadrupole moment (field-independent basis, Debye-Ang):
   XX=           -384.4389   YY=           -486.8636   ZZ=           -486.9986
   XY=              2.3673   XZ=             -4.1925   YZ=              4.9568

 Normal termination of Gaussian 16 at Tue Sep 14 18:24:17 2021.
