 Gaussian 16, Revision A.03,
 Gaussian 16:  ES64L-G16RevA.03 25-Dec-2016

 ----------------------------------------------------------
 #p cam-b3lyp/Def2SVP td=(nstates=5) density=(transition=1)
 ----------------------------------------------------------

 --------------------------------
 TDDFT excited states in gaussian
 --------------------------------
 Symbolic Z-matrix:
 Charge =  0 Multiplicity = 1

                         Standard orientation:
 ---------------------------------------------------------------------
 Center     Atomic      Atomic             Coordinates (Angstroms)
 Number     Number       Type             X           Y           Z
 ---------------------------------------------------------------------
      1         12           0       19.271272   -0.691894   -0.124922
      2          6           0       21.239120    2.130827    0.362083
      3          6           0       17.216565    0.336030    2.339031
      4          6           0       17.847088   -3.759137   -0.071452
      5          6           0       21.884422   -2.080578   -2.073448
      6          7           0       19.263788    1.071133    1.067173
      7          6           0       20.039434    2.209827    1.050580
      8          6           0       19.545284    3.220427    2.122026
      9          6           0       18.651213    2.304421    3.013510
     10          6           0       18.255576    1.203084    2.040948
     11          6           0       19.375460    1.698841    4.267040
     12          6           0       18.967322    4.442756    1.385502
     13          6           0       19.341707    5.746148    1.981622
     14          1           0       19.210764    6.894118    1.086561
     15          7           0       17.617252   -1.473483    0.825627
     16          6           0       16.869159   -0.848197    1.771070
     17          6           0       15.639243   -1.581259    1.936603
     18          6           0       15.827718   -2.810713    1.207868
     19          6           0       17.192305   -2.753085    0.675652
     20          6           0       14.527051   -1.137999    2.818060
     21          6           0       14.931923   -4.086698    1.089790
     22          8           0       15.245639   -5.063093    0.405889
     23          6           0       13.557618   -4.133193    1.696991
     24          7           0       20.005140   -2.729982   -0.691579
     25          6           0       19.099259   -3.825300   -0.666153
     26          6           0       19.596649   -5.024824   -1.402729
     27          6           0       20.763950   -4.342274   -2.187250
     28          6           0       20.858198   -2.912478   -1.661196
     29          6           0       20.021969   -6.216100   -0.479035
     30          6           0       20.544932   -4.325175   -3.744261
     31          6           0       19.183487   -3.761629   -4.225156
     32          7           0       21.127430   -0.094902   -0.838757
     33          6           0       22.058727   -0.744847   -1.663361
     34          6           0       23.132446    0.158006   -1.848316
     35          6           0       22.825913    1.286682   -1.098409
     36          6           0       21.623615    1.072788   -0.509127
     37          6           0       24.317730   -0.072037   -2.730832
     38          6           0       23.335241    2.507878   -0.680839
     39          8           0       24.421239    3.048533   -0.958590
     40          6           0       22.346308    3.197214    0.306911
     41          6           0       21.987305    4.533424   -0.415049
     42          8           0       21.312691    4.633097   -1.455364
     43          8           0       22.556771    5.577605    0.305629
     44          6           0       22.574368    6.941366   -0.312758
     45          1           0       16.685361    0.725951    3.209888
     46          1           0       17.466485   -4.760983   -0.284352
     47          1           0       22.616700   -2.370467   -2.829955
     48          1           0       20.391292    3.636304    2.668181
     49          1           0       17.746790    2.846978    3.287140
     50          1           0       20.398744    2.033579    4.439546
     51          1           0       19.511391    0.624678    4.148028
     52          1           0       18.824254    1.988231    5.161527
     53          1           0       17.888411    4.379782    1.520152
     54          1           0       19.268995    4.371071    0.340185
     55          1           0       20.402141    5.664545    2.220772
     56          1           0       18.802224    5.863744    2.921220
     57          1           0       14.592647   -0.072547    3.037714
     58          1           0       14.453466   -1.839135    3.650061
     59          1           0       13.583928   -1.234441    2.280064
     60          1           0       13.368268   -5.195346    1.853825
     61          1           0       12.810654   -3.760402    0.995777
     62          1           0       13.519191   -3.629253    2.663238
     63          1           0       18.887242   -5.423043   -2.129524
     64          1           0       21.691784   -4.867752   -1.958914
     65          1           0       20.220558   -5.832854    0.522222
     66          1           0       20.911695   -6.772649   -0.773977
     67          1           0       19.284112   -7.008848   -0.352355
     68          1           0       20.737995   -5.343890   -4.080921
     69          1           0       21.392040   -3.744266   -4.108869
     70          1           0       19.294630   -2.898363   -4.881600
     71          1           0       18.619924   -3.501706   -3.328656
     72          1           0       18.599730   -4.492672   -4.783734
     73          1           0       25.190304    0.046425   -2.088491
     74          1           0       24.269206    0.650761   -3.545256
     75          1           0       24.405666   -1.076384   -3.145331
     76          1           0       22.888093    3.426382    1.224160
     77          1           0       23.143832    6.845306   -1.236917
     78          1           0       23.015666    7.754100    0.264064
     79          1           0       21.497503    7.032864   -0.454779
     80         12           0      -19.862445   -0.443794    0.144770
     81          6           0      -19.551508    2.655045   -1.223300
     82          6           0      -19.471655    0.844406    3.310953
     83          6           0      -20.008092   -3.604828    1.347856
     84          6           0      -19.778748   -1.773553   -3.128835
     85          7           0      -19.323167    1.516209    0.933282
     86          6           0      -19.580335    2.639181    0.210892
     87          6           0      -19.691754    3.869607    1.045851
     88          6           0      -19.394863    3.232796    2.500963
     89          6           0      -19.392358    1.758981    2.259295
     90          6           0      -18.012987    3.732810    3.122604
     91          6           0      -21.182060    4.439116    0.929704
     92          6           0      -21.393060    5.921650    1.244637
     93          1           0      -20.351895    6.821776    1.955446
     94          7           0      -19.860120   -1.306165    2.050212
     95          6           0      -19.660751   -0.584306    3.238344
     96          6           0      -19.677815   -1.540548    4.320939
     97          6           0      -19.862334   -2.825329    3.770802
     98          6           0      -19.965460   -2.585092    2.338018
     99          6           0      -19.569071   -1.082528    5.794101
    100          6           0      -19.853714   -4.243395    4.549028
    101          8           0      -20.164923   -5.308288    4.000740
    102          6           0      -19.505334   -4.409815    6.018949
    103          7           0      -19.959235   -2.437229   -0.812744
    104          6           0      -19.971081   -3.559244   -0.054108
    105          6           0      -19.743675   -4.809205   -0.902646
    106          6           0      -20.006150   -4.232685   -2.411027
    107          6           0      -20.026391   -2.718723   -2.148105
    108          6           0      -18.376770   -5.594514   -0.646759
    109          6           0      -21.434997   -4.577767   -3.073508
    110          6           0      -21.498028   -5.138162   -4.482456
    111          7           0      -19.753198    0.225059   -1.830969
    112          6           0      -19.715420   -0.387028   -3.027522
    113          6           0      -19.719218    0.635617   -4.120132
    114          6           0      -19.710822    1.852029   -3.397125
    115          6           0      -19.604499    1.511313   -2.026518
    116          6           0      -19.770879    0.484812   -5.599369
    117          6           0      -19.712510    3.248651   -3.623592
    118          8           0      -19.736828    3.892771   -4.692466
    119          6           0      -19.604485    3.840742   -2.220640
    120          6           0      -18.394228    4.625991   -2.137921
    121          8           0      -17.260144    4.334248   -2.356691
    122          8           0      -18.768225    5.858696   -1.611219
    123          6           0      -17.761505    6.948107   -1.312766
    124          1           0      -19.581193    1.195150    4.338886
    125          1           0      -19.957192   -4.623321    1.739297
    126          1           0      -19.554434   -2.110401   -4.142475
    127          1           0      -19.041919    4.729691    0.885602
    128          1           0      -20.182870    3.483067    3.211226
    129          1           0      -18.001902    3.877902    4.202599
    130          1           0      -17.665101    4.601665    2.564095
    131          1           0      -17.288698    2.940521    2.930654
    132          1           0      -21.873282    3.881976    1.562387
    133          1           0      -21.474157    4.255960   -0.104645
    134          1           0      -22.323239    5.968763    1.812311
    135          1           0      -21.635931    6.440127    0.317896
    136          1           0      -19.535830   -0.001189    5.926492
    137          1           0      -18.676766   -1.557226    6.200866
    138          1           0      -20.425030   -1.503445    6.322113
    139          1           0      -20.335029   -3.942629    6.548172
    140          1           0      -18.699938   -3.746664    6.335287
    141          1           0      -19.196432   -5.434694    6.223610
    142          1           0      -20.555396   -5.505085   -0.687271
    143          1           0      -19.229747   -4.570092   -3.097934
    144          1           0      -17.784027   -5.665655   -1.559038
    145          1           0      -18.584664   -6.588054   -0.251209
    146          1           0      -17.743730   -5.046132    0.051243
    147          1           0      -22.124563   -3.736055   -3.011009
    148          1           0      -21.902338   -5.307386   -2.412872
    149          1           0      -22.130916   -4.460970   -5.054953
    150          1           0      -21.867308   -6.162732   -4.517358
    151          1           0      -20.511786   -5.078812   -4.944913
    152          1           0      -19.886189   -0.539738   -5.952686
    153          1           0      -18.858209    0.862878   -6.060751
    154          1           0      -20.612212    1.068063   -5.973103
    155          1           0      -20.454714    4.477970   -1.975687
    156          1           0      -16.749920    6.596176   -1.516258
    157          1           0      -17.792506    7.192837   -0.250205
    158          1           0      -18.037987    7.781189   -1.958956
 ---------------------------------------------------------------------

 SCF Done:  E(RCAM-B3LYP) =  -4069.81520981     A.U. after   19 cycles

 Excitation energies and oscillator strengths:

 Excited State   1:      Singlet-A      1.6607 eV  746.56 nm  f=0.3766  <S**2>=0.000
     309 -> 316        0.16223
     311 -> 313        0.68893
     309 <- 316        0.10409
 This state for optimization and/or second-order correction.
 Total Energy, E(TD-HF/TD-DFT) =  -4069.75417878
 Copying the excited state density for this state as the 1-particle RhoCI density.

 Excited State   2:      Singlet-A      1.7389 eV  713.01 nm  f=0.3981  <S**2>=0.000
     310 -> 315       -0.19175
     312 -> 314        0.68294
     310 <- 315       -0.10976

 Excited State   3:      Singlet-A      2.2190 eV  558.74 nm  f=0.1247  <S**2>=0.000
     309 -> 313        0.64335
     311 -> 316       -0.27223

 Excited State   4:      Singlet-A      2.2287 eV  556.30 nm  f=0.1054  <S**2>=0.000
     310 -> 314        0.63896
     312 -> 315        0.29486

 Excited State   5:      Singlet-A      3.0702 eV  403.83 nm  f=0.0000  <S**2>=0.000
     312 -> 313        0.70710

 The electronic state is 1-A.
 Alpha  occ. eigenvalues --  -46.89422 -46.88318 -19.24740 -19.23707 -19.20006
 Alpha  occ. eigenvalues --  -19.19615 -19.19216 -19.18802 -19.18732 -19.17651
 Alpha  occ. eigenvalues --  -14.42500 -14.41939 -14.41692 -14.41479 -14.39573
 Alpha  occ. eigenvalues --  -14.39413 -14.39344 -14.38501 -10.40025 -10.38676
 Alpha  occ. eigenvalues --  -10.36252 -10.35282 -10.34496 -10.33633 -10.31973
 Alpha  occ. eigenvalues --  -10.31926 -10.31768 -10.30953 -10.30698 -10.30666
 Alpha  occ. eigenvalues --  -10.30553 -10.30319 -10.30237 -10.30236 -10.30222
 Alpha  occ. eigenvalues --  -10.30016 -10.29891 -10.29767 -10.29306 -10.29202
 Alpha  occ. eigenvalues --  -10.29035 -10.28877 -10.28795 -10.28322 -10.28321
 Alpha  occ. eigenvalues --  -10.28305 -10.28271 -10.28243 -10.28212 -10.28210
 Alpha  occ. eigenvalues --  -10.28209 -10.27984 -10.27981 -10.27907 -10.27879
 Alpha  occ. eigenvalues --  -10.27847 -10.27669 -10.27550 -10.27538 -10.27483
 Alpha  occ. eigenvalues --  -10.27452 -10.27421 -10.27386 -10.27170 -10.27011
 Alpha  occ. eigenvalues --  -10.27010 -10.26728 -10.26685 -10.26527 -10.26458
 Alpha  occ. eigenvalues --  -10.26399 -10.26372 -10.26231 -10.26193 -10.26134
 Alpha  occ. eigenvalues --  -10.26088 -10.25941 -10.25935 -10.25915 -10.25828
 Alpha  occ. eigenvalues --  -10.25745 -10.25737 -10.25564 -10.25381 -10.24770
 Alpha  occ. eigenvalues --  -10.23780  -3.17829  -3.16914  -1.92749  -1.92266
 Alpha  occ. eigenvalues --   -1.92141  -1.91794  -1.91373  -1.91216  -1.15656
 Alpha  occ. eigenvalues --   -1.14413  -1.09536  -1.09471  -1.08348  -1.07943
 Alpha  occ. eigenvalues --   -1.07226  -1.06645  -1.05585  -1.04807  -1.04482
 Alpha  occ. eigenvalues --   -1.03899  -1.03598  -1.03515  -1.02651  -1.02224
 Alpha  occ. eigenvalues --   -0.93516  -0.92530  -0.89090  -0.89049  -0.88630
 Alpha  occ. eigenvalues --   -0.88584  -0.88285  -0.87795  -0.87539  -0.87126
 Alpha  occ. eigenvalues --   -0.87086  -0.86927  -0.86533  -0.86244  -0.84597
 Alpha  occ. eigenvalues --   -0.84348  -0.83503  -0.83496  -0.82386  -0.82164
 Alpha  occ. eigenvalues --   -0.81630  -0.81622  -0.81211  -0.80986  -0.80389
 Alpha  occ. eigenvalues --   -0.80322  -0.78434  -0.78205  -0.77493  -0.77146
 Alpha  occ. eigenvalues --   -0.77070  -0.76932  -0.76224  -0.76031  -0.75467
 Alpha  occ. eigenvalues --   -0.75209  -0.73247  -0.72612  -0.72046  -0.72008
 Alpha  occ. eigenvalues --   -0.69789  -0.69280  -0.68764  -0.68660  -0.68246
 Alpha  occ. eigenvalues --   -0.67533  -0.66530  -0.66006  -0.65359  -0.65335
 Alpha  occ. eigenvalues --   -0.65227  -0.64658  -0.64537  -0.64451  -0.64273
 Alpha  occ. eigenvalues --   -0.64064  -0.61839  -0.61560  -0.60472  -0.59948
 Alpha  occ. eigenvalues --   -0.59884  -0.59781  -0.59205  -0.59137  -0.58818
 Alpha  occ. eigenvalues --   -0.58495  -0.58432  -0.57777  -0.57563  -0.56997
 Alpha  occ. eigenvalues --   -0.56049  -0.55978  -0.55615  -0.55524  -0.55326
 Alpha  occ. eigenvalues --   -0.55316  -0.55076  -0.54761  -0.54258  -0.53793
 Alpha  occ. eigenvalues --   -0.53545  -0.53066  -0.53044  -0.52997  -0.52930
 Alpha  occ. eigenvalues --   -0.52806  -0.52782  -0.52462  -0.52224  -0.52160
 Alpha  occ. eigenvalues --   -0.51930  -0.51715  -0.51667  -0.51653  -0.51455
 Alpha  occ. eigenvalues --   -0.51429  -0.50829  -0.50564  -0.50488  -0.50344
 Alpha  occ. eigenvalues --   -0.49826  -0.49725  -0.49630  -0.49418  -0.49384
 Alpha  occ. eigenvalues --   -0.49193  -0.49148  -0.48940  -0.48911  -0.48758
 Alpha  occ. eigenvalues --   -0.48516  -0.48328  -0.48167  -0.48081  -0.47974
 Alpha  occ. eigenvalues --   -0.47973  -0.47682  -0.47636  -0.47361  -0.47290
 Alpha  occ. eigenvalues --   -0.47030  -0.46949  -0.46615  -0.46611  -0.46479
 Alpha  occ. eigenvalues --   -0.46294  -0.46268  -0.46191  -0.45987  -0.45698
 Alpha  occ. eigenvalues --   -0.45605  -0.45466  -0.45210  -0.44711  -0.44605
 Alpha  occ. eigenvalues --   -0.44484  -0.44371  -0.44284  -0.44177  -0.44001
 Alpha  occ. eigenvalues --   -0.43920  -0.43749  -0.43712  -0.43462  -0.43440
 Alpha  occ. eigenvalues --   -0.43187  -0.43163  -0.43053  -0.42694  -0.42692
 Alpha  occ. eigenvalues --   -0.42363  -0.42346  -0.41960  -0.41769  -0.41739
 Alpha  occ. eigenvalues --   -0.41653  -0.41586  -0.41318  -0.41156  -0.41074
 Alpha  occ. eigenvalues --   -0.41063  -0.40842  -0.40834  -0.40645  -0.40293
 Alpha  occ. eigenvalues --   -0.40228  -0.39952  -0.39743  -0.39429  -0.39158
 Alpha  occ. eigenvalues --   -0.38440  -0.38201  -0.38031  -0.37808  -0.37558
 Alpha  occ. eigenvalues --   -0.37363  -0.36828  -0.36781  -0.36602  -0.36595
 Alpha  occ. eigenvalues --   -0.36097  -0.36073  -0.34514  -0.34253  -0.34181
 Alpha  occ. eigenvalues --   -0.34086  -0.33223  -0.33177  -0.31313  -0.31271
 Alpha  occ. eigenvalues --   -0.31121  -0.31043  -0.30821  -0.30196  -0.30071
 Alpha  occ. eigenvalues --   -0.30053  -0.29719  -0.29398  -0.24238  -0.23854
 Alpha  occ. eigenvalues --   -0.21189  -0.21153
 Alpha virt. eigenvalues --   -0.09001  -0.08536  -0.01723  -0.01509  -0.00024
 Alpha virt. eigenvalues --    0.00535   0.02198   0.02286   0.02427   0.02772
 Alpha virt. eigenvalues --    0.04646   0.04963   0.05074   0.05311   0.06242

 Mulliken charges:
               1
     1  Mg  12.002510
     2  C    5.968052
     3  C    6.010026
     4  C    6.038308
     5  C    6.011399
     6  N    6.977483
     7  C    6.036793
     8  C    5.997417
     9  C    6.006754
    10  C    5.975376
    11  C    6.004121
    12  C    5.992910
    13  C    6.000360
    14  H    0.998941
    15  N    7.010809
    16  C    5.957106
    17  C    5.979803
    18  C    5.986390
    19  C    5.954352
    20  C    6.005438
    21  C    5.987101
    22  O    7.970306
    23  C    6.005851
    24  N    7.018039
    25  C    5.953089
    26  C    6.017045
    27  C    5.992470
    28  C    6.017789
    29  C    5.999935
    30  C    5.991327
    31  C    5.993226
    32  N    6.995116
    33  C    6.034950
    34  C    6.031199
    35  C    6.001536
    36  C    6.033401
    37  C    5.994840
    38  C    6.013391
    39  O    8.031305
    40  C    6.005400
    41  C    6.002762
    42  O    8.003261
    43  O    8.001577
    44  C    5.999088
    45  H    0.984917
    46  H    0.996230
    47  H    1.017861
    48  H    0.998928
    49  H    0.998380
    50  H    0.982621
    51  H    1.000557
    52  H    0.996375
    53  H    1.013511
    54  H    0.993908
    55  H    0.996148
    56  H    1.006145
    57  H    0.983260
    58  H    0.978984
    59  H    0.980069
    60  H    0.985789
    61  H    0.988651
    62  H    0.996105
    63  H    0.998217
    64  H    1.003147
    65  H    1.000190
    66  H    0.989223
    67  H    1.003181
    68  H    1.010695
    69  H    0.992856
    70  H    0.996846
    71  H    1.015255
    72  H    1.007372
    73  H    1.019948
    74  H    1.021322
    75  H    1.018626
    76  H    1.008206
    77  H    0.998882
    78  H    1.004667
    79  H    1.004575
    80  Mg  12.000014
    81  C    6.000114
    82  C    5.999941
    83  C    5.999947
    84  C    6.000057
    85  N    7.000020
    86  C    5.999839
    87  C    6.000073
    88  C    5.999954
    89  C    6.000139
    90  C    5.999964
    91  C    6.000042
    92  C    6.000028
    93  H    0.999992
    94  N    6.999988
    95  C    6.000291
    96  C    6.000032
    97  C    6.000139
    98  C    6.000106
    99  C    5.999955
   100  C    6.000097
   101  O    8.000104
   102  C    5.999967
   103  N    6.999994
   104  C    6.000094
   105  C    5.999965
   106  C    6.000028
   107  C    5.999891
   108  C    5.999970
   109  C    6.000068
   110  C    5.999998
   111  N    7.000001
   112  C    5.999813
   113  C    5.999841
   114  C    5.999992
   115  C    5.999873
   116  C    6.000069
   117  C    5.999863
   118  O    7.999818
   119  C    6.000030
   120  C    5.999971
   121  O    8.000052
   122  O    7.999964
   123  C    6.000003
   124  H    1.000036
   125  H    1.000035
   126  H    0.999956
   127  H    0.999986
   128  H    0.999964
   129  H    1.000024
   130  H    1.000083
   131  H    1.000098
   132  H    0.999911
   133  H    1.000003
   134  H    0.999918
   135  H    0.999963
   136  H    1.000086
   137  H    1.000171
   138  H    1.000035
   139  H    0.999983
   140  H    1.000110
   141  H    1.000108
   142  H    0.999959
   143  H    1.000020
   144  H    1.000105
   145  H    1.000007
   146  H    1.000066
   147  H    0.999957
   148  H    0.999909
   149  H    0.999951
   150  H    0.999936
   151  H    1.000036
   152  H    0.999883
   153  H    0.999917
   154  H    0.999835
   155  H    0.999895
   156  H    1.000057
   157  H    0.999972
   158  H    0.999919
 Sum of Mulliken charges = 624.00000

 Dipole moment (field-independent basis, Debye):
    X=              9.2990    Y=              3.0546    Z=             -4.8783  Tot=             10.9362
 Quadrupole moment (field-independent basis, Debye-Ang):
   XX=            359.2773   YY=             -2.9096   ZZ=             -0.6483
   XY=             52.3804   XZ=            -96.8782   YZ=              4.3432

 Normal termination of Gaussian 16 at Wed Sep 22 10:53:49 2021.
