 Gaussian 16, Revision A.03,
 Gaussian 16:  ES64L-G16RevA.03 25-Dec-2016

 ----------------------------------------------------------
 #p cam-b3lyp/Def2SVP td=(nstates=5) density=(transition=1)
 ----------------------------------------------------------

 --------------------------------
 TDDFT excited states in gaussian
 --------------------------------
 Symbolic Z-matrix:
 Charge =  0 Multiplicity = 1

                         Standard orientation:
 ---------------------------------------------------------------------
 Center     Atomic      Atomic             Coordinates (Angstroms)
 Number     Number       Type             X           Y           Z
 ---------------------------------------------------------------------
      1         12           0      -11.809751   -0.044306   -0.190939
      2          6           0       -8.626616   -0.531359    1.143223
      3          6           0      -11.381833    3.360572    0.138106
      4          6           0      -14.782676    0.186540   -1.560875
      5          6           0      -11.682343   -3.464686   -1.442860
      6          7           0      -10.116017    1.263417    0.656264
      7          6           0       -8.896183    0.855907    1.118396
      8          6           0       -8.096520    2.013458    1.601462
      9          6           0       -8.977388    3.273133    1.232634
     10          6           0      -10.283865    2.630217    0.623048
     11          6           0       -9.158806    4.296175    2.382121
     12          6           0       -6.689715    2.088471    0.959819
     13          6           0       -5.610505    2.212675    2.033940
     14          1           0       -4.594036    3.386475    1.899819
     15          7           0      -12.945818    1.566010   -0.620674
     16          6           0      -12.640667    2.904858   -0.380059
     17          6           0      -13.830105    3.650029   -0.771713
     18          6           0      -14.874753    2.729464   -1.248572
     19          6           0      -14.251430    1.376827   -1.096536
     20          6           0      -13.860644    5.094469   -0.838799
     21          6           0      -16.122822    3.206498   -1.867449
     22          8           0      -16.428366    4.375719   -1.974661
     23          6           0      -17.116379    2.314585   -2.526390
     24          7           0      -12.969362   -1.393991   -1.330066
     25          6           0      -14.298165   -1.118053   -1.530569
     26          6           0      -14.968942   -2.274167   -2.241961
     27          6           0      -13.849324   -3.174042   -2.610609
     28          6           0      -12.749117   -2.649694   -1.829468
     29          6           0      -16.174443   -2.937522   -1.458031
     30          6           0      -13.428878   -3.052028   -4.115515
     31          6           0      -12.871531   -4.247278   -4.738843
     32          7           0      -10.466669   -1.720485   -0.157539
     33          6           0      -10.566621   -3.034578   -0.633009
     34          6           0       -9.517387   -3.818155   -0.060308
     35          6           0       -8.710048   -2.900484    0.601366
     36          6           0       -9.314362   -1.598183    0.483167
     37          6           0       -9.378011   -5.283315   -0.251815
     38          6           0       -7.504360   -2.749722    1.314236
     39          8           0       -6.676382   -3.575123    1.629191
     40          6           0       -7.424859   -1.265219    1.734872
     41          6           0       -7.304081   -1.186919    3.199366
     42          8           0       -8.250174   -1.186282    4.004915
     43          8           0       -5.978242   -1.275078    3.556929
     44          6           0       -5.581688   -1.122043    4.947287
     45          1           0      -11.202477    4.420146    0.329123
     46          1           0      -15.738502    0.124305   -2.087074
     47          1           0      -11.699856   -4.490788   -1.816098
     48          1           0       -8.204455    1.977031    2.685859
     49          1           0       -8.541990    3.895191    0.451207
     50          1           0       -8.339994    4.036149    3.054058
     51          1           0      -10.142708    4.337099    2.849533
     52          1           0       -8.980217    5.304996    2.010783
     53          1           0       -6.523721    2.980579    0.356203
     54          1           0       -6.580978    1.184006    0.361580
     55          1           0       -5.036547    1.314278    1.807363
     56          1           0       -6.107816    2.144335    3.000344
     57          1           0      -12.899063    5.467805   -0.485897
     58          1           0      -14.579226    5.588495   -0.184140
     59          1           0      -13.980622    5.404568   -1.877443
     60          1           0      -17.199151    1.550242   -1.753692
     61          1           0      -16.671872    1.910714   -3.436389
     62          1           0      -18.064102    2.828637   -2.688072
     63          1           0      -15.418340   -1.796410   -3.111752
     64          1           0      -13.909384   -4.217003   -2.299433
     65          1           0      -16.450610   -2.329191   -0.596570
     66          1           0      -16.048954   -3.997026   -1.232146
     67          1           0      -17.119812   -2.878575   -1.996673
     68          1           0      -12.729447   -2.223118   -4.224861
     69          1           0      -14.284921   -2.778722   -4.732239
     70          1           0      -13.692087   -4.852254   -5.126107
     71          1           0      -12.236302   -4.812600   -4.056136
     72          1           0      -12.385392   -3.978048   -5.677100
     73          1           0      -10.349800   -5.776633   -0.238350
     74          1           0       -8.702102   -5.760384    0.458050
     75          1           0       -9.038014   -5.373373   -1.283553
     76          1           0       -6.493149   -0.787811    1.431099
     77          1           0       -5.803322   -1.922558    5.653162
     78          1           0       -5.967066   -0.178466    5.333080
     79          1           0       -4.492997   -1.117236    4.909172
     80         12           0       11.650378    0.113880   -0.516336
     81          6           0        8.811774    0.672147    1.637842
     82          6           0       11.627174   -3.204740    0.616602
     83          6           0       14.158875   -0.446643   -2.559165
     84          6           0       11.689447    3.526563   -1.273433
     85          7           0       10.320897   -1.091895    1.018424
     86          6           0        9.139406   -0.721656    1.579005
     87          6           0        8.384806   -1.909492    2.153523
     88          6           0        9.477443   -3.118061    2.128363
     89          6           0       10.551953   -2.441178    1.229144
     90          6           0        9.946209   -3.605751    3.522139
     91          6           0        7.075309   -2.235878    1.358998
     92          6           0        5.791978   -2.230162    2.229460
     93          1           0        5.058857   -3.689172    2.331051
     94          7           0       12.703688   -1.540494   -0.907269
     95          6           0       12.615410   -2.858039   -0.342965
     96          6           0       13.594827   -3.811086   -0.916519
     97          6           0       14.270638   -2.986240   -1.874343
     98          6           0       13.721309   -1.621643   -1.807283
     99          6           0       13.752961   -5.271694   -0.489211
    100          6           0       15.415259   -3.337210   -2.746635
    101          8           0       15.808547   -2.683448   -3.706675
    102          6           0       16.095093   -4.703193   -2.528399
    103          7           0       12.619243    1.319907   -1.838017
    104          6           0       13.663424    0.866143   -2.568300
    105          6           0       14.431355    1.968645   -3.242910
    106          6           0       13.642859    3.254890   -2.893831
    107          6           0       12.529546    2.691095   -1.982377
    108          6           0       15.911143    1.998516   -2.922801
    109          6           0       13.009817    3.930587   -4.247995
    110          6           0       13.373447    5.494945   -4.490536
    111          7           0       10.671543    1.839027    0.249775
    112          6           0       10.764224    3.161078   -0.248059
    113          6           0        9.747003    3.967087    0.436597
    114          6           0        8.914953    2.992910    1.048443
    115          6           0        9.575413    1.764007    1.008919
    116          6           0        9.542583    5.478971    0.452565
    117          6           0        7.757211    2.887961    1.980853
    118          8           0        6.970191    3.705906    2.533131
    119          6           0        7.608870    1.344404    2.271228
    120          6           0        7.557832    1.143585    3.757131
    121          8           0        8.285128    1.689132    4.538034
    122          8           0        6.491578    0.348701    4.074472
    123          6           0        6.170925    0.379836    5.523874
    124          1           0       11.661100   -4.183392    1.099440
    125          1           0       14.992894   -0.566864   -3.254150
    126          1           0       11.658263    4.588794   -1.523772
    127          1           0        8.185251   -1.661453    3.196030
    128          1           0        9.129214   -3.984097    1.564855
    129          1           0       11.003271   -3.386274    3.675146
    130          1           0        9.770368   -4.676843    3.630013
    131          1           0        9.388912   -3.217102    4.374506
    132          1           0        7.121384   -3.219978    0.891880
    133          1           0        6.895039   -1.509854    0.565775
    134          1           0        4.974797   -1.662663    1.783433
    135          1           0        5.903627   -1.787825    3.218897
    136          1           0       12.923429   -5.721340    0.057408
    137          1           0       14.663128   -5.502907    0.064087
    138          1           0       13.835545   -5.826659   -1.424257
    139          1           0       16.522178   -4.758819   -1.527134
    140          1           0       16.845253   -4.919640   -3.289748
    141          1           0       15.329813   -5.473702   -2.621869
    142          1           0       14.433210    1.767339   -4.315013
    143          1           0       14.257311    3.954310   -2.327709
    144          1           0       16.541823    1.673798   -3.750843
    145          1           0       16.225565    1.325219   -2.125444
    146          1           0       16.165269    3.012382   -2.612922
    147          1           0       11.923168    3.875078   -4.304125
    148          1           0       13.342568    3.431293   -5.157604
    149          1           0       14.272607    5.677635   -3.901788
    150          1           0       12.559325    6.153374   -4.184803
    151          1           0       13.701592    5.672272   -5.514400
    152          1           0        8.491599    5.751310    0.547354
    153          1           0        9.804569    5.851055   -0.538583
    154          1           0       10.265484    5.822859    1.192472
    155          1           0        6.619487    1.072350    1.904396
    156          1           0        7.083719    0.127043    6.062981
    157          1           0        5.490931   -0.462655    5.649086
    158          1           0        5.807713    1.305872    5.969475
 ---------------------------------------------------------------------

 SCF Done:  E(RCAM-B3LYP) =  -4069.77415020     A.U. after   19 cycles

 Excitation energies and oscillator strengths:

 Excited State   1:      Singlet-A      1.6722 eV  741.46 nm  f=0.3270  <S**2>=0.000
     310 -> 316        0.18757
     312 -> 314        0.68298
     310 <- 316        0.11158
 This state for optimization and/or second-order correction.
 Total Energy, E(TD-HF/TD-DFT) =  -4069.71269958
 Copying the excited state density for this state as the 1-particle RhoCI density.

 Excited State   2:      Singlet-A      1.6751 eV  740.18 nm  f=0.4122  <S**2>=0.000
     309 -> 315       -0.18783
     311 -> 313        0.68210
     309 <- 315       -0.11065

 Excited State   3:      Singlet-A      2.1739 eV  570.32 nm  f=0.1422  <S**2>=0.000
     310 -> 314        0.64500
     312 -> 316       -0.27629

 Excited State   4:      Singlet-A      2.1858 eV  567.22 nm  f=0.0972  <S**2>=0.000
     309 -> 313        0.63322
     311 -> 315        0.29637

 Excited State   5:      Singlet-A      2.8995 eV  427.60 nm  f=0.0000  <S**2>=0.000
     312 -> 313        0.70705

 The electronic state is 1-A.
 Alpha  occ. eigenvalues --  -46.88911 -46.88513 -19.25625 -19.24830 -19.19727
 Alpha  occ. eigenvalues --  -19.19327 -19.18937 -19.18673 -19.18328 -19.17353
 Alpha  occ. eigenvalues --  -14.42586 -14.42290 -14.41918 -14.41901 -14.40698
 Alpha  occ. eigenvalues --  -14.40237 -14.39233 -14.39138 -10.39054 -10.38801
 Alpha  occ. eigenvalues --  -10.35129 -10.35107 -10.34180 -10.33677 -10.31906
 Alpha  occ. eigenvalues --  -10.31808 -10.31638 -10.31582 -10.31561 -10.31540
 Alpha  occ. eigenvalues --  -10.31533 -10.31471 -10.31266 -10.31031 -10.31023
 Alpha  occ. eigenvalues --  -10.30852 -10.30782 -10.30651 -10.30445 -10.29961
 Alpha  occ. eigenvalues --  -10.29836 -10.29079 -10.29059 -10.29007 -10.28975
 Alpha  occ. eigenvalues --  -10.28888 -10.28835 -10.28592 -10.28520 -10.28517
 Alpha  occ. eigenvalues --  -10.28510 -10.28440 -10.28317 -10.28258 -10.28220
 Alpha  occ. eigenvalues --  -10.28197 -10.28089 -10.28066 -10.27945 -10.27940
 Alpha  occ. eigenvalues --  -10.27811 -10.27773 -10.27332 -10.27276 -10.27274
 Alpha  occ. eigenvalues --  -10.27231 -10.27178 -10.27133 -10.27111 -10.27100
 Alpha  occ. eigenvalues --  -10.26777 -10.26741 -10.26561 -10.26423 -10.26405
 Alpha  occ. eigenvalues --  -10.26207 -10.26107 -10.26106 -10.26039 -10.25910
 Alpha  occ. eigenvalues --  -10.25538 -10.25480 -10.25172 -10.25162 -10.24830
 Alpha  occ. eigenvalues --  -10.24693  -3.17401  -3.17156  -1.92304  -1.92053
 Alpha  occ. eigenvalues --   -1.91865  -1.91691  -1.91610  -1.91477  -1.16942
 Alpha  occ. eigenvalues --   -1.15410  -1.10028  -1.09953  -1.09815  -1.08666
 Alpha  occ. eigenvalues --   -1.07053  -1.06671  -1.04957  -1.03982  -1.03768
 Alpha  occ. eigenvalues --   -1.03246  -1.02952  -1.02566  -1.01997  -1.01541
 Alpha  occ. eigenvalues --   -0.92618  -0.91557  -0.90742  -0.89530  -0.89022
 Alpha  occ. eigenvalues --   -0.88624  -0.88484  -0.88089  -0.87674  -0.87397
 Alpha  occ. eigenvalues --   -0.87213  -0.86972  -0.86264  -0.85622  -0.85230
 Alpha  occ. eigenvalues --   -0.84514  -0.83992  -0.83409  -0.83156  -0.82534
 Alpha  occ. eigenvalues --   -0.81798  -0.81379  -0.81373  -0.80789  -0.80656
 Alpha  occ. eigenvalues --   -0.79741  -0.79076  -0.78647  -0.77940  -0.77085
 Alpha  occ. eigenvalues --   -0.77074  -0.76758  -0.76271  -0.76008  -0.75349
 Alpha  occ. eigenvalues --   -0.75210  -0.73379  -0.72539  -0.71999  -0.71399
 Alpha  occ. eigenvalues --   -0.69307  -0.69155  -0.69084  -0.68734  -0.67935
 Alpha  occ. eigenvalues --   -0.67551  -0.67467  -0.67070  -0.66441  -0.65907
 Alpha  occ. eigenvalues --   -0.65885  -0.65606  -0.65239  -0.64648  -0.64368
 Alpha  occ. eigenvalues --   -0.63977  -0.62348  -0.61997  -0.60785  -0.60709
 Alpha  occ. eigenvalues --   -0.59450  -0.59433  -0.59245  -0.58930  -0.58714
 Alpha  occ. eigenvalues --   -0.58327  -0.57939  -0.57885  -0.57375  -0.57119
 Alpha  occ. eigenvalues --   -0.56373  -0.56120  -0.55862  -0.55459  -0.55257
 Alpha  occ. eigenvalues --   -0.55109  -0.55044  -0.54479  -0.54389  -0.54194
 Alpha  occ. eigenvalues --   -0.53759  -0.53367  -0.53159  -0.52806  -0.52649
 Alpha  occ. eigenvalues --   -0.52548  -0.52514  -0.52257  -0.52137  -0.52053
 Alpha  occ. eigenvalues --   -0.51697  -0.51653  -0.51628  -0.51443  -0.51360
 Alpha  occ. eigenvalues --   -0.51251  -0.51200  -0.50810  -0.50444  -0.50369
 Alpha  occ. eigenvalues --   -0.50044  -0.49970  -0.49948  -0.49783  -0.49621
 Alpha  occ. eigenvalues --   -0.49408  -0.49355  -0.49190  -0.49073  -0.48816
 Alpha  occ. eigenvalues --   -0.48763  -0.48538  -0.48475  -0.48231  -0.48087
 Alpha  occ. eigenvalues --   -0.47990  -0.47597  -0.47545  -0.47449  -0.47094
 Alpha  occ. eigenvalues --   -0.47030  -0.46968  -0.46826  -0.46748  -0.46562
 Alpha  occ. eigenvalues --   -0.46530  -0.46284  -0.46185  -0.46176  -0.45931
 Alpha  occ. eigenvalues --   -0.45704  -0.45551  -0.45270  -0.44965  -0.44903
 Alpha  occ. eigenvalues --   -0.44793  -0.44751  -0.44549  -0.44441  -0.44360
 Alpha  occ. eigenvalues --   -0.44080  -0.44018  -0.43869  -0.43764  -0.43651
 Alpha  occ. eigenvalues --   -0.43390  -0.43298  -0.43189  -0.43029  -0.42932
 Alpha  occ. eigenvalues --   -0.42842  -0.42583  -0.42508  -0.42197  -0.42053
 Alpha  occ. eigenvalues --   -0.42019  -0.41636  -0.41544  -0.41520  -0.41304
 Alpha  occ. eigenvalues --   -0.41280  -0.41131  -0.40773  -0.40684  -0.40631
 Alpha  occ. eigenvalues --   -0.40416  -0.40240  -0.40167  -0.39367  -0.39186
 Alpha  occ. eigenvalues --   -0.38562  -0.38411  -0.38211  -0.37689  -0.37468
 Alpha  occ. eigenvalues --   -0.37321  -0.37286  -0.36925  -0.36360  -0.36343
 Alpha  occ. eigenvalues --   -0.36275  -0.35456  -0.34612  -0.34390  -0.34310
 Alpha  occ. eigenvalues --   -0.33676  -0.33001  -0.32996  -0.31615  -0.31349
 Alpha  occ. eigenvalues --   -0.30976  -0.30648  -0.30583  -0.30253  -0.29851
 Alpha  occ. eigenvalues --   -0.29629  -0.29409  -0.29369  -0.24276  -0.23888
 Alpha  occ. eigenvalues --   -0.21542  -0.21288
 Alpha virt. eigenvalues --   -0.09132  -0.08963  -0.02480  -0.01815   0.00148
 Alpha virt. eigenvalues --    0.00282   0.02073   0.02380   0.02704   0.03577
 Alpha virt. eigenvalues --    0.04170   0.04300   0.05031   0.05235   0.05516

 Mulliken charges:
               1
     1  Mg  11.999977
     2  C    6.001303
     3  C    5.999037
     4  C    5.998251
     5  C    6.001110
     6  N    7.000415
     7  C    5.997976
     8  C    6.000970
     9  C    5.999458
    10  C    6.001692
    11  C    5.999686
    12  C    5.999955
    13  C    5.999495
    14  H    1.001146
    15  N    6.999116
    16  C    6.003051
    17  C    6.001360
    18  C    6.000541
    19  C    6.002879
    20  C    5.999274
    21  C    6.000414
    22  O    8.001013
    23  C    5.999965
    24  N    7.000345
    25  C    6.002135
    26  C    5.999594
    27  C    6.000490
    28  C    5.997651
    29  C    5.999982
    30  C    6.000584
    31  C    6.000116
    32  N    7.000431
    33  C    5.997041
    34  C    5.998396
    35  C    5.999775
    36  C    5.997668
    37  C    6.000113
    38  C    5.998877
    39  O    7.997887
    40  C    6.000182
    41  C    5.999756
    42  O    7.999316
    43  O    8.000147
    44  C    6.000125
    45  H    1.000883
    46  H    1.000439
    47  H    0.999096
    48  H    0.999758
    49  H    1.000361
    50  H    1.001148
    51  H    0.999615
    52  H    1.000253
    53  H    0.999844
    54  H    1.000278
    55  H    1.000378
    56  H    0.999735
    57  H    1.001449
    58  H    1.001377
    59  H    1.001315
    60  H    1.000314
    61  H    1.000606
    62  H    1.000604
    63  H    0.999883
    64  H    0.999928
    65  H    0.999812
    66  H    1.000608
    67  H    0.999953
    68  H    0.999749
    69  H    0.998932
    70  H    0.999431
    71  H    1.000337
    72  H    0.999660
    73  H    0.998588
    74  H    0.998904
    75  H    0.998641
    76  H    0.999895
    77  H    0.999476
    78  H    0.999808
    79  H    1.000248
    80  Mg  11.995570
    81  C    6.028447
    82  C    5.993262
    83  C    5.965704
    84  C    6.011152
    85  N    7.017024
    86  C    5.964095
    87  C    6.010540
    88  C    5.987343
    89  C    6.031565
    90  C    5.997068
    91  C    6.001834
    92  C    6.002033
    93  H    0.992795
    94  N    6.993098
    95  C    6.039587
    96  C    6.024249
    97  C    6.014455
    98  C    6.032369
    99  C    5.995027
   100  C    6.011478
   101  O    8.031847
   102  C    5.995592
   103  N    6.992001
   104  C    6.040430
   105  C    5.989441
   106  C    6.012285
   107  C    5.968283
   108  C    5.999188
   109  C    6.005089
   110  C    6.000936
   111  N    7.004784
   112  C    5.953533
   113  C    5.969738
   114  C    5.995199
   115  C    5.966494
   116  C    5.999840
   117  C    5.990379
   118  O    7.969015
   119  C    5.995234
   120  C    5.993182
   121  O    7.999751
   122  O    7.998103
   123  C    6.002183
   124  H    1.013563
   125  H    1.001036
   126  H    0.987231
   127  H    1.002386
   128  H    1.001274
   129  H    0.999485
   130  H    1.003998
   131  H    1.014358
   132  H    0.990739
   133  H    1.005009
   134  H    1.003078
   135  H    1.001978
   136  H    1.016802
   137  H    1.020328
   138  H    1.016708
   139  H    1.007768
   140  H    1.015009
   141  H    1.005316
   142  H    0.998876
   143  H    0.996031
   144  H    0.997640
   145  H    0.994633
   146  H    1.010043
   147  H    1.001040
   148  H    0.987246
   149  H    0.995956
   150  H    1.002887
   151  H    0.993506
   152  H    0.984186
   153  H    0.982957
   154  H    0.982488
   155  H    0.995249
   156  H    0.995327
   157  H    0.994799
   158  H    0.999844
 Sum of Mulliken charges = 624.00000

 Dipole moment (field-independent basis, Debye):
    X=              4.8343    Y=             -8.7584    Z=             -1.7493  Tot=             10.1558
 Quadrupole moment (field-independent basis, Debye-Ang):
   XX=            127.5283   YY=             -1.4783   ZZ=              0.2710
   XY=           -116.8644   XZ=            -20.1515   YZ=              3.1018

 Normal termination of Gaussian 16 at Wed Sep 22 15:51:49 2021.
