 Gaussian 16, Revision A.03,
 Gaussian 16:  ES64L-G16RevA.03 25-Dec-2016

 ----------------------------------------------------------
 #p cam-b3lyp/Def2SVP td=(nstates=5) density=(transition=1)
 ----------------------------------------------------------

 --------------------------------
 TDDFT excited states in gaussian
 --------------------------------
 Symbolic Z-matrix:
 Charge =  0 Multiplicity = 1

                         Standard orientation:
 ---------------------------------------------------------------------
 Center     Atomic      Atomic             Coordinates (Angstroms)
 Number     Number       Type             X           Y           Z
 ---------------------------------------------------------------------
      1         12           0      -13.368732   -0.648694   -0.081315
      2          6           0      -11.638299    1.937323    1.471596
      3          6           0      -14.866403    1.649560   -2.135062
      4          6           0      -15.268124   -3.181803   -1.342228
      5          6           0      -11.885870   -2.808960    2.320288
      6          7           0      -13.292338    1.533477   -0.282920
      7          6           0      -12.414520    2.342065    0.389689
      8          6           0      -12.589420    3.747937   -0.189902
      9          6           0      -13.806984    3.672985   -1.093889
     10          6           0      -13.979410    2.162515   -1.206682
     11          6           0      -15.070859    4.395182   -0.711088
     12          6           0      -11.287009    4.377182   -0.879844
     13          6           0      -11.507648    5.710345   -1.664474
     14          1           0      -11.323182    7.053679   -0.911155
     15          7           0      -14.743255   -0.747949   -1.632979
     16          6           0      -15.252020    0.296952   -2.332183
     17          6           0      -16.237223   -0.248247   -3.229513
     18          6           0      -16.350289   -1.648845   -2.987125
     19          6           0      -15.465257   -1.923617   -1.946180
     20          6           0      -16.959015    0.641633   -4.193830
     21          6           0      -17.381635   -2.616796   -3.636784
     22          8           0      -17.647824   -3.697355   -3.141703
     23          6           0      -18.188571   -2.272387   -4.796142
     24          7           0      -13.520878   -2.578495    0.402475
     25          6           0      -14.338818   -3.481344   -0.276177
     26          6           0      -14.196538   -4.918801    0.253621
     27          6           0      -12.942493   -4.789091    1.183544
     28          6           0      -12.744888   -3.284579    1.268760
     29          6           0      -15.423989   -5.566245    0.746658
     30          6           0      -11.584711   -5.606616    0.811785
     31          6           0      -10.995246   -6.625837    1.791362
     32          7           0      -12.034697   -0.492864    1.655954
     33          6           0      -11.566452   -1.458594    2.502090
     34          6           0      -10.697250   -0.905415    3.485275
     35          6           0      -10.621906    0.479634    3.072451
     36          6           0      -11.535905    0.677295    1.999744
     37          6           0      -10.012436   -1.695390    4.534577
     38          6           0       -9.937603    1.726260    3.327921
     39          8           0       -9.042171    2.061056    4.078403
     40          6           0      -10.619423    2.756862    2.249597
     41          6           0      -11.092573    4.000571    2.909232
     42          8           0      -12.007994    4.035161    3.702035
     43          8           0      -10.401855    5.085926    2.518391
     44          6           0      -10.951394    6.437610    2.919780
     45          1           0      -15.306638    2.370203   -2.827789
     46          1           0      -15.893617   -3.973545   -1.759374
     47          1           0      -11.520132   -3.628753    2.942378
     48          1           0      -12.802464    4.299984    0.725393
     49          1           0      -13.564608    4.113635   -2.060615
     50          1           0      -15.675893    3.537994   -0.417286
     51          1           0      -15.475340    4.995492   -1.526153
     52          1           0      -14.954272    4.983725    0.199180
     53          1           0      -10.999454    3.580473   -1.566223
     54          1           0      -10.514872    4.542312   -0.129345
     55          1           0      -12.520578    5.782322   -2.058584
     56          1           0      -10.836167    5.705799   -2.523063
     57          1           0      -16.658632    1.688064   -4.255681
     58          1           0      -17.988886    0.678682   -3.840278
     59          1           0      -17.011803    0.227340   -5.200838
     60          1           0      -18.722065   -1.322940   -4.827439
     61          1           0      -18.905668   -3.030662   -5.110339
     62          1           0      -17.451008   -2.303329   -5.597831
     63          1           0      -13.888868   -5.383460   -0.683543
     64          1           0      -13.403955   -5.079459    2.127251
     65          1           0      -15.775483   -6.441911    0.200314
     66          1           0      -16.217171   -4.818393    0.727562
     67          1           0      -15.347399   -5.948604    1.764439
     68          1           0      -10.801858   -4.869784    0.633022
     69          1           0      -11.583204   -6.183235   -0.113985
     70          1           0      -10.117074   -6.282175    2.338618
     71          1           0      -10.857897   -7.626840    1.383408
     72          1           0      -11.711908   -6.743403    2.604297
     73          1           0      -10.735983   -2.378148    4.979394
     74          1           0       -9.519332   -1.069523    5.277894
     75          1           0       -9.365264   -2.411798    4.027561
     76          1           0       -9.809933    3.049641    1.581720
     77          1           0      -10.072770    7.074985    2.823005
     78          1           0      -11.320092    6.373476    3.943324
     79          1           0      -11.697604    6.704728    2.171358
     80         12           0       13.491085   -0.721868    0.007441
     81          6           0       11.418505    2.062473   -0.422437
     82          6           0       16.101198    1.529242    0.404695
     83          6           0       15.490816   -3.285386   -0.019506
     84          6           0       10.692656   -2.787733   -0.659396
     85          7           0       13.805097    1.579888   -0.409904
     86          6           0       12.797857    2.458967   -0.399544
     87          6           0       13.389807    3.827605   -0.344069
     88          6           0       14.912866    3.615421   -0.525286
     89          6           0       14.985139    2.154571   -0.127165
     90          6           0       15.567581    3.907331   -1.876618
     91          6           0       13.060076    4.551982    0.999589
     92          6           0       12.498568    6.009875    0.956728
     93          1           0       12.907504    6.948424   -0.221108
     94          7           0       15.545750   -0.869569    0.324137
     95          6           0       16.379924    0.190697    0.653003
     96          6           0       17.662818   -0.371700    0.924062
     97          6           0       17.561417   -1.799957    0.680454
     98          6           0       16.176550   -2.068129    0.322523
     99          6           0       18.925542    0.448048    1.268505
    100          6           0       18.666362   -2.895038    0.700850
    101          8           0       18.478704   -4.046367    0.464969
    102          6           0       20.049654   -2.434316    1.116330
    103          7           0       13.103720   -2.724991   -0.286100
    104          6           0       14.135353   -3.598117   -0.313767
    105          6           0       13.708311   -5.070946   -0.562732
    106          6           0       12.128837   -4.911196   -0.494435
    107          6           0       11.924123   -3.401562   -0.450433
    108          6           0       14.315034   -5.615788   -1.981065
    109          6           0       11.460955   -5.749124    0.640736
    110          6           0       11.124836   -5.041811    1.941382
    111          7           0       11.419244   -0.493526   -0.420070
    112          6           0       10.415137   -1.411012   -0.573520
    113          6           0        9.123450   -0.662983   -0.766705
    114          6           0        9.494540    0.699425   -0.708835
    115          6           0       10.916043    0.781028   -0.536559
    116          6           0        7.778458   -1.226562   -1.137069
    117          6           0        8.997848    2.071184   -0.783924
    118          8           0        7.837587    2.449497   -0.968983
    119          6           0       10.189877    2.959844   -0.441280
    120          6           0       10.245597    4.000060   -1.523184
    121          8           0       10.686254    3.823380   -2.644173
    122          8           0        9.559214    5.033750   -1.064498
    123          6           0        9.087027    6.024294   -2.019169
    124          1           0       16.944196    2.222468    0.387050
    125          1           0       16.110853   -4.168313    0.147291
    126          1           0        9.827488   -3.426688   -0.849915
    127          1           0       12.966292    4.421838   -1.153153
    128          1           0       15.395361    4.309758    0.162729
    129          1           0       14.915740    4.304034   -2.655173
    130          1           0       16.040114    3.006325   -2.268769
    131          1           0       16.348891    4.640810   -1.678692
    132          1           0       13.873275    4.515980    1.724210
    133          1           0       12.292626    3.874598    1.373861
    134          1           0       12.863096    6.446629    1.887351
    135          1           0       11.410149    5.962681    0.980545
    136          1           0       19.775210    0.221537    0.624336
    137          1           0       19.324231    0.200155    2.252343
    138          1           0       18.776870    1.528671    1.267772
    139          1           0       20.045809   -1.874741    2.051953
    140          1           0       20.477162   -1.868380    0.288557
    141          1           0       20.733670   -3.281835    1.159908
    142          1           0       14.060665   -5.746072    0.216916
    143          1           0       11.622153   -5.298948   -1.378076
    144          1           0       13.447435   -5.676998   -2.638185
    145          1           0       14.666484   -6.646823   -1.935864
    146          1           0       15.002679   -4.922504   -2.466738
    147          1           0       12.236380   -6.459821    0.926954
    148          1           0       10.594731   -6.310613    0.291351
    149          1           0       12.006191   -4.431934    2.143498
    150          1           0       11.008784   -5.888651    2.617362
    151          1           0       10.305986   -4.324643    1.992327
    152          1           0        7.701245   -2.289783   -1.364648
    153          1           0        7.407454   -0.712143   -2.023653
    154          1           0        7.114772   -0.926281   -0.326846
    155          1           0       10.060983    3.573827    0.450292
    156          1           0        9.215244    5.857594   -3.088210
    157          1           0        9.717087    6.885688   -1.795405
    158          1           0        8.176721    6.471923   -1.620140
 ---------------------------------------------------------------------

 SCF Done:  E(RCAM-B3LYP) =  -4069.81160071     A.U. after   18 cycles

 Excitation energies and oscillator strengths:

 Excited State   1:      Singlet-A      1.6980 eV  730.20 nm  f=0.4446  <S**2>=0.000
     309 -> 315       -0.17870
     311 -> 313        0.68404
     309 <- 315       -0.10806
 This state for optimization and/or second-order correction.
 Total Energy, E(TD-HF/TD-DFT) =  -4069.74920211
 Copying the excited state density for this state as the 1-particle RhoCI density.

 Excited State   2:      Singlet-A      1.7297 eV  716.81 nm  f=0.3581  <S**2>=0.000
     310 -> 316       -0.18672
     312 -> 314        0.68198
     310 <- 316       -0.10946

 Excited State   3:      Singlet-A      2.2140 eV  559.99 nm  f=0.0900  <S**2>=0.000
     310 -> 314        0.64171
     312 -> 316        0.28202

 Excited State   4:      Singlet-A      2.2224 eV  557.88 nm  f=0.1026  <S**2>=0.000
     309 -> 313        0.63150
     311 -> 315        0.30106

 Excited State   5:      Singlet-A      2.9907 eV  414.56 nm  f=0.0000  <S**2>=0.000
     312 -> 313        0.70707

 The electronic state is 1-A.
 Alpha  occ. eigenvalues --  -46.88761 -46.87855 -19.26223 -19.24394 -19.19611
 Alpha  occ. eigenvalues --  -19.19376 -19.19061 -19.18635 -19.18597 -19.18234
 Alpha  occ. eigenvalues --  -14.42692 -14.42019 -14.41752 -14.41567 -14.39283
 Alpha  occ. eigenvalues --  -14.39026 -14.38708 -14.38416 -10.39119 -10.37941
 Alpha  occ. eigenvalues --  -10.35565 -10.35427 -10.34622 -10.34469 -10.32083
 Alpha  occ. eigenvalues --  -10.32019 -10.31576 -10.31234 -10.31106 -10.31091
 Alpha  occ. eigenvalues --  -10.31043 -10.30760 -10.30610 -10.30419 -10.29783
 Alpha  occ. eigenvalues --  -10.29706 -10.29674 -10.29580 -10.29530 -10.29446
 Alpha  occ. eigenvalues --  -10.29351 -10.29226 -10.28972 -10.28945 -10.28350
 Alpha  occ. eigenvalues --  -10.28274 -10.28245 -10.28175 -10.28115 -10.28092
 Alpha  occ. eigenvalues --  -10.28050 -10.28021 -10.27536 -10.27510 -10.27506
 Alpha  occ. eigenvalues --  -10.27494 -10.27235 -10.27196 -10.27118 -10.27112
 Alpha  occ. eigenvalues --  -10.27091 -10.27039 -10.27011 -10.26982 -10.26931
 Alpha  occ. eigenvalues --  -10.26918 -10.26842 -10.26835 -10.26666 -10.26658
 Alpha  occ. eigenvalues --  -10.26575 -10.26452 -10.26313 -10.26275 -10.26230
 Alpha  occ. eigenvalues --  -10.26137 -10.25926 -10.25875 -10.25762 -10.25727
 Alpha  occ. eigenvalues --  -10.25574 -10.25474 -10.25360 -10.25218 -10.25185
 Alpha  occ. eigenvalues --  -10.25044  -3.17217  -3.16515  -1.92126  -1.91708
 Alpha  occ. eigenvalues --   -1.91478  -1.91430  -1.90972  -1.90817  -1.18300
 Alpha  occ. eigenvalues --   -1.15821  -1.11340  -1.10964  -1.09574  -1.09464
 Alpha  occ. eigenvalues --   -1.08638  -1.06708  -1.05218  -1.04987  -1.04088
 Alpha  occ. eigenvalues --   -1.03747  -1.03294  -1.02571  -1.02330  -1.01832
 Alpha  occ. eigenvalues --   -0.93321  -0.92410  -0.89190  -0.88692  -0.88691
 Alpha  occ. eigenvalues --   -0.88585  -0.88311  -0.87994  -0.87550  -0.87069
 Alpha  occ. eigenvalues --   -0.86953  -0.86682  -0.86204  -0.85504  -0.84620
 Alpha  occ. eigenvalues --   -0.84411  -0.83698  -0.83685  -0.82622  -0.82590
 Alpha  occ. eigenvalues --   -0.82448  -0.81389  -0.81381  -0.80757  -0.80720
 Alpha  occ. eigenvalues --   -0.79995  -0.78772  -0.77879  -0.77776  -0.77309
 Alpha  occ. eigenvalues --   -0.77259  -0.76978  -0.76280  -0.75870  -0.75128
 Alpha  occ. eigenvalues --   -0.75089  -0.72757  -0.72646  -0.71794  -0.71681
 Alpha  occ. eigenvalues --   -0.69499  -0.69365  -0.68926  -0.68863  -0.68204
 Alpha  occ. eigenvalues --   -0.68010  -0.66896  -0.66071  -0.65526  -0.65404
 Alpha  occ. eigenvalues --   -0.65236  -0.64940  -0.64655  -0.64619  -0.64309
 Alpha  occ. eigenvalues --   -0.64182  -0.62776  -0.61401  -0.60509  -0.59821
 Alpha  occ. eigenvalues --   -0.59731  -0.59628  -0.59175  -0.58932  -0.58807
 Alpha  occ. eigenvalues --   -0.58432  -0.58067  -0.57937  -0.57279  -0.57276
 Alpha  occ. eigenvalues --   -0.56836  -0.56340  -0.55974  -0.55733  -0.55385
 Alpha  occ. eigenvalues --   -0.54930  -0.54764  -0.54763  -0.54647  -0.54552
 Alpha  occ. eigenvalues --   -0.53783  -0.53561  -0.53227  -0.53136  -0.52947
 Alpha  occ. eigenvalues --   -0.52905  -0.52571  -0.52490  -0.52326  -0.52054
 Alpha  occ. eigenvalues --   -0.51999  -0.51671  -0.51311  -0.51291  -0.51208
 Alpha  occ. eigenvalues --   -0.51011  -0.50968  -0.50820  -0.50473  -0.50282
 Alpha  occ. eigenvalues --   -0.50098  -0.49912  -0.49651  -0.49414  -0.49372
 Alpha  occ. eigenvalues --   -0.49321  -0.49171  -0.49115  -0.48970  -0.48816
 Alpha  occ. eigenvalues --   -0.48638  -0.48600  -0.48340  -0.48209  -0.48086
 Alpha  occ. eigenvalues --   -0.47935  -0.47702  -0.47430  -0.47273  -0.47081
 Alpha  occ. eigenvalues --   -0.46866  -0.46816  -0.46570  -0.46515  -0.46378
 Alpha  occ. eigenvalues --   -0.46228  -0.46043  -0.45986  -0.45871  -0.45836
 Alpha  occ. eigenvalues --   -0.45625  -0.45560  -0.45321  -0.45129  -0.45089
 Alpha  occ. eigenvalues --   -0.44971  -0.44794  -0.44775  -0.44419  -0.44385
 Alpha  occ. eigenvalues --   -0.44218  -0.43990  -0.43720  -0.43660  -0.43351
 Alpha  occ. eigenvalues --   -0.43298  -0.43229  -0.43029  -0.42914  -0.42785
 Alpha  occ. eigenvalues --   -0.42681  -0.42679  -0.42136  -0.41937  -0.41805
 Alpha  occ. eigenvalues --   -0.41724  -0.41619  -0.41485  -0.41259  -0.41174
 Alpha  occ. eigenvalues --   -0.40975  -0.40943  -0.40693  -0.40356  -0.40247
 Alpha  occ. eigenvalues --   -0.40179  -0.39585  -0.39482  -0.39264  -0.39256
 Alpha  occ. eigenvalues --   -0.38767  -0.38362  -0.37745  -0.37240  -0.37122
 Alpha  occ. eigenvalues --   -0.37074  -0.36862  -0.36684  -0.36359  -0.36266
 Alpha  occ. eigenvalues --   -0.36184  -0.36028  -0.34364  -0.34045  -0.34028
 Alpha  occ. eigenvalues --   -0.33961  -0.33119  -0.32960  -0.31368  -0.31288
 Alpha  occ. eigenvalues --   -0.30945  -0.30746  -0.30351  -0.30183  -0.29886
 Alpha  occ. eigenvalues --   -0.29697  -0.29024  -0.28919  -0.24182  -0.23758
 Alpha  occ. eigenvalues --   -0.21105  -0.21039
 Alpha virt. eigenvalues --   -0.08774  -0.08450  -0.01852  -0.01484   0.00232
 Alpha virt. eigenvalues --    0.00639   0.02753   0.02858   0.02911   0.03403
 Alpha virt. eigenvalues --    0.04726   0.05105   0.05265   0.05639   0.05933

 Mulliken charges:
               1
     1  Mg  12.003216
     2  C    6.023298
     3  C    5.978990
     4  C    5.976689
     5  C    6.016881
     6  N    7.005796
     7  C    5.962316
     8  C    6.007525
     9  C    5.992669
    10  C    6.029457
    11  C    5.998905
    12  C    6.005333
    13  C    5.998609
    14  H    1.000953
    15  N    6.991549
    16  C    6.042088
    17  C    6.028315
    18  C    6.008892
    19  C    6.040682
    20  C    5.993217
    21  C    6.012611
    22  O    8.021785
    23  C    5.991909
    24  N    6.995701
    25  C    6.045717
    26  C    5.989693
    27  C    6.015419
    28  C    5.961704
    29  C    5.997470
    30  C    6.003036
    31  C    6.000342
    32  N    7.006141
    33  C    5.961457
    34  C    5.968400
    35  C    5.996355
    36  C    5.964044
    37  C    6.002860
    38  C    5.984368
    39  O    7.968778
    40  C    5.996431
    41  C    5.996406
    42  O    7.995309
    43  O    7.998921
    44  C    6.001458
    45  H    1.008402
    46  H    1.009026
    47  H    0.988338
    48  H    1.000376
    49  H    0.999634
    50  H    0.995076
    51  H    1.000502
    52  H    1.013174
    53  H    0.993220
    54  H    1.005563
    55  H    0.992645
    56  H    0.997500
    57  H    1.022356
    58  H    1.023415
    59  H    1.021830
    60  H    1.005127
    61  H    1.014800
    62  H    1.007769
    63  H    0.999402
    64  H    0.997393
    65  H    1.002262
    66  H    0.996599
    67  H    1.013478
    68  H    1.003301
    69  H    0.987513
    70  H    1.004546
    71  H    0.994082
    72  H    0.997939
    73  H    0.980069
    74  H    0.984870
    75  H    0.977614
    76  H    0.992743
    77  H    0.996319
    78  H    0.998188
    79  H    0.993233
    80  Mg  11.999860
    81  C    5.999023
    82  C    6.001524
    83  C    6.000933
    84  C    5.998165
    85  N    7.000240
    86  C    6.002105
    87  C    5.999632
    88  C    6.000777
    89  C    5.997119
    90  C    6.000109
    91  C    5.999827
    92  C    5.999932
    93  H    1.000158
    94  N    7.000840
    95  C    5.996421
    96  C    5.999046
    97  C    5.998616
    98  C    5.997605
    99  C    6.000298
   100  C    5.998918
   101  O    7.998046
   102  C    6.000530
   103  N    6.999548
   104  C    5.997730
   105  C    6.000798
   106  C    5.999167
   107  C    6.002747
   108  C    6.000500
   109  C    5.999866
   110  C    5.999438
   111  N    6.999453
   112  C    6.003390
   113  C    6.002128
   114  C    6.000390
   115  C    6.002402
   116  C    5.999709
   117  C    6.001254
   118  O    8.002486
   119  C    5.999882
   120  C    6.000340
   121  O    8.000315
   122  O    8.000131
   123  C    5.999670
   124  H    0.999169
   125  H    0.999435
   126  H    1.000550
   127  H    1.000081
   128  H    0.999758
   129  H    0.998934
   130  H    1.000238
   131  H    0.999717
   132  H    1.001012
   133  H    0.999664
   134  H    1.000348
   135  H    0.999821
   136  H    0.998559
   137  H    0.998566
   138  H    0.998579
   139  H    0.999540
   140  H    0.999267
   141  H    0.998709
   142  H    0.999894
   143  H    1.000059
   144  H    0.999017
   145  H    0.999582
   146  H    1.000137
   147  H    1.000690
   148  H    1.000113
   149  H    1.000687
   150  H    1.000464
   151  H    0.999716
   152  H    1.001488
   153  H    1.001298
   154  H    1.001889
   155  H    1.000936
   156  H    1.000093
   157  H    1.000408
   158  H    1.000512
 Sum of Mulliken charges = 624.00000

 Dipole moment (field-independent basis, Debye):
    X=             -8.4505    Y=             -0.9647    Z=             -8.1091  Tot=             11.7515
 Quadrupole moment (field-independent basis, Debye-Ang):
   XX=            183.1391   YY=             -1.9905   ZZ=             -1.2642
   XY=             21.5677   XZ=            106.1182   YZ=              4.1597

 Normal termination of Gaussian 16 at Thu Sep 23 02:14:09 2021.
