 Gaussian 16, Revision A.03,
 Gaussian 16:  ES64L-G16RevA.03 25-Dec-2016

 -----------------------------------
 #p cam-b3lyp/Def2SVP td=(nstates=5)
 -----------------------------------

 --------------------------------
 TDDFT excited states in gaussian
 --------------------------------
 Symbolic Z-matrix:
 Charge =  0 Multiplicity = 1

                         Standard orientation:
 ---------------------------------------------------------------------
 Center     Atomic      Atomic             Coordinates (Angstroms)
 Number     Number       Type             X           Y           Z
 ---------------------------------------------------------------------
      1         12           0        8.429646   -0.933002   -0.277234
      2          6           0       10.329049    1.970166   -0.074171
      3          6           0        5.655943    0.854183    0.402504
      4          6           0        6.748817   -3.811882    0.293725
      5          6           0       11.431294   -2.811371   -0.152363
      6          7           0        8.127309    1.153586    0.012852
      7          6           0        8.970014    2.239249   -0.085690
      8          6           0        8.191154    3.557989    0.174680
      9          6           0        6.890391    3.015173    0.842915
     10          6           0        6.821541    1.596207    0.297808
     11          6           0        6.914036    3.002351    2.411952
     12          6           0        8.150983    4.349740   -1.145212
     13          6           0        8.390229    5.803463   -0.990928
     14          1           0        8.808130    6.492589   -2.210182
     15          7           0        6.442724   -1.377327    0.046673
     16          6           0        5.443569   -0.477516    0.237771
     17          6           0        4.182404   -1.161319    0.098653
     18          6           0        4.511977   -2.564223    0.061536
     19          6           0        5.967300   -2.635849    0.221455
     20          6           0        2.863485   -0.476611    0.143882
     21          6           0        3.603391   -3.836566    0.049484
     22          8           0        4.057113   -4.981969    0.008558
     23          6           0        2.108187   -3.725672   -0.058391
     24          7           0        9.072617   -2.978100    0.369009
     25          6           0        8.115455   -4.028759    0.399763
     26          6           0        8.727610   -5.387822    0.483521
     27          6           0       10.195879   -4.999273    0.113179
     28          6           0       10.231868   -3.475187    0.037030
     29          6           0        8.554199   -6.086680    1.874482
     30          6           0       10.680231   -5.613779   -1.250761
     31          6           0        9.747070   -5.373900   -2.464863
     32          7           0       10.470429   -0.551317   -0.248800
     33          6           0       11.577208   -1.414306   -0.250596
     34          6           0       12.729055   -0.592512   -0.261850
     35          6           0       12.272280    0.718984   -0.222247
     36          6           0       10.917036    0.680295   -0.203763
     37          6           0       14.140562   -1.077682   -0.356245
     38          6           0       12.699110    2.035257   -0.120548
     39          8           0       13.856466    2.489269   -0.063566
     40          6           0       11.474951    2.995270   -0.027657
     41          6           0       11.638040    3.910956   -1.280848
     42          8           0       11.501884    3.547831   -2.462751
     43          8           0       11.964214    5.188840   -0.839709
     44          6           0       12.421449    6.194568   -1.850650
     45          1           0        4.852817    1.522551    0.720123
     46          1           0        6.375435   -4.838046    0.331864
     47          1           0       12.376570   -3.330122   -0.325338
     48          1           0        8.760314    4.208655    0.837749
     49          1           0        6.033706    3.563380    0.452039
     50          1           0        7.793537    3.441980    2.883249
     51          1           0        6.951127    1.979747    2.785280
     52          1           0        6.070082    3.586707    2.777945
     53          1           0        7.122627    4.277152   -1.496440
     54          1           0        8.865649    3.889355   -1.827951
     55          1           0        9.221191    5.890394   -0.290701
     56          1           0        7.515369    6.249030   -0.517848
     57          1           0        2.961158    0.590587   -0.054323
     58          1           0        2.347211   -0.794263    1.050409
     59          1           0        2.244606   -0.837538   -0.677666
     60          1           0        1.736806   -4.648642    0.387504
     61          1           0        1.794540   -3.708924   -1.102409
     62          1           0        1.717272   -2.883941    0.514094
     63          1           0        8.361052   -6.085180   -0.271060
     64          1           0       10.857195   -5.331656    0.914006
     65          1           0        8.344075   -5.326683    2.627530
     66          1           0        9.405284   -6.657072    2.246850
     67          1           0        7.741040   -6.809442    1.947417
     68          1           0       10.869962   -6.668127   -1.048904
     69          1           0       11.667507   -5.172368   -1.386514
     70          1           0       10.240951   -4.835849   -3.274234
     71          1           0        8.887497   -4.816524   -2.091577
     72          1           0        9.377237   -6.301644   -2.900432
     73          1           0       14.653936   -0.659737    0.509659
     74          1           0       14.543074   -0.740945   -1.311583
     75          1           0       14.272261   -2.156323   -0.269970
     76          1           0       11.587834    3.602549    0.870043
     77          1           0       13.319043    5.776738   -2.305986
     78          1           0       12.666681    7.195370   -1.495317
     79          1           0       11.534832    6.154111   -2.483464
     80         12           0       -8.860625   -0.388673   -0.067194
     81          6           0       -7.243951    2.590867    0.541593
     82          6           0      -11.367268    1.450222   -1.828865
     83          6           0      -10.642451   -3.125312   -0.381164
     84          6           0       -6.476899   -2.114057    1.804821
     85          7           0       -9.180035    1.775360   -0.545248
     86          6           0       -8.378319    2.795301   -0.225017
     87          6           0       -8.933901    4.100903   -0.881830
     88          6           0      -10.337799    3.676731   -1.514601
     89          6           0      -10.334783    2.161701   -1.233363
     90          6           0      -11.586682    4.221190   -0.848270
     91          6           0       -7.969852    4.792786   -1.857311
     92          6           0       -7.815451    6.268691   -1.530881
     93          1           0       -7.444247    7.286485   -2.619192
     94          7           0      -10.705138   -0.777348   -1.051616
     95          6           0      -11.543292    0.050606   -1.741210
     96          6           0      -12.625942   -0.631701   -2.295500
     97          6           0      -12.535075   -1.978374   -1.797956
     98          6           0      -11.236878   -2.022496   -1.040135
     99          6           0      -13.681179    0.016296   -3.180060
    100          6           0      -13.528077   -3.120161   -1.941550
    101          8           0      -13.333315   -4.161570   -1.285133
    102          6           0      -14.764239   -2.985816   -2.733511
    103          7           0       -8.556297   -2.289905    0.587575
    104          6           0       -9.413406   -3.329163    0.289103
    105          6           0       -8.995043   -4.718730    0.898261
    106          6           0       -7.511533   -4.365873    1.342527
    107          6           0       -7.507241   -2.828234    1.263991
    108          6           0       -9.813698   -5.385563    2.073236
    109          6           0       -6.302271   -5.141433    0.647156
    110          6           0       -5.939205   -4.670731   -0.736437
    111          7           0       -7.295836    0.074221    1.073482
    112          6           0       -6.392921   -0.685276    1.792889
    113          6           0       -5.392678    0.099898    2.392050
    114          6           0       -5.682384    1.372825    1.887340
    115          6           0       -6.853786    1.331200    1.076308
    116          6           0       -4.300362   -0.487825    3.179691
    117          6           0       -5.237987    2.704675    2.039454
    118          8           0       -4.346003    3.121362    2.781184
    119          6           0       -6.222019    3.615645    1.135689
    120          6           0       -6.838967    4.626117    1.976842
    121          8           0       -7.726193    4.457286    2.781778
    122          8           0       -6.215647    5.789303    1.834411
    123          6           0       -6.593439    6.888285    2.670666
    124          1           0      -12.153650    2.026300   -2.320129
    125          1           0      -11.121006   -4.106353   -0.399979
    126          1           0       -5.754255   -2.692386    2.384365
    127          1           0       -9.118378    4.697439    0.011029
    128          1           0      -10.341300    4.109226   -2.515745
    129          1           0      -11.398409    4.944459   -0.054271
    130          1           0      -12.136196    3.414705   -0.363505
    131          1           0      -12.289542    4.566527   -1.607047
    132          1           0       -8.230310    4.692332   -2.911102
    133          1           0       -7.006230    4.290170   -1.777562
    134          1           0       -6.964069    6.334457   -0.852473
    135          1           0       -8.757745    6.573692   -1.076124
    136          1           0      -13.379606    1.012707   -3.503210
    137          1           0      -14.570595    0.208258   -2.579497
    138          1           0      -13.989287   -0.655557   -3.980304
    139          1           0      -15.505810   -3.722631   -2.422786
    140          1           0      -14.504735   -3.223768   -3.765547
    141          1           0      -15.180115   -1.984917   -2.620522
    142          1           0       -8.828888   -5.474462    0.129899
    143          1           0       -7.372519   -4.698695    2.370365
    144          1           0      -10.651445   -4.729375    2.305920
    145          1           0       -9.235103   -5.304092    2.994253
    146          1           0      -10.157713   -6.412548    1.947159
    147          1           0       -6.643296   -6.168078    0.515985
    148          1           0       -5.408460   -5.216673    1.265288
    149          1           0       -4.868200   -4.833222   -0.852312
    150          1           0       -6.188616   -3.664941   -1.072165
    151          1           0       -6.498941   -5.298937   -1.429385
    152          1           0       -3.953050   -1.489383    2.927276
    153          1           0       -4.376684   -0.378311    4.260815
    154          1           0       -3.492411    0.208287    2.955863
    155          1           0       -5.615274    4.097701    0.369392
    156          1           0       -7.397157    7.483457    2.235676
    157          1           0       -5.728252    7.548113    2.732635
    158          1           0       -6.923658    6.518441    3.641490
 ---------------------------------------------------------------------

 SCF Done:  E(RCAM-B3LYP) =  -4069.83095867     A.U. after   19 cycles

 Excitation energies and oscillator strengths:

 Excited State   1:      Singlet-A      1.6569 eV  748.28 nm  f=0.5591  <S**2>=0.000
     310 -> 316       -0.15660
     311 -> 313       -0.16236
     312 -> 314        0.66970
     310 <- 316       -0.10080
 This state for optimization and/or second-order correction.
 Total Energy, E(TD-HF/TD-DFT) =  -4069.77006826
 Copying the excited state density for this state as the 1-particle RhoCI density.

 Excited State   2:      Singlet-A      1.7094 eV  725.31 nm  f=0.2716  <S**2>=0.000
     309 -> 315        0.16830
     311 -> 313        0.66732
     312 -> 314        0.16173
     309 <- 315        0.10253

 Excited State   3:      Singlet-A      2.2174 eV  559.14 nm  f=0.0116  <S**2>=0.000
     309 -> 313        0.33170
     310 -> 314        0.55511
     311 -> 315       -0.12735
     312 -> 316        0.23355

 Excited State   4:      Singlet-A      2.2223 eV  557.92 nm  f=0.2658  <S**2>=0.000
     309 -> 313        0.56301
     310 -> 314       -0.32532
     311 -> 315       -0.21935
     312 -> 316       -0.13923

 Excited State   5:      Singlet-A      2.6684 eV  464.65 nm  f=0.0000  <S**2>=0.000
     312 -> 313        0.70683

 The electronic state is 1-A.
 Alpha  occ. eigenvalues --  -46.88242 -46.87850 -19.25009 -19.24668 -19.19935
 Alpha  occ. eigenvalues --  -19.18801 -19.18788 -19.18704 -19.18384 -19.17577
 Alpha  occ. eigenvalues --  -14.42462 -14.42328 -14.41858 -14.41404 -14.39876
 Alpha  occ. eigenvalues --  -14.39269 -14.39135 -14.38425 -10.39953 -10.38480
 Alpha  occ. eigenvalues --  -10.35256 -10.35009 -10.34707 -10.33559 -10.31905
 Alpha  occ. eigenvalues --  -10.31670 -10.31394 -10.31360 -10.31317 -10.30908
 Alpha  occ. eigenvalues --  -10.30865 -10.30462 -10.30308 -10.30255 -10.30173
 Alpha  occ. eigenvalues --  -10.30151 -10.29561 -10.29228 -10.29221 -10.29150
 Alpha  occ. eigenvalues --  -10.29121 -10.28695 -10.28685 -10.28457 -10.28448
 Alpha  occ. eigenvalues --  -10.28440 -10.28245 -10.28180 -10.28168 -10.28131
 Alpha  occ. eigenvalues --  -10.28121 -10.27855 -10.27801 -10.27801 -10.27776
 Alpha  occ. eigenvalues --  -10.27730 -10.27664 -10.27592 -10.27502 -10.27470
 Alpha  occ. eigenvalues --  -10.27372 -10.27352 -10.27103 -10.26959 -10.26939
 Alpha  occ. eigenvalues --  -10.26876 -10.26768 -10.26649 -10.26438 -10.26431
 Alpha  occ. eigenvalues --  -10.26427 -10.26346 -10.26331 -10.26291 -10.26250
 Alpha  occ. eigenvalues --  -10.25985 -10.25948 -10.25868 -10.25786 -10.25706
 Alpha  occ. eigenvalues --  -10.25673 -10.25643 -10.25531 -10.25133 -10.24815
 Alpha  occ. eigenvalues --  -10.23703  -3.16838  -3.16635  -1.91719  -1.91533
 Alpha  occ. eigenvalues --   -1.91297  -1.91140  -1.91106  -1.90939  -1.18112
 Alpha  occ. eigenvalues --   -1.14341  -1.09447  -1.09055  -1.08643  -1.07975
 Alpha  occ. eigenvalues --   -1.07869  -1.06573  -1.04761  -1.04730  -1.03869
 Alpha  occ. eigenvalues --   -1.03826  -1.03493  -1.03441  -1.02711  -1.02137
 Alpha  occ. eigenvalues --   -0.92451  -0.92263  -0.89528  -0.89005  -0.88949
 Alpha  occ. eigenvalues --   -0.88931  -0.88525  -0.88496  -0.87816  -0.87720
 Alpha  occ. eigenvalues --   -0.87691  -0.87044  -0.86951  -0.86454  -0.84755
 Alpha  occ. eigenvalues --   -0.84500  -0.84023  -0.83436  -0.83108  -0.82535
 Alpha  occ. eigenvalues --   -0.82093  -0.81594  -0.81350  -0.80918  -0.80766
 Alpha  occ. eigenvalues --   -0.80321  -0.78498  -0.78126  -0.77496  -0.77068
 Alpha  occ. eigenvalues --   -0.77003  -0.76840  -0.76139  -0.75940  -0.75439
 Alpha  occ. eigenvalues --   -0.75392  -0.73626  -0.73169  -0.71969  -0.71610
 Alpha  occ. eigenvalues --   -0.69803  -0.69725  -0.69004  -0.68687  -0.67958
 Alpha  occ. eigenvalues --   -0.67449  -0.67304  -0.66458  -0.65557  -0.65254
 Alpha  occ. eigenvalues --   -0.65082  -0.64764  -0.64564  -0.64546  -0.64379
 Alpha  occ. eigenvalues --   -0.64002  -0.62516  -0.61488  -0.60585  -0.60172
 Alpha  occ. eigenvalues --   -0.59820  -0.59695  -0.59168  -0.59055  -0.58671
 Alpha  occ. eigenvalues --   -0.58529  -0.58356  -0.57849  -0.57494  -0.56923
 Alpha  occ. eigenvalues --   -0.56696  -0.56377  -0.55907  -0.55539  -0.55259
 Alpha  occ. eigenvalues --   -0.55246  -0.55007  -0.54831  -0.54689  -0.54525
 Alpha  occ. eigenvalues --   -0.53695  -0.53448  -0.53331  -0.52967  -0.52928
 Alpha  occ. eigenvalues --   -0.52857  -0.52725  -0.52653  -0.52507  -0.52386
 Alpha  occ. eigenvalues --   -0.52293  -0.51882  -0.51866  -0.51594  -0.51506
 Alpha  occ. eigenvalues --   -0.51401  -0.50470  -0.50443  -0.50434  -0.50285
 Alpha  occ. eigenvalues --   -0.50108  -0.49840  -0.49637  -0.49560  -0.49410
 Alpha  occ. eigenvalues --   -0.49331  -0.49307  -0.49138  -0.49123  -0.48824
 Alpha  occ. eigenvalues --   -0.48686  -0.48552  -0.48426  -0.48312  -0.48009
 Alpha  occ. eigenvalues --   -0.47922  -0.47913  -0.47601  -0.47483  -0.47277
 Alpha  occ. eigenvalues --   -0.47044  -0.46958  -0.46666  -0.46563  -0.46514
 Alpha  occ. eigenvalues --   -0.46212  -0.46191  -0.45912  -0.45702  -0.45632
 Alpha  occ. eigenvalues --   -0.45580  -0.45388  -0.45312  -0.45086  -0.44762
 Alpha  occ. eigenvalues --   -0.44556  -0.44536  -0.44421  -0.44117  -0.44076
 Alpha  occ. eigenvalues --   -0.43782  -0.43658  -0.43652  -0.43416  -0.43397
 Alpha  occ. eigenvalues --   -0.43364  -0.43092  -0.42981  -0.42835  -0.42695
 Alpha  occ. eigenvalues --   -0.42624  -0.42291  -0.42158  -0.41880  -0.41767
 Alpha  occ. eigenvalues --   -0.41715  -0.41665  -0.41518  -0.41462  -0.41265
 Alpha  occ. eigenvalues --   -0.41138  -0.40991  -0.40786  -0.40645  -0.40567
 Alpha  occ. eigenvalues --   -0.40221  -0.39856  -0.39353  -0.39061  -0.39036
 Alpha  occ. eigenvalues --   -0.38359  -0.38138  -0.37944  -0.37902  -0.37353
 Alpha  occ. eigenvalues --   -0.37292  -0.36746  -0.36696  -0.36528  -0.36514
 Alpha  occ. eigenvalues --   -0.36345  -0.35999  -0.34400  -0.34109  -0.34058
 Alpha  occ. eigenvalues --   -0.34012  -0.33300  -0.33146  -0.31610  -0.31236
 Alpha  occ. eigenvalues --   -0.30924  -0.30795  -0.30731  -0.30241  -0.29979
 Alpha  occ. eigenvalues --   -0.29937  -0.29644  -0.29326  -0.24291  -0.24160
 Alpha  occ. eigenvalues --   -0.21648  -0.21111
 Alpha virt. eigenvalues --   -0.09268  -0.08925  -0.01589  -0.01439   0.00317
 Alpha virt. eigenvalues --    0.00602   0.02262   0.02306   0.02495   0.02994
 Alpha virt. eigenvalues --    0.05044   0.05150   0.05470   0.05510   0.06231

 Mulliken charges:
               1
     1  Mg   0.820525
     2  C   -0.060179
     3  C   -0.109553
     4  C   -0.010874
     5  C   -0.098153
     6  N   -0.339934
     7  C   -0.020919
     8  C   -0.061467
     9  C   -0.031371
    10  C    0.010122
    11  C    0.081053
    12  C    0.079298
    13  C   -0.068937
    14  H    0.035050
    15  N   -0.383353
    16  C    0.220834
    17  C   -0.158518
    18  C   -0.040385
    19  C    0.171855
    20  C    0.117789
    21  C    0.010873
    22  O   -0.219158
    23  C    0.055207
    24  N   -0.251800
    25  C   -0.074869
    26  C   -0.004065
    27  C   -0.051180
    28  C    0.088343
    29  C    0.063806
    30  C    0.024326
    31  C    0.002247
    32  N   -0.340193
    33  C    0.098570
    34  C   -0.182368
    35  C    0.104014
    36  C    0.159697
    37  C    0.133488
    38  C   -0.059320
    39  O   -0.207930
    40  C    0.035687
    41  C    0.229380
    42  O   -0.242067
    43  O   -0.360221
    44  C    0.180308
    45  H   -0.024530
    46  H   -0.009258
    47  H   -0.021365
    48  H   -0.002160
    49  H   -0.006548
    50  H    0.013597
    51  H    0.031587
    52  H    0.022535
    53  H   -0.003974
    54  H    0.042319
    55  H    0.020530
    56  H    0.017359
    57  H    0.019831
    58  H    0.046480
    59  H    0.019356
    60  H    0.028041
    61  H    0.051471
    62  H    0.006892
    63  H    0.018927
    64  H    0.002939
    65  H    0.017971
    66  H    0.011097
    67  H    0.020227
    68  H    0.004985
    69  H   -0.001535
    70  H    0.023012
    71  H    0.028029
    72  H    0.018832
    73  H    0.034895
    74  H    0.044938
    75  H   -0.002805
    76  H    0.036208
    77  H    0.050213
    78  H    0.051147
    79  H    0.043098
    80  Mg   0.849818
    81  C   -0.032631
    82  C   -0.104299
    83  C   -0.040302
    84  C   -0.103388
    85  N   -0.277077
    86  C   -0.073665
    87  C    0.020030
    88  C   -0.113044
    89  C    0.098557
    90  C    0.051396
    91  C    0.081381
    92  C   -0.091624
    93  H    0.011668
    94  N   -0.341579
    95  C    0.147013
    96  C   -0.163204
    97  C   -0.029578
    98  C    0.149098
    99  C    0.116705
   100  C   -0.008117
   101  O   -0.229504
   102  C    0.068276
   103  N   -0.320819
   104  C    0.008242
   105  C   -0.016929
   106  C   -0.037916
   107  C    0.071422
   108  C    0.076304
   109  C    0.018501
   110  C   -0.003788
   111  N   -0.374974
   112  C    0.118497
   113  C   -0.128163
   114  C    0.016887
   115  C    0.159488
   116  C    0.117251
   117  C    0.021117
   118  O   -0.184910
   119  C   -0.013454
   120  C    0.166840
   121  O   -0.220505
   122  O   -0.295376
   123  C    0.174832
   124  H   -0.024532
   125  H   -0.005610
   126  H   -0.029669
   127  H    0.009761
   128  H    0.017073
   129  H    0.021004
   130  H    0.019604
   131  H    0.013500
   132  H    0.015566
   133  H    0.005273
   134  H    0.041042
   135  H    0.035868
   136  H    0.018960
   137  H    0.034340
   138  H    0.033656
   139  H    0.029642
   140  H    0.043864
   141  H    0.024238
   142  H    0.010701
   143  H    0.001700
   144  H    0.018333
   145  H    0.006935
   146  H    0.035050
   147  H    0.004687
   148  H    0.008681
   149  H    0.014337
   150  H    0.026591
   151  H    0.008089
   152  H    0.024188
   153  H    0.031262
   154  H    0.020090
   155  H    0.035285
   156  H    0.025263
   157  H    0.036778
   158  H    0.049970
 Sum of Mulliken charges =  -0.00000

 Dipole moment (field-independent basis, Debye):
    X=             -5.7448    Y=             -0.0734    Z=             -3.0462  Tot=              6.5028
 Quadrupole moment (field-independent basis, Debye-Ang):
   XX=           -538.0251   YY=           -478.4568   ZZ=           -515.3025
   XY=            -39.0464   XZ=             46.0063   YZ=            -12.0787

 Normal termination of Gaussian 16 at Wed Sep 15 10:22:18 2021.
