 Gaussian 16, Revision A.03,
 Gaussian 16:  ES64L-G16RevA.03 25-Dec-2016

 ----------------------------------------------------------
 #p cam-b3lyp/Def2SVP td=(nstates=5) density=(transition=1)
 ----------------------------------------------------------

 --------------------------------
 TDDFT excited states in gaussian
 --------------------------------
 Symbolic Z-matrix:
 Charge =  0 Multiplicity = 1

                         Standard orientation:
 ---------------------------------------------------------------------
 Center     Atomic      Atomic             Coordinates (Angstroms)
 Number     Number       Type             X           Y           Z
 ---------------------------------------------------------------------
      1         12           0      -26.718792   -0.597207   -0.039187
      2          6           0      -25.430795    2.296597   -1.537322
      3          6           0      -27.053425    1.237158    2.970649
      4          6           0      -27.640715   -3.462707    1.531944
      5          6           0      -25.657432   -2.406877   -2.781383
      6          7           0      -26.439304    1.525757    0.532498
      7          6           0      -26.063801    2.546881   -0.345170
      8          6           0      -26.432856    3.934780    0.292172
      9          6           0      -26.842306    3.547957    1.718023
     10          6           0      -26.729699    1.984422    1.773951
     11          6           0      -25.908733    4.230978    2.753474
     12          6           0      -27.507499    4.592983   -0.564512
     13          6           0      -27.578444    6.111177   -0.580112
     14          1           0      -26.788056    6.891416    0.494554
     15          7           0      -27.289403   -1.095357    1.955730
     16          6           0      -27.332712   -0.206165    3.046386
     17          6           0      -27.720833   -0.904206    4.259441
     18          6           0      -27.979328   -2.285241    3.899506
     19          6           0      -27.617203   -2.330406    2.418006
     20          6           0      -27.996016   -0.216351    5.602710
     21          6           0      -28.479270   -3.451401    4.730390
     22          8           0      -28.648689   -4.548723    4.215722
     23          6           0      -28.957191   -3.188404    6.106684
     24          7           0      -26.706245   -2.649734   -0.616355
     25          6           0      -27.226006   -3.623150    0.182219
     26          6           0      -27.294714   -4.960649   -0.600344
     27          6           0      -26.714222   -4.621521   -2.027920
     28          6           0      -26.424500   -3.105374   -1.880237
     29          6           0      -26.514387   -6.058052    0.145252
     30          6           0      -27.696385   -4.857283   -3.206005
     31          6           0      -27.337519   -6.165786   -3.903393
     32          7           0      -25.640613   -0.249695   -1.798281
     33          6           0      -25.206801   -1.055406   -2.797591
     34          6           0      -24.309913   -0.247510   -3.659369
     35          6           0      -24.445071    1.057600   -3.286044
     36          6           0      -25.236662    0.990558   -2.111102
     37          6           0      -23.595108   -0.857684   -4.853303
     38          6           0      -24.109872    2.457343   -3.579826
     39          8           0      -23.403930    2.913486   -4.471130
     40          6           0      -24.812577    3.271127   -2.510372
     41          6           0      -23.783151    4.165145   -1.957074
     42          8           0      -22.873236    3.934966   -1.149108
     43          8           0      -23.933586    5.394355   -2.565732
     44          6           0      -22.970646    6.415824   -2.215767
     45          1           0      -27.218793    1.854763    3.855648
     46          1           0      -28.049436   -4.312823    2.082193
     47          1           0      -25.276289   -3.062314   -3.567346
     48          1           0      -25.463916    4.433463    0.247061
     49          1           0      -27.808736    4.022526    1.887740
     50          1           0      -25.244869    3.553539    3.290829
     51          1           0      -26.549528    4.534347    3.580908
     52          1           0      -25.282603    4.999238    2.300197
     53          1           0      -28.434793    4.124228   -0.233725
     54          1           0      -27.410139    4.232014   -1.587711
     55          1           0      -28.625614    6.409600   -0.554558
     56          1           0      -27.202760    6.327463   -1.580821
     57          1           0      -27.722925    0.838849    5.623581
     58          1           0      -27.435403   -0.713741    6.395302
     59          1           0      -29.038481   -0.384435    5.870520
     60          1           0      -29.843273   -2.555597    6.050687
     61          1           0      -28.137709   -2.875595    6.753710
     62          1           0      -29.337473   -4.092271    6.582717
     63          1           0      -28.337059   -5.278290   -0.614423
     64          1           0      -25.771954   -5.167894   -2.086401
     65          1           0      -25.711997   -6.547022   -0.406419
     66          1           0      -27.319588   -6.780918    0.274708
     67          1           0      -26.001765   -5.719179    1.045083
     68          1           0      -27.491478   -4.154341   -4.013658
     69          1           0      -28.744903   -4.873159   -2.907980
     70          1           0      -28.297724   -6.670335   -4.009709
     71          1           0      -26.774627   -6.863807   -3.284173
     72          1           0      -26.848730   -6.061900   -4.872501
     73          1           0      -23.599201   -1.947282   -4.892444
     74          1           0      -22.558159   -0.533361   -4.931745
     75          1           0      -24.171313   -0.623482   -5.749116
     76          1           0      -25.619241    3.822653   -2.992200
     77          1           0      -21.976232    5.986020   -2.338921
     78          1           0      -23.069070    6.774683   -1.191016
     79          1           0      -22.969985    7.093740   -3.068632
     80         12           0       26.774044   -0.557393    0.093380
     81          6           0       24.532486    2.035620    0.943043
     82          6           0       28.767888    1.704961   -1.514258
     83          6           0       28.417436   -3.101487   -1.209285
     84          6           0       24.390495   -2.858850    1.361385
     85          7           0       26.689587    1.651560   -0.130929
     86          6           0       25.724310    2.441201    0.296713
     87          6           0       26.221000    3.874458    0.237790
     88          6           0       27.311536    3.830743   -0.900891
     89          6           0       27.631630    2.289570   -0.878450
     90          6           0       26.762983    4.441335   -2.246260
     91          6           0       26.886133    4.327817    1.562754
     92          6           0       26.973227    5.901152    1.788445
     93          1           0       26.464653    6.898715    0.744234
     94          7           0       28.458902   -0.676394   -0.992794
     95          6           0       29.234408    0.378265   -1.539072
     96          6           0       30.429132   -0.212715   -2.185981
     97          6           0       30.274111   -1.645300   -2.163764
     98          6           0       29.014799   -1.914564   -1.436287
     99          6           0       31.552300    0.589393   -2.742066
    100          6           0       31.166599   -2.829613   -2.703943
    101          8           0       30.919916   -4.028184   -2.512630
    102          6           0       32.308220   -2.498171   -3.620776
    103          7           0       26.388495   -2.708358   -0.022247
    104          6           0       27.240577   -3.537388   -0.564299
    105          6           0       26.886353   -4.992950   -0.441917
    106          6           0       25.559215   -4.937403    0.393502
    107          6           0       25.462975   -3.407072    0.690118
    108          6           0       26.871967   -5.692067   -1.804465
    109          6           0       25.583294   -5.747935    1.683309
    110          6           0       24.271375   -6.530417    2.049099
    111          7           0       24.835846   -0.511130    1.068013
    112          6           0       24.017049   -1.545521    1.561937
    113          6           0       22.939717   -0.966584    2.288395
    114          6           0       22.971800    0.422648    1.945170
    115          6           0       24.140601    0.648970    1.263439
    116          6           0       22.027491   -1.695601    3.232758
    117          6           0       22.414509    1.784707    2.125905
    118          8           0       21.413229    2.147024    2.707819
    119          6           0       23.298580    2.794697    1.250620
    120          6           0       23.321281    4.152301    1.873107
    121          8           0       23.747900    4.436109    2.953439
    122          8           0       22.670318    5.098894    1.060051
    123          6           0       22.000587    6.218570    1.755200
    124          1           0       29.343026    2.327056   -2.203840
    125          1           0       28.959538   -4.012054   -1.470506
    126          1           0       23.715993   -3.592414    1.808078
    127          1           0       25.299277    4.444644    0.122444
    128          1           0       28.205815    4.388784   -0.621446
    129          1           0       25.727761    4.757568   -2.122594
    130          1           0       26.702729    3.577518   -2.908332
    131          1           0       27.312985    5.308454   -2.612128
    132          1           0       27.899409    3.928638    1.501908
    133          1           0       26.347289    3.838496    2.374040
    134          1           0       28.030894    6.088546    1.979868
    135          1           0       26.460734    6.071543    2.735552
    136          1           0       31.599178    1.656880   -2.529750
    137          1           0       31.573124    0.572677   -3.831379
    138          1           0       32.437161    0.136320   -2.294329
    139          1           0       33.240115   -2.267376   -3.104849
    140          1           0       31.866681   -1.651706   -4.148180
    141          1           0       32.405309   -3.348280   -4.295488
    142          1           0       27.708101   -5.369540    0.167053
    143          1           0       24.676135   -5.259766   -0.156808
    144          1           0       26.678535   -5.022199   -2.642863
    145          1           0       26.033927   -6.386373   -1.757876
    146          1           0       27.800241   -6.223708   -2.014825
    147          1           0       25.802371   -5.113355    2.541870
    148          1           0       26.496743   -6.337109    1.603552
    149          1           0       23.451615   -6.270354    1.379643
    150          1           0       24.023802   -6.185701    3.052863
    151          1           0       24.303134   -7.619561    2.093123
    152          1           0       21.703347   -2.577775    2.680458
    153          1           0       21.142936   -1.134212    3.534154
    154          1           0       22.592431   -2.048344    4.096198
    155          1           0       22.763771    3.007323    0.325500
    156          1           0       22.508796    7.139330    1.468416
    157          1           0       21.997811    6.091889    2.838370
    158          1           0       20.977570    6.215142    1.379086
 ---------------------------------------------------------------------

 SCF Done:  E(RCAM-B3LYP) =  -4069.79547604     A.U. after   19 cycles

 Excitation energies and oscillator strengths:

 Excited State   1:      Singlet-A      1.6782 eV  738.80 nm  f=0.3954  <S**2>=0.000
     309 -> 316       -0.17298
     312 -> 313        0.68712
     309 <- 316       -0.10455
 This state for optimization and/or second-order correction.
 Total Energy, E(TD-HF/TD-DFT) =  -4069.73380362
 Copying the excited state density for this state as the 1-particle RhoCI density.

 Excited State   2:      Singlet-A      1.7948 eV  690.78 nm  f=0.3732  <S**2>=0.000
     310 -> 315        0.18888
     311 -> 314        0.68030
     310 <- 315        0.10306

 Excited State   3:      Singlet-A      2.1692 eV  571.56 nm  f=0.0984  <S**2>=0.000
     310 -> 314        0.64306
     311 -> 315       -0.27291

 Excited State   4:      Singlet-A      2.1968 eV  564.39 nm  f=0.1212  <S**2>=0.000
     309 -> 313        0.64517
     312 -> 316        0.27390

 Excited State   5:      Singlet-A      3.2124 eV  385.96 nm  f=0.0000  <S**2>=0.000
     312 -> 314        0.70710

 The electronic state is 1-A.
 Alpha  occ. eigenvalues --  -46.89095 -46.88516 -19.24431 -19.23241 -19.20284
 Alpha  occ. eigenvalues --  -19.19769 -19.19552 -19.19274 -19.19184 -19.18341
 Alpha  occ. eigenvalues --  -14.42167 -14.41944 -14.41718 -14.41717 -14.40097
 Alpha  occ. eigenvalues --  -14.39720 -14.39180 -14.37981 -10.39338 -10.38524
 Alpha  occ. eigenvalues --  -10.36775 -10.35458 -10.35380 -10.34789 -10.32191
 Alpha  occ. eigenvalues --  -10.31970 -10.31525 -10.31183 -10.31133 -10.30969
 Alpha  occ. eigenvalues --  -10.30944 -10.30858 -10.30792 -10.30627 -10.30612
 Alpha  occ. eigenvalues --  -10.30587 -10.30072 -10.30062 -10.29710 -10.29516
 Alpha  occ. eigenvalues --  -10.29323 -10.29185 -10.29034 -10.28571 -10.28381
 Alpha  occ. eigenvalues --  -10.28186 -10.28165 -10.28148 -10.28068 -10.28024
 Alpha  occ. eigenvalues --  -10.27958 -10.27869 -10.27832 -10.27754 -10.27747
 Alpha  occ. eigenvalues --  -10.27672 -10.27647 -10.27608 -10.27603 -10.27591
 Alpha  occ. eigenvalues --  -10.27575 -10.27570 -10.27542 -10.27376 -10.27364
 Alpha  occ. eigenvalues --  -10.26877 -10.26772 -10.26674 -10.26505 -10.26473
 Alpha  occ. eigenvalues --  -10.26271 -10.26205 -10.26198 -10.26132 -10.26056
 Alpha  occ. eigenvalues --  -10.25955 -10.25850 -10.25840 -10.25593 -10.25504
 Alpha  occ. eigenvalues --  -10.25484 -10.25424 -10.25240 -10.24987 -10.24751
 Alpha  occ. eigenvalues --  -10.24401  -3.17493  -3.16977  -1.92406  -1.91907
 Alpha  occ. eigenvalues --   -1.91890  -1.91824  -1.91434  -1.91273  -1.15769
 Alpha  occ. eigenvalues --   -1.15177  -1.10462  -1.10437  -1.09987  -1.09518
 Alpha  occ. eigenvalues --   -1.06973  -1.06841  -1.05083  -1.04496  -1.04299
 Alpha  occ. eigenvalues --   -1.02766  -1.02615  -1.01671  -1.01605  -1.00947
 Alpha  occ. eigenvalues --   -0.93347  -0.91793  -0.89260  -0.89246  -0.88879
 Alpha  occ. eigenvalues --   -0.88760  -0.87943  -0.87723  -0.87572  -0.87213
 Alpha  occ. eigenvalues --   -0.87086  -0.86832  -0.85575  -0.85417  -0.84287
 Alpha  occ. eigenvalues --   -0.83960  -0.83860  -0.83665  -0.82846  -0.82705
 Alpha  occ. eigenvalues --   -0.82361  -0.81674  -0.80873  -0.80650  -0.79998
 Alpha  occ. eigenvalues --   -0.79842  -0.78577  -0.78075  -0.77238  -0.77166
 Alpha  occ. eigenvalues --   -0.76791  -0.76355  -0.75935  -0.75376  -0.75126
 Alpha  occ. eigenvalues --   -0.74514  -0.72513  -0.72484  -0.71673  -0.70985
 Alpha  occ. eigenvalues --   -0.69805  -0.69039  -0.68599  -0.68468  -0.67902
 Alpha  occ. eigenvalues --   -0.67229  -0.67049  -0.66608  -0.66021  -0.65403
 Alpha  occ. eigenvalues --   -0.65171  -0.64895  -0.64611  -0.64501  -0.63874
 Alpha  occ. eigenvalues --   -0.63442  -0.62104  -0.61024  -0.60181  -0.60101
 Alpha  occ. eigenvalues --   -0.59624  -0.59079  -0.59070  -0.58771  -0.58578
 Alpha  occ. eigenvalues --   -0.58329  -0.58033  -0.57616  -0.57518  -0.56807
 Alpha  occ. eigenvalues --   -0.56434  -0.55864  -0.55744  -0.55413  -0.55065
 Alpha  occ. eigenvalues --   -0.55057  -0.54751  -0.54242  -0.53659  -0.53610
 Alpha  occ. eigenvalues --   -0.53577  -0.53393  -0.53295  -0.53176  -0.53095
 Alpha  occ. eigenvalues --   -0.52886  -0.52801  -0.52795  -0.52155  -0.51996
 Alpha  occ. eigenvalues --   -0.51866  -0.51709  -0.51699  -0.51353  -0.51341
 Alpha  occ. eigenvalues --   -0.51177  -0.50886  -0.50749  -0.50486  -0.50310
 Alpha  occ. eigenvalues --   -0.50152  -0.50009  -0.49805  -0.49596  -0.49284
 Alpha  occ. eigenvalues --   -0.49258  -0.49228  -0.49001  -0.48915  -0.48630
 Alpha  occ. eigenvalues --   -0.48623  -0.48309  -0.48143  -0.48001  -0.47838
 Alpha  occ. eigenvalues --   -0.47814  -0.47497  -0.47375  -0.47293  -0.47109
 Alpha  occ. eigenvalues --   -0.46997  -0.46710  -0.46536  -0.46469  -0.46375
 Alpha  occ. eigenvalues --   -0.46128  -0.46010  -0.45864  -0.45537  -0.45424
 Alpha  occ. eigenvalues --   -0.45210  -0.45019  -0.44966  -0.44853  -0.44712
 Alpha  occ. eigenvalues --   -0.44427  -0.44369  -0.44230  -0.44196  -0.43921
 Alpha  occ. eigenvalues --   -0.43697  -0.43571  -0.43377  -0.43305  -0.43154
 Alpha  occ. eigenvalues --   -0.43052  -0.43015  -0.42780  -0.42715  -0.42597
 Alpha  occ. eigenvalues --   -0.42578  -0.42340  -0.42232  -0.41989  -0.41857
 Alpha  occ. eigenvalues --   -0.41666  -0.41530  -0.41507  -0.41333  -0.41221
 Alpha  occ. eigenvalues --   -0.41126  -0.41046  -0.40954  -0.40413  -0.40114
 Alpha  occ. eigenvalues --   -0.39978  -0.39953  -0.39035  -0.38906  -0.38763
 Alpha  occ. eigenvalues --   -0.38444  -0.38001  -0.37938  -0.37735  -0.37701
 Alpha  occ. eigenvalues --   -0.37537  -0.36425  -0.36355  -0.36285  -0.35824
 Alpha  occ. eigenvalues --   -0.35731  -0.35379  -0.34340  -0.34148  -0.34065
 Alpha  occ. eigenvalues --   -0.33773  -0.33077  -0.32596  -0.31880  -0.31554
 Alpha  occ. eigenvalues --   -0.31435  -0.31253  -0.31167  -0.30452  -0.30254
 Alpha  occ. eigenvalues --   -0.29962  -0.29899  -0.28277  -0.23781  -0.23704
 Alpha  occ. eigenvalues --   -0.21306  -0.20915
 Alpha virt. eigenvalues --   -0.08647  -0.08466  -0.02002  -0.01442  -0.00102
 Alpha virt. eigenvalues --    0.00206   0.01845   0.02530   0.02742   0.03031
 Alpha virt. eigenvalues --    0.04845   0.05158   0.05227   0.05790   0.05893

 Mulliken charges:
               1
     1  Mg  11.999572
     2  C    6.029252
     3  C    5.987350
     4  C    5.970281
     5  C    6.011592
     6  N    7.014893
     7  C    5.961788
     8  C    6.005826
     9  C    5.987237
    10  C    6.032705
    11  C    5.997761
    12  C    6.004701
    13  C    6.000020
    14  H    0.992772
    15  N    6.990628
    16  C    6.045778
    17  C    6.017427
    18  C    6.019869
    19  C    6.036337
    20  C    5.996009
    21  C    6.014140
    22  O    8.030915
    23  C    5.991500
    24  N    6.992715
    25  C    6.037845
    26  C    5.991307
    27  C    6.012548
    28  C    5.970346
    29  C    5.997306
    30  C    6.004862
    31  C    6.001998
    32  N    7.004343
    33  C    5.958592
    34  C    5.970377
    35  C    5.997627
    36  C    5.959395
    37  C    6.004809
    38  C    5.981963
    39  O    7.972006
    40  C    5.998918
    41  C    5.996552
    42  O    7.992248
    43  O    7.999447
    44  C    6.001711
    45  H    1.013452
    46  H    1.001371
    47  H    0.988132
    48  H    1.002753
    49  H    1.007335
    50  H    0.998832
    51  H    0.999306
    52  H    1.014132
    53  H    0.989691
    54  H    1.008151
    55  H    0.996518
    56  H    1.004516
    57  H    1.018018
    58  H    1.018835
    59  H    1.018414
    60  H    1.007688
    61  H    1.007929
    62  H    1.016030
    63  H    0.998833
    64  H    0.995897
    65  H    1.009624
    66  H    1.000364
    67  H    0.994869
    68  H    1.005136
    69  H    0.989669
    70  H    0.994068
    71  H    0.994057
    72  H    1.001425
    73  H    0.980276
    74  H    0.979982
    75  H    0.977563
    76  H    0.992492
    77  H    0.999360
    78  H    0.992863
    79  H    0.997156
    80  Mg  11.999996
    81  C    6.000018
    82  C    6.000006
    83  C    6.000000
    84  C    5.999997
    85  N    7.000029
    86  C    5.999993
    87  C    6.000004
    88  C    5.999991
    89  C    5.999986
    90  C    6.000005
    91  C    5.999995
    92  C    6.000003
    93  H    1.000023
    94  N    6.999983
    95  C    5.999989
    96  C    6.000017
    97  C    5.999999
    98  C    6.000012
    99  C    5.999996
   100  C    5.999979
   101  O    7.999992
   102  C    5.999995
   103  N    6.999975
   104  C    6.000010
   105  C    5.999990
   106  C    6.000011
   107  C    6.000005
   108  C    6.000007
   109  C    5.999995
   110  C    6.000000
   111  N    7.000005
   112  C    6.000018
   113  C    5.999999
   114  C    5.999997
   115  C    5.999989
   116  C    6.000001
   117  C    6.000011
   118  O    8.000016
   119  C    6.000010
   120  C    5.999994
   121  O    7.999986
   122  O    8.000014
   123  C    5.999997
   124  H    1.000003
   125  H    0.999985
   126  H    0.999998
   127  H    1.000014
   128  H    0.999988
   129  H    1.000010
   130  H    1.000014
   131  H    0.999998
   132  H    0.999993
   133  H    0.999986
   134  H    0.999986
   135  H    0.999988
   136  H    0.999986
   137  H    1.000000
   138  H    0.999975
   139  H    0.999978
   140  H    1.000014
   141  H    0.999994
   142  H    0.999981
   143  H    1.000020
   144  H    1.000021
   145  H    0.999999
   146  H    0.999990
   147  H    0.999981
   148  H    0.999992
   149  H    1.000022
   150  H    0.999982
   151  H    0.999996
   152  H    1.000025
   153  H    1.000016
   154  H    0.999981
   155  H    1.000032
   156  H    1.000004
   157  H    0.999979
   158  H    1.000030
 Sum of Mulliken charges = 624.00000

 Dipole moment (field-independent basis, Debye):
    X=             -4.2904    Y=             -1.9261    Z=             10.1058  Tot=             11.1465
 Quadrupole moment (field-independent basis, Debye-Ang):
   XX=            222.8777   YY=             -0.0417   ZZ=              6.4039
   XY=             52.5696   XZ=           -265.9753   YZ=             -7.6140

 Normal termination of Gaussian 16 at Wed Sep 22 20:57:38 2021.
