 Gaussian 16, Revision A.03,
 Gaussian 16:  ES64L-G16RevA.03 25-Dec-2016

 ----------------------------------------------------------
 #p cam-b3lyp/Def2SVP td=(nstates=5) density=(transition=1)
 ----------------------------------------------------------

 --------------------------------
 TDDFT excited states in gaussian
 --------------------------------
 Symbolic Z-matrix:
 Charge =  0 Multiplicity = 1

                         Standard orientation:
 ---------------------------------------------------------------------
 Center     Atomic      Atomic             Coordinates (Angstroms)
 Number     Number       Type             X           Y           Z
 ---------------------------------------------------------------------
      1         12           0       18.352247   -0.730093   -0.007502
      2          6           0       15.691654    1.657689    0.262139
      3          6           0       20.169116    1.228809    2.172687
      4          6           0       20.947947   -2.566540   -0.759175
      5          6           0       16.401631   -2.395140   -2.338413
      6          7           0       18.059477    1.430135    0.905179
      7          6           0       16.850456    2.070971    0.931922
      8          6           0       16.883632    3.194180    2.002762
      9          6           0       18.354719    3.105481    2.588719
     10          6           0       18.961606    1.855924    1.852335
     11          6           0       19.303600    4.363631    2.404663
     12          6           0       15.816362    3.070620    3.122796
     13          6           0       15.076352    4.299809    3.514633
     14          1           0       15.581899    5.758702    3.196442
     15          7           0       20.360083   -0.696463    0.611342
     16          6           0       20.913470    0.092024    1.619830
     17          6           0       22.347677   -0.231707    1.743703
     18          6           0       22.541835   -1.431352    0.956829
     19          6           0       21.270009   -1.610276    0.218643
     20          6           0       23.347340    0.498791    2.588251
     21          6           0       23.768523   -2.362243    0.810129
     22          8           0       23.735198   -3.523748    0.351774
     23          6           0       25.039807   -1.911053    1.408744
     24          7           0       18.614802   -2.171638   -1.364032
     25          6           0       19.858397   -2.744327   -1.516515
     26          6           0       19.789987   -3.999134   -2.430414
     27          6           0       18.215774   -4.135394   -2.630869
     28          6           0       17.689141   -2.827855   -2.065248
     29          6           0       20.601935   -3.980299   -3.789331
     30          6           0       17.535636   -5.326780   -1.975234
     31          6           0       16.920891   -6.360050   -2.942452
     32          7           0       16.376311   -0.574567   -0.742582
     33          6           0       15.739192   -1.312292   -1.712107
     34          6           0       14.411219   -0.745875   -1.982168
     35          6           0       14.356933    0.378158   -1.177199
     36          6           0       15.563677    0.447688   -0.445877
     37          6           0       13.372166   -1.200839   -2.953089
     38          6           0       13.484875    1.437040   -0.815276
     39          8           0       12.278948    1.679571   -1.105864
     40          6           0       14.272500    2.285685    0.090383
     41          6           0       14.258383    3.711318   -0.391046
     42          8           0       14.816222    4.115512   -1.353374
     43          8           0       13.579855    4.473257    0.466578
     44          6           0       13.172737    5.778945    0.071687
     45          1           0       20.817130    1.794444    2.845675
     46          1           0       21.709169   -3.283741   -1.076002
     47          1           0       15.827926   -2.881022   -3.129367
     48          1           0       16.722194    4.126138    1.459748
     49          1           0       18.316325    2.880542    3.654143
     50          1           0       18.819882    5.260559    2.018847
     51          1           0       20.036032    4.093351    1.642615
     52          1           0       19.833846    4.579764    3.332644
     53          1           0       16.232814    2.720165    4.067897
     54          1           0       15.016669    2.375738    2.868035
     55          1           0       15.002272    4.352948    4.601236
     56          1           0       14.071083    4.215229    3.102788
     57          1           0       24.189864    0.804168    1.968149
     58          1           0       23.699792   -0.217098    3.330807
     59          1           0       22.872877    1.271931    3.193486
     60          1           0       25.341871   -1.001960    0.888643
     61          1           0       25.766965   -2.681238    1.152674
     62          1           0       24.991011   -1.874999    2.496715
     63          1           0       20.129254   -4.827604   -1.807794
     64          1           0       18.042494   -4.203682   -3.704793
     65          1           0       21.135399   -3.036219   -3.893975
     66          1           0       19.991400   -4.233509   -4.656915
     67          1           0       21.314705   -4.804018   -3.746895
     68          1           0       16.827126   -5.106669   -1.176569
     69          1           0       18.314388   -5.877866   -1.449077
     70          1           0       15.929384   -6.739271   -2.695860
     71          1           0       17.492223   -7.280084   -2.816189
     72          1           0       16.860113   -6.048976   -3.984477
     73          1           0       13.528494   -2.227933   -3.284088
     74          1           0       13.472262   -0.653410   -3.890208
     75          1           0       12.407835   -0.947770   -2.512668
     76          1           0       13.781508    2.218606    1.060867
     77          1           0       12.344610    5.640486   -0.624824
     78          1           0       13.948234    6.267681   -0.518282
     79          1           0       12.795525    6.348186    0.921676
     80         12           0      -18.544195   -0.233829    0.499850
     81          6           0      -15.799992    1.714393   -0.533214
     82          6           0      -19.854656    0.266191   -2.682363
     83          6           0      -20.966577   -2.410965    1.195339
     84          6           0      -16.627156   -1.310005    3.185032
     85          7           0      -17.757422    0.757739   -1.428136
     86          6           0      -16.682959    1.605427   -1.614806
     87          6           0      -16.744862    2.468606   -2.857434
     88          6           0      -18.060932    2.018926   -3.535653
     89          6           0      -18.610021    0.947776   -2.537221
     90          6           0      -19.090143    3.190657   -3.804588
     91          6           0      -15.516672    2.352550   -3.866504
     92          6           0      -14.795013    0.999083   -3.971094
     93          1           0      -15.070420    0.109471   -5.219421
     94          7           0      -20.150153   -0.943581   -0.570126
     95          6           0      -20.553548   -0.580333   -1.823543
     96          6           0      -21.836109   -1.223003   -2.142904
     97          6           0      -22.185034   -2.016820   -1.007643
     98          6           0      -21.051475   -1.810750   -0.054678
     99          6           0      -22.587029   -1.004893   -3.451077
    100          6           0      -23.471628   -2.921673   -1.071194
    101          8           0      -24.110060   -2.936911   -2.114374
    102          6           0      -23.858444   -3.848912    0.156668
    103          7           0      -18.692574   -1.714293    1.884261
    104          6           0      -19.883538   -2.405219    2.095607
    105          6           0      -19.790112   -3.312724    3.448432
    106          6           0      -18.270553   -2.983832    3.916403
    107          6           0      -17.854468   -1.936537    2.934272
    108          6           0      -20.874045   -2.935066    4.500582
    109          6           0      -17.275096   -4.222077    3.908976
    110          6           0      -16.452150   -4.523117    5.171172
    111          7           0      -16.637987    0.195052    1.300809
    112          6           0      -15.961331   -0.306819    2.382898
    113          6           0      -14.624157    0.321226    2.432652
    114          6           0      -14.595637    1.223023    1.335212
    115          6           0      -15.840388    1.050267    0.667835
    116          6           0      -13.518291    0.053996    3.415748
    117          6           0      -13.705907    2.159551    0.623079
    118          8           0      -12.590692    2.630304    0.890561
    119          6           0      -14.571049    2.658105   -0.524866
    120          6           0      -14.865810    4.048470   -0.434286
    121          8           0      -15.757494    4.492633    0.334430
    122          8           0      -14.072029    4.803809   -1.320133
    123          6           0      -14.363468    6.226159   -1.467635
    124          1           0      -20.395982    0.524440   -3.594546
    125          1           0      -21.818250   -3.008847    1.525195
    126          1           0      -16.114604   -1.654416    4.085163
    127          1           0      -16.791208    3.474725   -2.442411
    128          1           0      -17.755811    1.439505   -4.406266
    129          1           0      -19.167539    3.365786   -4.877604
    130          1           0      -18.688657    4.064334   -3.290470
    131          1           0      -20.084908    2.939804   -3.434828
    132          1           0      -14.815762    3.061595   -3.424135
    133          1           0      -15.824229    2.721217   -4.845340
    134          1           0      -14.997241    0.387348   -3.091270
    135          1           0      -13.723360    1.182602   -3.905984
    136          1           0      -22.507855   -1.824315   -4.165520
    137          1           0      -22.395007   -0.009605   -3.852057
    138          1           0      -23.654552   -0.884594   -3.267461
    139          1           0      -23.795921   -3.228417    1.050958
    140          1           0      -23.140097   -4.667840    0.183646
    141          1           0      -24.776495   -4.418062    0.010552
    142          1           0      -20.043719   -4.327352    3.142773
    143          1           0      -18.336995   -2.519266    4.900465
    144          1           0      -20.422411   -2.224030    5.192044
    145          1           0      -21.312678   -3.805926    4.987858
    146          1           0      -21.768411   -2.480112    4.075193
    147          1           0      -16.625841   -4.091911    3.042572
    148          1           0      -17.966596   -5.049385    3.749366
    149          1           0      -15.581407   -5.142565    4.954497
    150          1           0      -17.171079   -5.057625    5.791685
    151          1           0      -16.166250   -3.538646    5.542145
    152          1           0      -13.705130   -0.965954    3.750660
    153          1           0      -13.764471    0.735784    4.229767
    154          1           0      -12.512852    0.280418    3.059669
    155          1           0      -13.935077    2.437477   -1.381882
    156          1           0      -14.209131    6.862747   -0.596368
    157          1           0      -15.393866    6.362185   -1.797392
    158          1           0      -13.820328    6.559214   -2.352193
 ---------------------------------------------------------------------

 SCF Done:  E(RCAM-B3LYP) =  -4069.79895381     A.U. after   18 cycles

 Excitation energies and oscillator strengths:

 Excited State   1:      Singlet-A      1.7175 eV  721.90 nm  f=0.6560  <S**2>=0.000
     309 -> 315       -0.16713
     311 -> 313       -0.26683
     312 -> 314        0.63133
 This state for optimization and/or second-order correction.
 Total Energy, E(TD-HF/TD-DFT) =  -4069.73583826
 Copying the excited state density for this state as the 1-particle RhoCI density.

 Excited State   2:      Singlet-A      1.7207 eV  720.55 nm  f=0.1449  <S**2>=0.000
     310 -> 316        0.16259
     311 -> 313        0.63311
     312 -> 314        0.26595

 Excited State   3:      Singlet-A      2.2104 eV  560.92 nm  f=0.1293  <S**2>=0.000
     310 -> 313        0.65014
     311 -> 316       -0.26635

 Excited State   4:      Singlet-A      2.3104 eV  536.64 nm  f=0.0712  <S**2>=0.000
     309 -> 314        0.61631
     312 -> 315        0.33584

 Excited State   5:      Singlet-A      2.9756 eV  416.66 nm  f=0.0000  <S**2>=0.000
     312 -> 313        0.70709

 The electronic state is 1-A.
 Alpha  occ. eigenvalues --  -46.88918 -46.88887 -19.25779 -19.24969 -19.20224
 Alpha  occ. eigenvalues --  -19.19623 -19.19608 -19.19181 -19.18997 -19.18528
 Alpha  occ. eigenvalues --  -14.42628 -14.42074 -14.42032 -14.41596 -14.39950
 Alpha  occ. eigenvalues --  -14.39671 -14.39536 -14.39306 -10.40011 -10.39017
 Alpha  occ. eigenvalues --  -10.36487 -10.35339 -10.34940 -10.34680 -10.32102
 Alpha  occ. eigenvalues --  -10.31870 -10.31677 -10.31471 -10.31339 -10.31006
 Alpha  occ. eigenvalues --  -10.30931 -10.30927 -10.30630 -10.30576 -10.30526
 Alpha  occ. eigenvalues --  -10.30133 -10.30080 -10.29830 -10.29676 -10.29526
 Alpha  occ. eigenvalues --  -10.29292 -10.29273 -10.28986 -10.28733 -10.28727
 Alpha  occ. eigenvalues --  -10.28454 -10.28361 -10.28353 -10.28344 -10.28299
 Alpha  occ. eigenvalues --  -10.28297 -10.28294 -10.28241 -10.28168 -10.28072
 Alpha  occ. eigenvalues --  -10.28022 -10.27749 -10.27732 -10.27541 -10.27494
 Alpha  occ. eigenvalues --  -10.27460 -10.27377 -10.27166 -10.27144 -10.27133
 Alpha  occ. eigenvalues --  -10.27031 -10.26976 -10.26786 -10.26738 -10.26723
 Alpha  occ. eigenvalues --  -10.26708 -10.26650 -10.26578 -10.26563 -10.26443
 Alpha  occ. eigenvalues --  -10.26186 -10.26049 -10.25892 -10.25875 -10.25849
 Alpha  occ. eigenvalues --  -10.25563 -10.25449 -10.25428 -10.25167 -10.25164
 Alpha  occ. eigenvalues --  -10.25160  -3.17544  -3.17465  -1.92402  -1.92348
 Alpha  occ. eigenvalues --   -1.92015  -1.91935  -1.91848  -1.91764  -1.18588
 Alpha  occ. eigenvalues --   -1.14959  -1.10408  -1.09678  -1.09044  -1.08288
 Alpha  occ. eigenvalues --   -1.08055  -1.07010  -1.04808  -1.04137  -1.03748
 Alpha  occ. eigenvalues --   -1.03538  -1.02604  -1.02507  -1.01870  -1.01761
 Alpha  occ. eigenvalues --   -0.93546  -0.93123  -0.89157  -0.89106  -0.88836
 Alpha  occ. eigenvalues --   -0.88518  -0.88350  -0.88041  -0.87715  -0.86860
 Alpha  occ. eigenvalues --   -0.86797  -0.86264  -0.86071  -0.85552  -0.84529
 Alpha  occ. eigenvalues --   -0.84513  -0.83906  -0.83503  -0.82791  -0.82600
 Alpha  occ. eigenvalues --   -0.82039  -0.81692  -0.81653  -0.81000  -0.80484
 Alpha  occ. eigenvalues --   -0.80073  -0.78279  -0.78159  -0.77686  -0.77208
 Alpha  occ. eigenvalues --   -0.77135  -0.76761  -0.76511  -0.76335  -0.75178
 Alpha  occ. eigenvalues --   -0.74894  -0.73151  -0.72323  -0.71741  -0.71469
 Alpha  occ. eigenvalues --   -0.69379  -0.69283  -0.68952  -0.68901  -0.68425
 Alpha  occ. eigenvalues --   -0.67468  -0.66802  -0.66230  -0.65900  -0.65771
 Alpha  occ. eigenvalues --   -0.65178  -0.64892  -0.64826  -0.64568  -0.64449
 Alpha  occ. eigenvalues --   -0.64190  -0.63003  -0.62430  -0.60309  -0.60223
 Alpha  occ. eigenvalues --   -0.59840  -0.59613  -0.59313  -0.59113  -0.59056
 Alpha  occ. eigenvalues --   -0.58643  -0.58189  -0.57733  -0.57730  -0.57175
 Alpha  occ. eigenvalues --   -0.56466  -0.56133  -0.56087  -0.55593  -0.55148
 Alpha  occ. eigenvalues --   -0.54937  -0.54893  -0.54420  -0.54183  -0.53754
 Alpha  occ. eigenvalues --   -0.53732  -0.53403  -0.53225  -0.53075  -0.52996
 Alpha  occ. eigenvalues --   -0.52775  -0.52608  -0.52381  -0.52333  -0.52115
 Alpha  occ. eigenvalues --   -0.51626  -0.51560  -0.51551  -0.51463  -0.51176
 Alpha  occ. eigenvalues --   -0.51094  -0.50936  -0.50700  -0.50292  -0.50058
 Alpha  occ. eigenvalues --   -0.50012  -0.49970  -0.49861  -0.49347  -0.49339
 Alpha  occ. eigenvalues --   -0.49246  -0.49229  -0.49065  -0.48955  -0.48730
 Alpha  occ. eigenvalues --   -0.48562  -0.48556  -0.48336  -0.48311  -0.48214
 Alpha  occ. eigenvalues --   -0.48127  -0.47687  -0.47394  -0.47356  -0.47191
 Alpha  occ. eigenvalues --   -0.46887  -0.46756  -0.46600  -0.46438  -0.46228
 Alpha  occ. eigenvalues --   -0.46187  -0.46149  -0.46090  -0.46027  -0.45779
 Alpha  occ. eigenvalues --   -0.45758  -0.45370  -0.45260  -0.44957  -0.44777
 Alpha  occ. eigenvalues --   -0.44761  -0.44601  -0.44545  -0.44516  -0.44423
 Alpha  occ. eigenvalues --   -0.44170  -0.43912  -0.43618  -0.43421  -0.43214
 Alpha  occ. eigenvalues --   -0.43018  -0.43010  -0.42917  -0.42665  -0.42665
 Alpha  occ. eigenvalues --   -0.42584  -0.42379  -0.42247  -0.42125  -0.42084
 Alpha  occ. eigenvalues --   -0.41830  -0.41607  -0.41550  -0.41408  -0.41150
 Alpha  occ. eigenvalues --   -0.41051  -0.40943  -0.40594  -0.40262  -0.40248
 Alpha  occ. eigenvalues --   -0.40059  -0.39846  -0.39685  -0.39662  -0.39096
 Alpha  occ. eigenvalues --   -0.38888  -0.38163  -0.37887  -0.37629  -0.37498
 Alpha  occ. eigenvalues --   -0.37064  -0.36998  -0.36923  -0.36611  -0.36499
 Alpha  occ. eigenvalues --   -0.36236  -0.35827  -0.34743  -0.34650  -0.34393
 Alpha  occ. eigenvalues --   -0.34102  -0.33183  -0.32882  -0.31569  -0.31416
 Alpha  occ. eigenvalues --   -0.31400  -0.31187  -0.30963  -0.30741  -0.30575
 Alpha  occ. eigenvalues --   -0.30249  -0.29587  -0.29460  -0.24126  -0.24091
 Alpha  occ. eigenvalues --   -0.21283  -0.20815
 Alpha virt. eigenvalues --   -0.08912  -0.08169  -0.01791  -0.01449  -0.00165
 Alpha virt. eigenvalues --    0.00294   0.01667   0.01952   0.02068   0.02386
 Alpha virt. eigenvalues --    0.03455   0.05052   0.05239   0.05302   0.06140

 Mulliken charges:
               1
     1  Mg  11.999892
     2  C    5.989259
     3  C    6.003396
     4  C    6.012967
     5  C    5.995841
     6  N    6.997294
     7  C    6.013934
     8  C    5.995633
     9  C    6.002566
    10  C    5.989977
    11  C    6.001025
    12  C    5.999107
    13  C    5.999453
    14  H    1.002214
    15  N    7.002609
    16  C    5.981647
    17  C    5.992494
    18  C    5.993909
    19  C    5.984596
    20  C    6.001797
    21  C    5.993986
    22  O    7.988040
    23  C    6.003259
    24  N    7.002861
    25  C    5.984481
    26  C    6.005209
    27  C    5.996355
    28  C    6.012103
    29  C    5.999684
    30  C    5.996345
    31  C    5.999401
    32  N    6.997466
    33  C    6.015436
    34  C    6.013313
    35  C    6.000363
    36  C    6.014652
    37  C    5.998320
    38  C    6.005916
    39  O    8.012106
    40  C    5.998253
    41  C    6.002195
    42  O    8.001719
    43  O    8.000714
    44  C    5.999263
    45  H    0.995928
    46  H    0.998076
    47  H    1.004980
    48  H    1.000125
    49  H    0.999484
    50  H    0.995149
    51  H    1.001730
    52  H    0.999661
    53  H    1.003721
    54  H    0.997293
    55  H    1.001561
    56  H    0.998206
    57  H    0.992390
    58  H    0.992330
    59  H    0.992623
    60  H    0.996868
    61  H    0.993737
    62  H    0.997019
    63  H    1.000232
    64  H    1.000957
    65  H    1.001270
    66  H    0.995953
    67  H    1.000221
    68  H    0.999389
    69  H    1.005735
    70  H    0.999999
    71  H    1.002658
    72  H    1.000246
    73  H    1.007576
    74  H    1.009276
    75  H    1.006539
    76  H    1.003903
    77  H    1.000093
    78  H    1.001805
    79  H    1.002218
    80  Mg  11.997017
    81  C    6.018449
    82  C    5.983126
    83  C    5.973643
    84  C    6.020099
    85  N    7.002784
    86  C    5.967913
    87  C    6.011649
    88  C    5.987912
    89  C    6.037155
    90  C    5.996207
    91  C    6.000967
    92  C    6.002413
    93  H    0.985556
    94  N    6.989671
    95  C    6.046028
    96  C    6.017344
    97  C    6.012338
    98  C    6.043769
    99  C    5.994649
   100  C    6.009421
   101  O    8.015343
   102  C    5.999616
   103  N    6.999003
   104  C    6.035450
   105  C    5.992090
   106  C    6.012850
   107  C    5.966122
   108  C    5.995899
   109  C    6.004698
   110  C    6.000425
   111  N    7.004439
   112  C    5.955653
   113  C    5.977382
   114  C    5.992430
   115  C    5.969068
   116  C    6.000537
   117  C    5.983118
   118  O    7.972355
   119  C    5.999804
   120  C    5.996750
   121  O    7.994242
   122  O    7.998434
   123  C    6.004030
   124  H    1.009889
   125  H    1.006700
   126  H    0.993292
   127  H    0.999541
   128  H    1.004491
   129  H    1.005458
   130  H    1.012561
   131  H    0.994251
   132  H    1.004916
   133  H    0.991499
   134  H    1.005163
   135  H    1.002063
   136  H    1.019263
   137  H    1.016097
   138  H    1.015322
   139  H    1.006868
   140  H    1.009157
   141  H    1.011698
   142  H    0.999546
   143  H    0.998409
   144  H    1.010612
   145  H    1.004841
   146  H    0.995613
   147  H    1.001774
   148  H    0.987773
   149  H    0.998766
   150  H    0.994222
   151  H    1.004105
   152  H    0.984137
   153  H    0.982098
   154  H    0.985197
   155  H    0.990638
   156  H    0.997579
   157  H    0.993459
   158  H    0.995154
 Sum of Mulliken charges = 624.00000

 Dipole moment (field-independent basis, Debye):
    X=            -12.8529    Y=             -2.6152    Z=             -5.4237  Tot=             14.1934
 Quadrupole moment (field-independent basis, Debye-Ang):
   XX=            163.9667   YY=              0.7513   ZZ=             -0.5973
   XY=             58.4656   XZ=             41.2037   YZ=              2.7280

 Normal termination of Gaussian 16 at Thu Sep 23 06:57:57 2021.
