 Gaussian 16, Revision A.03,
 Gaussian 16:  ES64L-G16RevA.03 25-Dec-2016

 ----------------------------------------------------------
 #p cam-b3lyp/Def2SVP td=(nstates=5) density=(transition=1)
 ----------------------------------------------------------

 --------------------------------
 TDDFT excited states in gaussian
 --------------------------------
 Symbolic Z-matrix:
 Charge =  0 Multiplicity = 1

                         Standard orientation:
 ---------------------------------------------------------------------
 Center     Atomic      Atomic             Coordinates (Angstroms)
 Number     Number       Type             X           Y           Z
 ---------------------------------------------------------------------
      1         12           0      -28.281096   -0.224636   -0.532064
      2          6           0      -25.139530    1.101742    0.571426
      3          6           0      -27.327477   -3.280214    0.975626
      4          6           0      -31.453914   -1.269545   -0.850934
      5          6           0      -29.256551    2.989545   -1.326361
      6          7           0      -26.430451   -1.031924    0.644005
      7          6           0      -25.353643   -0.248424    0.951884
      8          6           0      -24.479102   -0.961303    1.971113
      9          6           0      -25.081159   -2.420670    1.818918
     10          6           0      -26.376347   -2.303829    1.109798
     11          6           0      -24.190474   -3.493185    1.106431
     12          6           0      -24.561912   -0.234713    3.351819
     13          6           0      -23.239618    0.039179    4.179649
     14          1           0      -23.066204   -0.594477    5.571689
     15          7           0      -29.207408   -2.002777   -0.211930
     16          6           0      -28.665807   -3.162708    0.402243
     17          6           0      -29.644892   -4.233842    0.417050
     18          6           0      -30.852724   -3.623714   -0.115348
     19          6           0      -30.510796   -2.247074   -0.420444
     20          6           0      -29.357342   -5.539083    1.033350
     21          6           0      -32.167856   -4.401195   -0.297848
     22          8           0      -32.181211   -5.588859    0.139351
     23          6           0      -33.448296   -3.853030   -0.962887
     24          7           0      -30.234138    0.742742   -0.771134
     25          6           0      -31.344785    0.085933   -1.045707
     26          6           0      -32.423596    1.078536   -1.336809
     27          6           0      -31.663302    2.416605   -1.538422
     28          6           0      -30.275523    2.062976   -1.099791
     29          6           0      -33.459898    0.803404   -2.508844
     30          6           0      -32.263957    3.680114   -0.731147
     31          6           0      -32.841391    4.867168   -1.540419
     32          7           0      -27.382956    1.604532   -0.608338
     33          6           0      -27.882730    2.805808   -0.944119
     34          6           0      -26.904442    3.825336   -0.837353
     35          6           0      -25.796568    3.177486   -0.286022
     36          6           0      -26.142454    1.812973   -0.116526
     37          6           0      -26.952479    5.256320   -1.195438
     38          6           0      -24.474709    3.457680    0.183283
     39          8           0      -23.910031    4.526341    0.251473
     40          6           0      -23.977282    2.021875    0.845047
     41          6           0      -22.758505    1.558056    0.171468
     42          8           0      -22.559962    1.577006   -1.049900
     43          8           0      -21.919737    1.082336    1.156698
     44          6           0      -20.625824    0.565296    0.714250
     45          1           0      -27.090644   -4.248846    1.418458
     46          1           0      -32.515742   -1.521880   -0.875382
     47          1           0      -29.437618    3.968830   -1.774736
     48          1           0      -23.481091   -1.009743    1.534779
     49          1           0      -25.312295   -2.594237    2.870551
     50          1           0      -24.763584   -3.882379    0.263683
     51          1           0      -23.939875   -4.351305    1.729681
     52          1           0      -23.271205   -3.118300    0.655386
     53          1           0      -25.190547   -0.946893    3.885881
     54          1           0      -25.108528    0.707994    3.362320
     55          1           0      -23.180167    1.125106    4.250311
     56          1           0      -22.388167   -0.167712    3.532035
     57          1           0      -28.994868   -5.328059    2.039697
     58          1           0      -28.529228   -6.020966    0.514036
     59          1           0      -30.136145   -6.301475    1.001574
     60          1           0      -33.894453   -3.126707   -0.283348
     61          1           0      -33.952938   -4.742943   -1.337604
     62          1           0      -33.057926   -3.337765   -1.841153
     63          1           0      -33.055179    1.117744   -0.450166
     64          1           0      -31.608170    2.477149   -2.625416
     65          1           0      -34.364934    1.323671   -2.194266
     66          1           0      -33.589466   -0.274112   -2.609001
     67          1           0      -33.045715    1.271499   -3.402009
     68          1           0      -31.430833    4.001713   -0.106402
     69          1           0      -32.980364    3.292347   -0.007043
     70          1           0      -32.457239    5.830863   -1.208691
     71          1           0      -33.927949    4.851041   -1.451352
     72          1           0      -32.685963    4.780926   -2.615990
     73          1           0      -25.954271    5.681461   -1.295103
     74          1           0      -27.478087    5.607915   -0.307432
     75          1           0      -27.722007    5.386161   -1.956298
     76          1           0      -23.919322    2.085602    1.931048
     77          1           0      -20.104291    1.276862    0.073709
     78          1           0      -20.766124   -0.384825    0.196698
     79          1           0      -19.998966    0.400786    1.590688
     80         12           0       28.136354    0.427737   -0.330347
     81          6           0       26.162355   -2.418679   -0.022691
     82          6           0       25.295449    2.327415    0.256304
     83          6           0       29.961565    3.169143   -0.050159
     84          6           0       30.960843   -1.571098   -0.404190
     85          7           0       26.025193    0.013692    0.228102
     86          6           0       25.413910   -1.221299    0.157223
     87          6           0       23.921825   -1.141033    0.289683
     88          6           0       23.656933    0.400864   -0.006423
     89          6           0       25.048540    0.982531    0.204171
     90          6           0       22.843416    0.891598   -1.296564
     91          6           0       23.324450   -1.704946    1.661235
     92          6           0       24.194858   -1.559402    2.944842
     93          1           0       23.420749   -1.159453    4.177886
     94          7           0       27.713934    2.463588    0.168046
     95          6           0       26.456149    3.048545    0.360454
     96          6           0       26.568194    4.440539    0.700214
     97          6           0       27.953733    4.723129    0.640985
     98          6           0       28.636754    3.447455    0.272077
     99          6           0       25.319720    5.321958    0.762255
    100          6           0       28.506324    6.143805    0.896821
    101          8           0       27.779354    7.074739    1.258260
    102          6           0       29.939966    6.334549    0.629574
    103          7           0       30.177766    0.678556   -0.122602
    104          6           0       30.682339    1.955328   -0.303544
    105          6           0       32.215510    1.976567   -0.489674
    106          6           0       32.482931    0.421468   -0.354256
    107          6           0       31.161632   -0.197979   -0.238230
    108          6           0       32.796969    2.564968   -1.736322
    109          6           0       33.362116    0.046106    0.943652
    110          6           0       34.460081   -0.923990    0.593125
    111          7           0       28.541048   -1.613829   -0.432774
    112          6           0       29.752225   -2.280093   -0.458165
    113          6           0       29.522504   -3.742922   -0.471317
    114          6           0       28.097722   -3.844334   -0.302453
    115          6           0       27.588163   -2.540771   -0.283166
    116          6           0       30.475391   -4.862620   -0.356711
    117          6           0       26.936324   -4.732828   -0.084508
    118          8           0       26.906695   -5.932319    0.066252
    119          6           0       25.651407   -3.855626    0.061576
    120          6           0       24.649237   -4.253841   -0.927661
    121          8           0       23.517077   -4.710814   -0.768275
    122          8           0       25.309434   -4.300376   -2.183524
    123          6           0       24.449841   -4.630794   -3.340345
    124          1           0       24.357963    2.884192    0.188449
    125          1           0       30.644275    4.012674   -0.170910
    126          1           0       31.905843   -2.107284   -0.507847
    127          1           0       23.442161   -1.761344   -0.467361
    128          1           0       23.058681    0.665662    0.865764
    129          1           0       22.402458    0.104077   -1.907428
    130          1           0       23.452605    1.432665   -2.020488
    131          1           0       21.946357    1.420828   -0.973984
    132          1           0       23.000946   -2.738418    1.541637
    133          1           0       22.383738   -1.176984    1.817313
    134          1           0       25.010509   -0.854892    2.779274
    135          1           0       24.659095   -2.515428    3.185341
    136          1           0       25.397693    6.146468    1.471624
    137          1           0       24.487353    4.734662    1.149119
    138          1           0       25.192266    5.723581   -0.243286
    139          1           0       30.100788    6.281702   -0.446789
    140          1           0       30.518679    5.589107    1.175920
    141          1           0       30.160655    7.339619    0.988948
    142          1           0       32.647028    2.390597    0.421927
    143          1           0       32.836542    0.159302   -1.351397
    144          1           0       33.848763    2.278438   -1.735688
    145          1           0       32.795983    3.647336   -1.607422
    146          1           0       32.233575    2.239488   -2.611627
    147          1           0       32.663723   -0.344918    1.683437
    148          1           0       33.786159    0.874356    1.512767
    149          1           0       34.218262   -1.881186    1.054455
    150          1           0       35.390672   -0.705160    1.117833
    151          1           0       34.468822   -1.098709   -0.482552
    152          1           0       31.528978   -4.586065   -0.295189
    153          1           0       30.371655   -5.435847   -1.277332
    154          1           0       30.214698   -5.237763    0.632735
    155          1           0       25.305870   -4.047742    1.077080
    156          1           0       24.769611   -3.891085   -4.075187
    157          1           0       23.363314   -4.586466   -3.265032
    158          1           0       24.869718   -5.558049   -3.730662
 ---------------------------------------------------------------------

 SCF Done:  E(RCAM-B3LYP) =  -4069.79159945     A.U. after   18 cycles

 Excitation energies and oscillator strengths:

 Excited State   1:      Singlet-A      1.6989 eV  729.78 nm  f=0.3838  <S**2>=0.000
     309 -> 316        0.18529
     311 -> 313        0.68532
     309 <- 316        0.11147
 This state for optimization and/or second-order correction.
 Total Energy, E(TD-HF/TD-DFT) =  -4069.72916483
 Copying the excited state density for this state as the 1-particle RhoCI density.

 Excited State   2:      Singlet-A      1.7179 eV  721.73 nm  f=0.3777  <S**2>=0.000
     310 -> 315        0.18175
     312 -> 314        0.68356
     310 <- 315        0.10499

 Excited State   3:      Singlet-A      2.2043 eV  562.47 nm  f=0.0887  <S**2>=0.000
     310 -> 314        0.62966
     312 -> 315       -0.30515

 Excited State   4:      Singlet-A      2.2522 eV  550.50 nm  f=0.1328  <S**2>=0.000
     309 -> 313        0.64093
     311 -> 316       -0.28918

 Excited State   5:      Singlet-A      3.1791 eV  389.99 nm  f=0.0000  <S**2>=0.000
     312 -> 313        0.70710

 The electronic state is 1-A.
 Alpha  occ. eigenvalues --  -46.89111 -46.88906 -19.26276 -19.24348 -19.20560
 Alpha  occ. eigenvalues --  -19.20544 -19.19741 -19.19030 -19.18827 -19.18132
 Alpha  occ. eigenvalues --  -14.42241 -14.42212 -14.41933 -14.41401 -14.39933
 Alpha  occ. eigenvalues --  -14.39826 -14.39649 -14.39190 -10.40097 -10.39738
 Alpha  occ. eigenvalues --  -10.35448 -10.35245 -10.35124 -10.35111 -10.32453
 Alpha  occ. eigenvalues --  -10.31629 -10.31304 -10.31190 -10.31188 -10.30774
 Alpha  occ. eigenvalues --  -10.30685 -10.30639 -10.30636 -10.30400 -10.30328
 Alpha  occ. eigenvalues --  -10.30310 -10.30198 -10.30084 -10.29756 -10.29359
 Alpha  occ. eigenvalues --  -10.29082 -10.28964 -10.28947 -10.28732 -10.28683
 Alpha  occ. eigenvalues --  -10.28562 -10.28547 -10.28435 -10.28418 -10.28347
 Alpha  occ. eigenvalues --  -10.28213 -10.28166 -10.28101 -10.28080 -10.27778
 Alpha  occ. eigenvalues --  -10.27678 -10.27625 -10.27592 -10.27519 -10.27488
 Alpha  occ. eigenvalues --  -10.27470 -10.27454 -10.27305 -10.27232 -10.27198
 Alpha  occ. eigenvalues --  -10.27168 -10.27143 -10.27133 -10.26996 -10.26972
 Alpha  occ. eigenvalues --  -10.26912 -10.26786 -10.26734 -10.26676 -10.26436
 Alpha  occ. eigenvalues --  -10.26404 -10.26235 -10.26222 -10.26075 -10.26061
 Alpha  occ. eigenvalues --  -10.26027 -10.25967 -10.25759 -10.25392 -10.25047
 Alpha  occ. eigenvalues --  -10.24562  -3.17636  -3.17461  -1.92520  -1.92351
 Alpha  occ. eigenvalues --   -1.92107  -1.91929  -1.91905  -1.91778  -1.16545
 Alpha  occ. eigenvalues --   -1.14824  -1.10822  -1.10367  -1.09378  -1.08170
 Alpha  occ. eigenvalues --   -1.07242  -1.06906  -1.05452  -1.05077  -1.04726
 Alpha  occ. eigenvalues --   -1.03743  -1.03723  -1.03190  -1.02348  -1.02340
 Alpha  occ. eigenvalues --   -0.93182  -0.92470  -0.89661  -0.89327  -0.89227
 Alpha  occ. eigenvalues --   -0.88285  -0.88132  -0.87991  -0.87972  -0.87674
 Alpha  occ. eigenvalues --   -0.87475  -0.86885  -0.86190  -0.86007  -0.84838
 Alpha  occ. eigenvalues --   -0.84636  -0.84461  -0.83859  -0.82728  -0.82727
 Alpha  occ. eigenvalues --   -0.82391  -0.82017  -0.81367  -0.80849  -0.80486
 Alpha  occ. eigenvalues --   -0.80158  -0.78326  -0.78223  -0.77647  -0.77508
 Alpha  occ. eigenvalues --   -0.76879  -0.76853  -0.76300  -0.76223  -0.75754
 Alpha  occ. eigenvalues --   -0.75345  -0.73197  -0.72650  -0.72214  -0.72145
 Alpha  occ. eigenvalues --   -0.69813  -0.69432  -0.69388  -0.69369  -0.68483
 Alpha  occ. eigenvalues --   -0.68095  -0.66834  -0.66751  -0.66419  -0.66155
 Alpha  occ. eigenvalues --   -0.65635  -0.65119  -0.64908  -0.64766  -0.64514
 Alpha  occ. eigenvalues --   -0.64006  -0.62960  -0.62549  -0.60282  -0.60145
 Alpha  occ. eigenvalues --   -0.59904  -0.59547  -0.59384  -0.58948  -0.58918
 Alpha  occ. eigenvalues --   -0.58432  -0.58292  -0.57594  -0.57533  -0.57257
 Alpha  occ. eigenvalues --   -0.56330  -0.56240  -0.55985  -0.55830  -0.55650
 Alpha  occ. eigenvalues --   -0.55355  -0.55105  -0.54861  -0.54616  -0.54505
 Alpha  occ. eigenvalues --   -0.53897  -0.53694  -0.53293  -0.52938  -0.52912
 Alpha  occ. eigenvalues --   -0.52720  -0.52634  -0.52631  -0.52182  -0.52097
 Alpha  occ. eigenvalues --   -0.51988  -0.51766  -0.51622  -0.51415  -0.51229
 Alpha  occ. eigenvalues --   -0.51116  -0.50855  -0.50581  -0.50478  -0.50338
 Alpha  occ. eigenvalues --   -0.50282  -0.50030  -0.49972  -0.49639  -0.49567
 Alpha  occ. eigenvalues --   -0.49558  -0.49409  -0.49277  -0.48828  -0.48787
 Alpha  occ. eigenvalues --   -0.48570  -0.48464  -0.48303  -0.48177  -0.47938
 Alpha  occ. eigenvalues --   -0.47746  -0.47743  -0.47654  -0.47592  -0.47451
 Alpha  occ. eigenvalues --   -0.47258  -0.47032  -0.46923  -0.46646  -0.46508
 Alpha  occ. eigenvalues --   -0.46454  -0.46279  -0.46215  -0.46126  -0.45934
 Alpha  occ. eigenvalues --   -0.45737  -0.45622  -0.45393  -0.45375  -0.45126
 Alpha  occ. eigenvalues --   -0.44997  -0.44982  -0.44982  -0.44697  -0.44653
 Alpha  occ. eigenvalues --   -0.44539  -0.43933  -0.43776  -0.43657  -0.43557
 Alpha  occ. eigenvalues --   -0.43426  -0.43276  -0.43226  -0.43115  -0.43085
 Alpha  occ. eigenvalues --   -0.42946  -0.42807  -0.42755  -0.42485  -0.42324
 Alpha  occ. eigenvalues --   -0.42138  -0.41969  -0.41716  -0.41690  -0.41525
 Alpha  occ. eigenvalues --   -0.41229  -0.41228  -0.41104  -0.40853  -0.40465
 Alpha  occ. eigenvalues --   -0.40334  -0.40228  -0.39999  -0.39111  -0.38925
 Alpha  occ. eigenvalues --   -0.38744  -0.38516  -0.38247  -0.37982  -0.37723
 Alpha  occ. eigenvalues --   -0.37637  -0.37439  -0.36901  -0.36565  -0.36446
 Alpha  occ. eigenvalues --   -0.35851  -0.35661  -0.35189  -0.35160  -0.34805
 Alpha  occ. eigenvalues --   -0.34111  -0.33326  -0.33016  -0.31330  -0.31279
 Alpha  occ. eigenvalues --   -0.31211  -0.31125  -0.30819  -0.30332  -0.30109
 Alpha  occ. eigenvalues --   -0.29964  -0.29662  -0.29369  -0.24169  -0.24102
 Alpha  occ. eigenvalues --   -0.21311  -0.21221
 Alpha virt. eigenvalues --   -0.08927  -0.08672  -0.02253  -0.01731   0.00283
 Alpha virt. eigenvalues --    0.00626   0.01708   0.02299   0.02426   0.02522
 Alpha virt. eigenvalues --    0.04079   0.04249   0.04944   0.05010   0.05831

 Mulliken charges:
               1
     1  Mg  12.000034
     2  C    5.978834
     3  C    6.025597
     4  C    6.023212
     5  C    5.973012
     6  N    7.004422
     7  C    6.030961
     8  C    5.992108
     9  C    6.009359
    10  C    5.966756
    11  C    6.002719
    12  C    5.991567
    13  C    5.999544
    14  H    1.010246
    15  N    7.007198
    16  C    5.944361
    17  C    5.980846
    18  C    5.986266
    19  C    5.960843
    20  C    6.006193
    21  C    5.987738
    22  O    7.977300
    23  C    5.998481
    24  N    7.000083
    25  C    5.965008
    26  C    6.011919
    27  C    5.987511
    28  C    6.038328
    29  C    6.001576
    30  C    5.998228
    31  C    5.998555
    32  N    6.995296
    33  C    6.043460
    34  C    6.027080
    35  C    6.006415
    36  C    6.034460
    37  C    5.999322
    38  C    6.015025
    39  O    8.028076
    40  C    6.005217
    41  C    6.004911
    42  O    8.004086
    43  O    8.002493
    44  C    5.997059
    45  H    0.991143
    46  H    0.992766
    47  H    1.006537
    48  H    1.000096
    49  H    0.997449
    50  H    1.005393
    51  H    0.998159
    52  H    0.986350
    53  H    1.013323
    54  H    0.994504
    55  H    0.996328
    56  H    1.000016
    57  H    0.979078
    58  H    0.978444
    59  H    0.984673
    60  H    0.988853
    61  H    0.987704
    62  H    0.992116
    63  H    0.998459
    64  H    1.003021
    65  H    0.994156
    66  H    1.007959
    67  H    0.992364
    68  H    0.993773
    69  H    1.010365
    70  H    0.997839
    71  H    1.006317
    72  H    1.001472
    73  H    1.014455
    74  H    1.020212
    75  H    1.020551
    76  H    1.010153
    77  H    1.001880
    78  H    1.006857
    79  H    1.005535
    80  Mg  12.000020
    81  C    5.999634
    82  C    6.000205
    83  C    6.000449
    84  C    5.999844
    85  N    6.999917
    86  C    6.000437
    87  C    5.999882
    88  C    6.000149
    89  C    5.999589
    90  C    6.000065
    91  C    5.999972
    92  C    5.999939
    93  H    1.000074
    94  N    7.000096
    95  C    5.999485
    96  C    5.999770
    97  C    5.999864
    98  C    5.999469
    99  C    6.000085
   100  C    5.999822
   101  O    7.999760
   102  C    6.000077
   103  N    7.000038
   104  C    5.999472
   105  C    6.000226
   106  C    5.999841
   107  C    6.000401
   108  C    6.000023
   109  C    5.999935
   110  C    5.999999
   111  N    6.999992
   112  C    6.000426
   113  C    6.000373
   114  C    6.000053
   115  C    6.000393
   116  C    5.999919
   117  C    6.000213
   118  O    8.000336
   119  C    6.000029
   120  C    6.000089
   121  O    8.000096
   122  O    7.999931
   123  C    5.999972
   124  H    0.999803
   125  H    0.999930
   126  H    1.000185
   127  H    0.999990
   128  H    0.999910
   129  H    0.999822
   130  H    0.999999
   131  H    0.999918
   132  H    0.999959
   133  H    1.000083
   134  H    1.000100
   135  H    0.999937
   136  H    0.999780
   137  H    0.999788
   138  H    0.999751
   139  H    0.999895
   140  H    0.999885
   141  H    0.999842
   142  H    0.999970
   143  H    1.000026
   144  H    0.999906
   145  H    1.000055
   146  H    0.999941
   147  H    0.999995
   148  H    1.000165
   149  H    0.999964
   150  H    1.000083
   151  H    1.000011
   152  H    1.000255
   153  H    1.000248
   154  H    1.000226
   155  H    1.000080
   156  H    1.000052
   157  H    1.000061
   158  H    1.000028
 Sum of Mulliken charges = 624.00000

 Dipole moment (field-independent basis, Debye):
    X=              5.4052    Y=              9.4655    Z=             -0.5672  Tot=             10.9148
 Quadrupole moment (field-independent basis, Debye-Ang):
   XX=           -298.7931   YY=             -5.3137   ZZ=              1.2597
   XY=           -276.5456   XZ=             15.3483   YZ=             -1.4297

 Normal termination of Gaussian 16 at Wed Sep 22 06:41:27 2021.
