 Gaussian 16, Revision A.03,
 Gaussian 16:  ES64L-G16RevA.03 25-Dec-2016

 -----------------------------------
 #p cam-b3lyp/Def2SVP td=(nstates=5)
 -----------------------------------

 --------------------------------
 TDDFT excited states in gaussian
 --------------------------------
 Symbolic Z-matrix:
 Charge =  0 Multiplicity = 1

                         Standard orientation:
 ---------------------------------------------------------------------
 Center     Atomic      Atomic             Coordinates (Angstroms)
 Number     Number       Type             X           Y           Z
 ---------------------------------------------------------------------
      1         12           0       13.470147   -0.592352    0.029434
      2          6           0       11.416210    2.105236   -0.494152
      3          6           0       16.165671    1.525671   -0.045099
      4          6           0       15.570560   -3.320620    0.445336
      5          6           0       10.765395   -2.728657   -0.345906
      6          7           0       13.795039    1.604370   -0.292782
      7          6           0       12.755846    2.484845   -0.394102
      8          6           0       13.236842    3.852280   -0.474969
      9          6           0       14.751764    3.745928   -0.550604
     10          6           0       14.969106    2.187326   -0.315466
     11          6           0       15.481099    4.263942   -1.838109
     12          6           0       12.721971    4.719760    0.723746
     13          6           0       12.449399    6.237362    0.439919
     14          1           0       13.281346    6.906460   -0.671750
     15          7           0       15.582292   -0.814122    0.291418
     16          6           0       16.506786    0.214971    0.239497
     17          6           0       17.857799   -0.346535    0.441873
     18          6           0       17.698383   -1.791012    0.596365
     19          6           0       16.251044   -2.036836    0.472662
     20          6           0       19.141995    0.466562    0.436068
     21          6           0       18.763653   -2.803262    0.947591
     22          8           0       18.435137   -3.990245    1.119607
     23          6           0       20.209609   -2.499523    1.074125
     24          7           0       13.233730   -2.731363   -0.027588
     25          6           0       14.225638   -3.590292    0.224428
     26          6           0       13.688007   -5.026681    0.336064
     27          6           0       12.071860   -4.856986    0.336684
     28          6           0       12.016923   -3.315821    0.045890
     29          6           0       14.250221   -5.934089   -0.801256
     30          6           0       11.365041   -5.189877    1.679220
     31          6           0       10.473320   -6.440530    1.669995
     32          7           0       11.476528   -0.410945   -0.414242
     33          6           0       10.474925   -1.374420   -0.554019
     34          6           0        9.178726   -0.723089   -0.846216
     35          6           0        9.552324    0.641539   -0.840211
     36          6           0       10.943546    0.774463   -0.585507
     37          6           0        7.877749   -1.337656   -1.017306
     38          6           0        9.003202    2.011682   -0.905943
     39          8           0        7.875928    2.416548   -1.011192
     40          6           0       10.207508    3.003051   -0.725622
     41          6           0       10.213210    3.939018   -1.861273
     42          8           0       10.545275    3.549590   -2.992471
     43          8           0        9.970970    5.238225   -1.534859
     44          6           0       10.156224    6.264034   -2.556404
     45          1           0       17.002232    2.227003   -0.072830
     46          1           0       16.251625   -4.169249    0.539774
     47          1           0        9.927455   -3.428517   -0.328467
     48          1           0       12.862063    4.283341   -1.403956
     49          1           0       15.223803    4.163334    0.339570
     50          1           0       14.935907    4.722924   -2.663493
     51          1           0       16.047310    3.432691   -2.257547
     52          1           0       16.285691    4.968874   -1.627366
     53          1           0       13.384640    4.590579    1.579566
     54          1           0       11.851544    4.230941    1.160965
     55          1           0       12.587865    6.817968    1.352401
     56          1           0       11.447445    6.423577    0.054382
     57          1           0       18.972169    1.541999    0.397224
     58          1           0       19.745478    0.240559   -0.443491
     59          1           0       19.643462    0.379335    1.399760
     60          1           0       20.685336   -3.416458    1.420685
     61          1           0       20.424600   -1.680777    1.762055
     62          1           0       20.586551   -2.127465    0.121297
     63          1           0       13.931788   -5.376371    1.339336
     64          1           0       11.596239   -5.384745   -0.489895
     65          1           0       14.659381   -6.878290   -0.441604
     66          1           0       15.054548   -5.429978   -1.337702
     67          1           0       13.406732   -6.054158   -1.481533
     68          1           0       10.732958   -4.381616    2.045129
     69          1           0       12.079849   -5.331639    2.490105
     70          1           0       10.845308   -7.145395    0.926339
     71          1           0        9.469234   -6.133792    1.378736
     72          1           0       10.426227   -6.795405    2.698709
     73          1           0        7.056925   -0.633819   -0.881396
     74          1           0        7.707658   -2.180642   -0.347860
     75          1           0        7.762671   -1.574096   -2.075213
     76          1           0        9.945531    3.472164    0.223353
     77          1           0        9.453001    6.201750   -3.387333
     78          1           0       11.192603    6.298186   -2.892208
     79          1           0        9.954657    7.244641   -2.125546
     80         12           0      -13.176638   -0.753164   -0.270156
     81          6           0      -11.831070    2.192959    1.149264
     82          6           0      -15.400737    1.205516   -1.986557
     83          6           0      -14.833613   -3.505449   -1.074633
     84          6           0      -11.165541   -2.606617    1.914257
     85          7           0      -13.672179    1.447422   -0.273191
     86          6           0      -12.893046    2.448889    0.312262
     87          6           0      -13.291123    3.830525   -0.262941
     88          6           0      -14.458627    3.483741   -1.257482
     89          6           0      -14.529830    1.931670   -1.235334
     90          6           0      -15.750843    4.267887   -1.109832
     91          6           0      -12.168452    4.650462   -0.917588
     92          6           0      -12.005708    6.078701   -0.328748
     93          1           0      -12.096053    7.209092   -1.329761
     94          7           0      -14.844595   -1.080326   -1.459738
     95          6           0      -15.661483   -0.169048   -2.061973
     96          6           0      -16.584934   -0.895174   -2.900877
     97          6           0      -16.525670   -2.305179   -2.525352
     98          6           0      -15.376485   -2.303344   -1.633162
     99          6           0      -17.681327   -0.154924   -3.828499
    100          6           0      -17.486953   -3.402776   -2.687967
    101          8           0      -17.353656   -4.544729   -2.351177
    102          6           0      -18.811263   -3.035441   -3.350755
    103          7           0      -13.132997   -2.764651    0.519499
    104          6           0      -13.890155   -3.726654   -0.043048
    105          6           0      -13.426031   -5.113647    0.407687
    106          6           0      -12.061678   -4.822197    1.052921
    107          6           0      -12.071005   -3.312897    1.149329
    108          6           0      -14.456735   -5.767493    1.438107
    109          6           0      -10.903524   -5.309942    0.041826
    110          6           0      -10.703013   -4.434985   -1.225641
    111          7           0      -11.671294   -0.390199    1.172835
    112          6           0      -10.962014   -1.231131    1.942873
    113          6           0      -10.066109   -0.450166    2.752797
    114          6           0      -10.336787    0.868626    2.439509
    115          6           0      -11.378558    0.888298    1.508104
    116          6           0       -9.044938   -0.916321    3.772939
    117          6           0       -9.938529    2.224131    2.828478
    118          8           0       -9.234607    2.755041    3.640632
    119          6           0      -10.832489    3.141907    1.953312
    120          6           0      -11.587996    3.989491    2.908915
    121          8           0      -12.249722    3.504874    3.792214
    122          8           0      -11.377563    5.347262    2.729741
    123          6           0      -11.860608    6.247363    3.829846
    124          1           0      -15.957168    1.840033   -2.679717
    125          1           0      -15.267266   -4.454391   -1.398191
    126          1           0      -10.361181   -3.098088    2.465595
    127          1           0      -13.753545    4.417615    0.530800
    128          1           0      -14.155978    3.808058   -2.253325
    129          1           0      -15.798011    4.771417   -0.145391
    130          1           0      -16.648796    3.665396   -1.249198
    131          1           0      -15.698286    5.066432   -1.849447
    132          1           0      -12.242444    4.859118   -1.984883
    133          1           0      -11.211766    4.136965   -0.824527
    134          1           0      -11.119963    6.152119    0.302173
    135          1           0      -12.848348    6.254281    0.338793
    136          1           0      -17.637767   -0.607181   -4.819228
    137          1           0      -17.525657    0.908912   -4.003691
    138          1           0      -18.719088   -0.131863   -3.495987
    139          1           0      -18.509125   -2.703240   -4.344237
    140          1           0      -19.208409   -2.223407   -2.742497
    141          1           0      -19.498898   -3.870293   -3.489467
    142          1           0      -13.236442   -5.799805   -0.418432
    143          1           0      -11.840586   -5.178587    2.059250
    144          1           0      -14.379323   -6.848359    1.317564
    145          1           0      -15.516916   -5.533423    1.335775
    146          1           0      -14.069836   -5.478550    2.415186
    147          1           0      -11.028728   -6.344954   -0.275650
    148          1           0       -9.929658   -5.172476    0.511909
    149          1           0      -10.046000   -4.855818   -1.986044
    150          1           0      -10.258684   -3.492669   -0.904754
    151          1           0      -11.689819   -4.232813   -1.643380
    152          1           0       -8.241969   -1.525874    3.359090
    153          1           0       -9.630262   -1.531525    4.455829
    154          1           0       -8.647621   -0.099029    4.374805
    155          1           0      -10.108072    3.755231    1.417743
    156          1           0      -12.318912    7.023510    3.216942
    157          1           0      -11.049610    6.675580    4.418633
    158          1           0      -12.561611    5.875635    4.576766
 ---------------------------------------------------------------------

 SCF Done:  E(RCAM-B3LYP) =  -4069.85876273     A.U. after   19 cycles

 Excitation energies and oscillator strengths:

 Excited State   1:      Singlet-A      1.7034 eV  727.85 nm  f=0.4736  <S**2>=0.000
     309 -> 316        0.17459
     311 -> 313        0.68384
     309 <- 316        0.10706
 This state for optimization and/or second-order correction.
 Total Energy, E(TD-HF/TD-DFT) =  -4069.79616303
 Copying the excited state density for this state as the 1-particle RhoCI density.

 Excited State   2:      Singlet-A      1.7302 eV  716.60 nm  f=0.3270  <S**2>=0.000
     310 -> 315       -0.18770
     312 -> 314        0.67892
     310 <- 315       -0.10830

 Excited State   3:      Singlet-A      2.1917 eV  565.69 nm  f=0.1359  <S**2>=0.000
     309 -> 313        0.65682
     311 -> 316       -0.24835

 Excited State   4:      Singlet-A      2.2550 eV  549.82 nm  f=0.0857  <S**2>=0.000
     310 -> 314        0.62547
     312 -> 315        0.31647

 Excited State   5:      Singlet-A      2.8205 eV  439.58 nm  f=0.0000  <S**2>=0.000
     312 -> 313        0.70707

 The electronic state is 1-A.
 Alpha  occ. eigenvalues --  -46.89508 -46.88885 -19.25968 -19.25106 -19.19565
 Alpha  occ. eigenvalues --  -19.19297 -19.19243 -19.19040 -19.18370 -19.18366
 Alpha  occ. eigenvalues --  -14.42076 -14.41887 -14.41829 -14.41720 -14.39738
 Alpha  occ. eigenvalues --  -14.39490 -14.39244 -14.39194 -10.39556 -10.38757
 Alpha  occ. eigenvalues --  -10.35115 -10.34962 -10.34848 -10.34345 -10.32313
 Alpha  occ. eigenvalues --  -10.31773 -10.31493 -10.30915 -10.30740 -10.30723
 Alpha  occ. eigenvalues --  -10.30722 -10.30646 -10.30610 -10.30413 -10.30205
 Alpha  occ. eigenvalues --  -10.30107 -10.30016 -10.29926 -10.29920 -10.29593
 Alpha  occ. eigenvalues --  -10.29318 -10.29297 -10.29153 -10.29126 -10.28693
 Alpha  occ. eigenvalues --  -10.28640 -10.28394 -10.28278 -10.28147 -10.27997
 Alpha  occ. eigenvalues --  -10.27993 -10.27986 -10.27965 -10.27903 -10.27860
 Alpha  occ. eigenvalues --  -10.27765 -10.27729 -10.27526 -10.27473 -10.27451
 Alpha  occ. eigenvalues --  -10.27392 -10.27378 -10.27363 -10.27215 -10.26996
 Alpha  occ. eigenvalues --  -10.26988 -10.26954 -10.26613 -10.26518 -10.26483
 Alpha  occ. eigenvalues --  -10.26468 -10.26239 -10.26134 -10.26104 -10.26070
 Alpha  occ. eigenvalues --  -10.26065 -10.26016 -10.26012 -10.25936 -10.25924
 Alpha  occ. eigenvalues --  -10.25571 -10.25514 -10.25359 -10.25250 -10.25036
 Alpha  occ. eigenvalues --  -10.25005  -3.17911  -3.17308  -1.92794  -1.92380
 Alpha  occ. eigenvalues --   -1.92229  -1.92204  -1.91747  -1.91615  -1.16433
 Alpha  occ. eigenvalues --   -1.15653  -1.11629  -1.11038  -1.10943  -1.08920
 Alpha  occ. eigenvalues --   -1.07586  -1.07121  -1.05153  -1.05119  -1.04255
 Alpha  occ. eigenvalues --   -1.04050  -1.03800  -1.03375  -1.01963  -1.00956
 Alpha  occ. eigenvalues --   -0.92484  -0.92324  -0.89123  -0.88845  -0.88775
 Alpha  occ. eigenvalues --   -0.88280  -0.88184  -0.87708  -0.87708  -0.87193
 Alpha  occ. eigenvalues --   -0.86732  -0.86508  -0.86298  -0.86258  -0.84376
 Alpha  occ. eigenvalues --   -0.83942  -0.83565  -0.83463  -0.82471  -0.82324
 Alpha  occ. eigenvalues --   -0.81872  -0.81212  -0.81176  -0.80830  -0.80549
 Alpha  occ. eigenvalues --   -0.80135  -0.78435  -0.78346  -0.77553  -0.77388
 Alpha  occ. eigenvalues --   -0.77307  -0.76727  -0.76235  -0.76131  -0.75191
 Alpha  occ. eigenvalues --   -0.74891  -0.73068  -0.72595  -0.71731  -0.71506
 Alpha  occ. eigenvalues --   -0.69333  -0.69235  -0.69163  -0.68357  -0.68042
 Alpha  occ. eigenvalues --   -0.68025  -0.67264  -0.66918  -0.65833  -0.65449
 Alpha  occ. eigenvalues --   -0.65446  -0.65288  -0.65122  -0.65025  -0.64406
 Alpha  occ. eigenvalues --   -0.64326  -0.62722  -0.62243  -0.60379  -0.59848
 Alpha  occ. eigenvalues --   -0.59684  -0.59586  -0.59249  -0.59217  -0.58747
 Alpha  occ. eigenvalues --   -0.58716  -0.58221  -0.58089  -0.57502  -0.57287
 Alpha  occ. eigenvalues --   -0.56050  -0.55962  -0.55952  -0.55340  -0.55334
 Alpha  occ. eigenvalues --   -0.55190  -0.54716  -0.54545  -0.54162  -0.53971
 Alpha  occ. eigenvalues --   -0.53446  -0.53391  -0.52921  -0.52908  -0.52781
 Alpha  occ. eigenvalues --   -0.52641  -0.52412  -0.52404  -0.52213  -0.52096
 Alpha  occ. eigenvalues --   -0.51851  -0.51662  -0.51503  -0.51458  -0.51276
 Alpha  occ. eigenvalues --   -0.51224  -0.51163  -0.50725  -0.50207  -0.49995
 Alpha  occ. eigenvalues --   -0.49959  -0.49839  -0.49765  -0.49473  -0.49365
 Alpha  occ. eigenvalues --   -0.49349  -0.49286  -0.49002  -0.48989  -0.48535
 Alpha  occ. eigenvalues --   -0.48470  -0.48373  -0.48256  -0.48107  -0.47950
 Alpha  occ. eigenvalues --   -0.47907  -0.47543  -0.47468  -0.47439  -0.47195
 Alpha  occ. eigenvalues --   -0.47102  -0.46972  -0.46694  -0.46396  -0.46287
 Alpha  occ. eigenvalues --   -0.46096  -0.46064  -0.45866  -0.45862  -0.45702
 Alpha  occ. eigenvalues --   -0.45561  -0.45509  -0.45273  -0.45195  -0.45067
 Alpha  occ. eigenvalues --   -0.44916  -0.44525  -0.44483  -0.44324  -0.44021
 Alpha  occ. eigenvalues --   -0.43801  -0.43651  -0.43597  -0.43488  -0.43354
 Alpha  occ. eigenvalues --   -0.43295  -0.43160  -0.43019  -0.43006  -0.42863
 Alpha  occ. eigenvalues --   -0.42615  -0.42404  -0.42278  -0.42138  -0.42037
 Alpha  occ. eigenvalues --   -0.41954  -0.41836  -0.41486  -0.41428  -0.41334
 Alpha  occ. eigenvalues --   -0.41149  -0.40906  -0.40888  -0.40682  -0.40334
 Alpha  occ. eigenvalues --   -0.40283  -0.39988  -0.39698  -0.39537  -0.39048
 Alpha  occ. eigenvalues --   -0.38289  -0.38186  -0.38029  -0.37802  -0.37471
 Alpha  occ. eigenvalues --   -0.37213  -0.36988  -0.36707  -0.36620  -0.36327
 Alpha  occ. eigenvalues --   -0.36199  -0.36020  -0.34367  -0.34046  -0.34036
 Alpha  occ. eigenvalues --   -0.33966  -0.33362  -0.33111  -0.31582  -0.31181
 Alpha  occ. eigenvalues --   -0.31130  -0.30891  -0.30689  -0.30357  -0.30269
 Alpha  occ. eigenvalues --   -0.30117  -0.30060  -0.29502  -0.24142  -0.23879
 Alpha  occ. eigenvalues --   -0.21546  -0.20800
 Alpha virt. eigenvalues --   -0.09137  -0.08287  -0.01719  -0.01395   0.00548
 Alpha virt. eigenvalues --    0.00594   0.01725   0.02546   0.02549   0.03097
 Alpha virt. eigenvalues --    0.04472   0.05244   0.05345   0.05708   0.06007

 Mulliken charges:
               1
     1  Mg   0.814803
     2  C   -0.017223
     3  C   -0.070445
     4  C   -0.047038
     5  C   -0.073616
     6  N   -0.243850
     7  C   -0.051330
     8  C   -0.008549
     9  C    0.010458
    10  C   -0.041627
    11  C    0.066178
    12  C    0.061575
    13  C   -0.064228
    14  H    0.001545
    15  N   -0.381029
    16  C    0.179989
    17  C   -0.151773
    18  C   -0.018623
    19  C    0.094792
    20  C    0.107312
    21  C   -0.005714
    22  O   -0.232229
    23  C    0.074376
    24  N   -0.261027
    25  C    0.046033
    26  C   -0.044080
    27  C   -0.048527
    28  C    0.017446
    29  C    0.079035
    30  C    0.027465
    31  C    0.003013
    32  N   -0.356635
    33  C    0.120872
    34  C   -0.150010
    35  C   -0.006743
    36  C    0.104738
    37  C    0.121489
    38  C    0.014266
    39  O   -0.145999
    40  C    0.025544
    41  C    0.218351
    42  O   -0.248994
    43  O   -0.321466
    44  C    0.184524
    45  H   -0.049191
    46  H    0.001116
    47  H   -0.028795
    48  H    0.022824
    49  H    0.008061
    50  H    0.027348
    51  H    0.010361
    52  H    0.004947
    53  H   -0.006394
    54  H    0.001729
    55  H    0.031472
    56  H    0.046838
    57  H    0.002035
    58  H    0.041569
    59  H    0.029977
    60  H    0.037758
    61  H    0.020642
    62  H    0.031129
    63  H    0.014362
    64  H    0.014594
    65  H    0.025694
    66  H    0.024975
    67  H    0.008034
    68  H    0.007598
    69  H    0.001737
    70  H    0.019628
    71  H    0.010820
    72  H    0.018655
    73  H    0.025166
    74  H    0.026363
    75  H    0.033489
    76  H    0.036935
    77  H    0.048216
    78  H    0.035112
    79  H    0.032150
    80  Mg   0.813103
    81  C   -0.023640
    82  C   -0.077261
    83  C   -0.062008
    84  C   -0.064375
    85  N   -0.302494
    86  C   -0.035109
    87  C    0.006892
    88  C   -0.058624
    89  C    0.050800
    90  C    0.068894
    91  C    0.056650
    92  C   -0.088679
    93  H    0.008343
    94  N   -0.363066
    95  C    0.161168
    96  C   -0.116991
    97  C   -0.041675
    98  C    0.130618
    99  C    0.062504
   100  C   -0.022289
   101  O   -0.176400
   102  C    0.054560
   103  N   -0.263228
   104  C    0.030013
   105  C   -0.035170
   106  C   -0.014459
   107  C    0.032535
   108  C    0.066536
   109  C    0.004365
   110  C   -0.014678
   111  N   -0.320783
   112  C    0.065223
   113  C   -0.162553
   114  C   -0.035040
   115  C    0.140081
   116  C    0.116997
   117  C    0.069232
   118  O   -0.136586
   119  C    0.003809
   120  C    0.181180
   121  O   -0.201590
   122  O   -0.351153
   123  C    0.165257
   124  H   -0.034120
   125  H   -0.001029
   126  H   -0.031184
   127  H    0.018583
   128  H    0.008158
   129  H    0.008517
   130  H    0.022384
   131  H    0.009343
   132  H    0.019206
   133  H    0.009296
   134  H    0.046203
   135  H    0.015539
   136  H    0.027163
   137  H    0.003869
   138  H    0.033206
   139  H    0.021867
   140  H    0.036800
   141  H    0.022543
   142  H    0.016563
   143  H    0.012769
   144  H    0.017282
   145  H    0.035508
   146  H    0.016184
   147  H    0.020136
   148  H    0.002112
   149  H    0.023739
   150  H    0.021811
   151  H    0.021045
   152  H    0.029265
   153  H    0.019633
   154  H    0.036404
   155  H    0.034033
   156  H    0.035865
   157  H    0.044067
   158  H    0.056331
 Sum of Mulliken charges =  -0.00000

 Dipole moment (field-independent basis, Debye):
    X=              2.5333    Y=              2.5913    Z=             -1.2650  Tot=              3.8384
 Quadrupole moment (field-independent basis, Debye-Ang):
   XX=           -445.4608   YY=           -478.5101   ZZ=           -521.8473
   XY=             16.7458   XZ=             57.2456   YZ=            -10.9355

 Normal termination of Gaussian 16 at Thu Sep  2 06:07:12 2021.
