 Gaussian 16, Revision A.03,
 Gaussian 16:  ES64L-G16RevA.03 25-Dec-2016

 ----------------------------------------------------------
 #p cam-b3lyp/Def2SVP td=(nstates=5) density=(transition=1)
 ----------------------------------------------------------

 --------------------------------
 TDDFT excited states in gaussian
 --------------------------------
 Symbolic Z-matrix:
 Charge =  0 Multiplicity = 1

                         Standard orientation:
 ---------------------------------------------------------------------
 Center     Atomic      Atomic             Coordinates (Angstroms)
 Number     Number       Type             X           Y           Z
 ---------------------------------------------------------------------
      1         12           0       26.682283    0.514102    0.028505
      2          6           0       24.733584   -2.038908   -1.454436
      3          6           0       27.074447   -1.477073    2.608160
      4          6           0       27.533158    3.243009    1.690161
      5          6           0       25.475042    2.607085   -2.577327
      6          7           0       26.067772   -1.640292    0.363826
      7          6           0       25.400610   -2.480685   -0.339685
      8          6           0       25.511485   -3.901961    0.249529
      9          6           0       25.855537   -3.624320    1.800681
     10          6           0       26.304466   -2.113514    1.630074
     11          6           0       24.671599   -3.805896    2.830975
     12          6           0       26.730653   -4.713317   -0.436193
     13          6           0       26.641757   -6.261501   -0.632034
     14          1           0       25.763399   -7.044566    0.412069
     15          7           0       27.430011    0.813259    1.835254
     16          6           0       27.567631   -0.208225    2.763036
     17          6           0       28.183952    0.367649    4.009939
     18          6           0       28.349422    1.782601    3.702696
     19          6           0       27.780385    2.081688    2.385811
     20          6           0       28.441378   -0.494979    5.231013
     21          6           0       29.001868    2.832482    4.574942
     22          8           0       29.081635    4.035195    4.288727
     23          6           0       29.625751    2.411034    5.843262
     24          7           0       26.616697    2.696116   -0.447582
     25          6           0       26.997930    3.570803    0.465639
     26          6           0       27.163803    5.011596   -0.193947
     27          6           0       26.434043    4.753142   -1.621441
     28          6           0       26.190501    3.247440   -1.564714
     29          6           0       26.574987    6.175677    0.669650
     30          6           0       27.198355    5.164588   -2.922436
     31          6           0       26.640302    6.324724   -3.706078
     32          7           0       25.539215    0.330208   -1.823823
     33          6           0       25.162207    1.295321   -2.736407
     34          6           0       24.294052    0.742622   -3.690348
     35          6           0       24.068216   -0.556446   -3.197184
     36          6           0       24.796735   -0.785499   -2.053986
     37          6           0       23.702477    1.384182   -4.842581
     38          6           0       23.400216   -1.748798   -3.549667
     39          8           0       22.718942   -2.147661   -4.533006
     40          6           0       23.590912   -2.684240   -2.272323
     41          6           0       23.860471   -4.082306   -2.693149
     42          8           0       24.822557   -4.507270   -3.329483
     43          8           0       22.836214   -4.898786   -2.117959
     44          6           0       22.886618   -6.337810   -2.406144
     45          1           0       27.294344   -2.219708    3.378514
     46          1           0       27.876201    4.127321    2.230049
     47          1           0       25.173884    3.238928   -3.416292
     48          1           0       24.500849   -4.307016    0.293952
     49          1           0       26.578506   -4.371228    2.126825
     50          1           0       23.705764   -3.883309    2.332170
     51          1           0       24.573483   -2.940903    3.486684
     52          1           0       24.892143   -4.724615    3.374386
     53          1           0       27.672993   -4.496456    0.067108
     54          1           0       26.916767   -4.272055   -1.415552
     55          1           0       27.610364   -6.762183   -0.616232
     56          1           0       26.048599   -6.425986   -1.532452
     57          1           0       29.426918   -0.314240    5.661637
     58          1           0       28.345767   -1.562129    5.030518
     59          1           0       27.618145   -0.375775    5.934981
     60          1           0       28.901113    1.921680    6.494668
     61          1           0       30.049390    3.277015    6.351983
     62          1           0       30.473684    1.732606    5.749185
     63          1           0       28.201111    5.248686   -0.430061
     64          1           0       25.408450    5.125074   -1.631422
     65          1           0       26.056014    5.776528    1.541299
     66          1           0       25.994953    6.709956   -0.083089
     67          1           0       27.403948    6.843307    0.900993
     68          1           0       27.187480    4.302202   -3.589340
     69          1           0       28.242691    5.363579   -2.681051
     70          1           0       25.872155    6.724234   -3.045256
     71          1           0       26.147658    5.920112   -4.590972
     72          1           0       27.370088    7.110729   -3.896281
     73          1           0       24.518961    1.847328   -5.395971
     74          1           0       23.115096    2.280204   -4.641799
     75          1           0       23.212263    0.636713   -5.466622
     76          1           0       22.674765   -2.641403   -1.682442
     77          1           0       22.013866   -6.844787   -1.993758
     78          1           0       23.701884   -6.776154   -1.830261
     79          1           0       22.874341   -6.486886   -3.485316
     80         12           0      -26.455940    0.563341   -0.157323
     81          6           0      -24.384303   -1.693572    1.548382
     82          6           0      -27.831395   -2.115396   -1.826665
     83          6           0      -28.373021    2.710112   -1.772208
     84          6           0      -24.826291    3.180622    1.526951
     85          7           0      -26.161280   -1.628851   -0.035247
     86          6           0      -25.247746   -2.373588    0.710967
     87          6           0      -25.560990   -3.921329    0.716897
     88          6           0      -26.523882   -3.966551   -0.453786
     89          6           0      -26.885686   -2.465538   -0.809879
     90          6           0      -25.818768   -4.595152   -1.741782
     91          6           0      -26.334938   -4.152777    2.090017
     92          6           0      -25.968271   -5.462732    2.916863
     93          1           0      -25.612386   -6.578539    1.967975
     94          7           0      -27.756009    0.334989   -1.661858
     95          6           0      -28.189823   -0.792619   -2.218104
     96          6           0      -29.197808   -0.564535   -3.219413
     97          6           0      -29.516339    0.803627   -3.110551
     98          6           0      -28.476689    1.377346   -2.175497
     99          6           0      -29.812072   -1.595024   -4.094328
    100          6           0      -30.676758    1.591476   -3.682731
    101          8           0      -30.969758    2.729549   -3.298878
    102          6           0      -31.476316    1.026436   -4.860028
    103          7           0      -26.530731    2.683812   -0.144828
    104          6           0      -27.512339    3.286819   -0.895350
    105          6           0      -27.536926    4.774650   -0.551655
    106          6           0      -26.455739    4.933371    0.625269
    107          6           0      -25.925637    3.528884    0.746703
    108          6           0      -27.328344    5.625521   -1.854013
    109          6           0      -26.944515    5.537424    1.932413
    110          6           0      -26.081888    6.738846    2.431043
    111          7           0      -24.910045    0.719618    1.226751
    112          6           0      -24.325093    1.880562    1.823135
    113          6           0      -23.263483    1.509314    2.688955
    114          6           0      -23.268867    0.107049    2.600340
    115          6           0      -24.247958   -0.293113    1.667445
    116          6           0      -22.368197    2.341995    3.548922
    117          6           0      -22.655955   -1.091130    3.077489
    118          8           0      -21.736981   -1.298280    3.834668
    119          6           0      -23.443730   -2.293749    2.485128
    120          6           0      -22.477079   -3.277818    1.933629
    121          8           0      -21.782152   -3.163436    0.927932
    122          8           0      -22.540364   -4.360680    2.714526
    123          6           0      -21.738063   -5.500250    2.322035
    124          1           0      -28.442926   -2.871715   -2.322855
    125          1           0      -29.028363    3.368390   -2.348074
    126          1           0      -24.335208    3.956633    2.117907
    127          1           0      -24.584219   -4.403836    0.732756
    128          1           0      -27.431050   -4.501394   -0.174553
    129          1           0      -24.774927   -4.852241   -1.560700
    130          1           0      -25.869637   -3.865048   -2.549303
    131          1           0      -26.427125   -5.469371   -1.973870
    132          1           0      -27.416218   -4.213467    1.970119
    133          1           0      -26.158732   -3.259188    2.689379
    134          1           0      -26.857517   -5.876778    3.392304
    135          1           0      -25.329157   -5.232084    3.769567
    136          1           0      -30.851071   -1.691367   -3.776279
    137          1           0      -29.334812   -2.565149   -3.963015
    138          1           0      -29.784510   -1.336655   -5.152489
    139          1           0      -31.930195    1.946468   -5.227599
    140          1           0      -32.200819    0.261704   -4.577583
    141          1           0      -30.912359    0.659941   -5.717568
    142          1           0      -28.481674    5.153642   -0.161995
    143          1           0      -25.639645    5.555338    0.257278
    144          1           0      -28.080317    6.413579   -1.812451
    145          1           0      -27.381217    5.045728   -2.775558
    146          1           0      -26.434815    6.246654   -1.781264
    147          1           0      -27.028767    4.824397    2.751931
    148          1           0      -27.887040    6.015741    1.662302
    149          1           0      -25.336697    7.014486    1.684665
    150          1           0      -25.442231    6.455593    3.266685
    151          1           0      -26.702201    7.607839    2.651469
    152          1           0      -23.045998    2.611934    4.359221
    153          1           0      -21.995658    3.148984    2.918366
    154          1           0      -21.558019    1.763800    3.990993
    155          1           0      -23.871697   -2.766825    3.369958
    156          1           0      -20.698258   -5.197447    2.195546
    157          1           0      -21.975152   -5.961202    1.362581
    158          1           0      -21.821536   -6.221804    3.134943
 ---------------------------------------------------------------------

 SCF Done:  E(RCAM-B3LYP) =  -4069.80411093     A.U. after   19 cycles

 Excitation energies and oscillator strengths:

 Excited State   1:      Singlet-A      1.7258 eV  718.40 nm  f=0.3833  <S**2>=0.000
     310 -> 316        0.16128
     312 -> 314        0.68778
 This state for optimization and/or second-order correction.
 Total Energy, E(TD-HF/TD-DFT) =  -4069.74068724
 Copying the excited state density for this state as the 1-particle RhoCI density.

 Excited State   2:      Singlet-A      1.7997 eV  688.91 nm  f=0.3656  <S**2>=0.000
     309 -> 315       -0.21210
     311 -> 313        0.67498
     309 <- 315       -0.10952

 Excited State   3:      Singlet-A      2.2245 eV  557.36 nm  f=0.0805  <S**2>=0.000
     309 -> 313        0.62928
     311 -> 315        0.30804

 Excited State   4:      Singlet-A      2.2841 eV  542.81 nm  f=0.1220  <S**2>=0.000
     310 -> 314        0.63702
     312 -> 316       -0.28302

 Excited State   5:      Singlet-A      3.2049 eV  386.86 nm  f=0.0000  <S**2>=0.000
     312 -> 313        0.70711

 The electronic state is 1-A.
 Alpha  occ. eigenvalues --  -46.89387 -46.87755 -19.25246 -19.23937 -19.20214
 Alpha  occ. eigenvalues --  -19.19906 -19.18993 -19.18779 -19.18447 -19.17391
 Alpha  occ. eigenvalues --  -14.42227 -14.42147 -14.41718 -14.41607 -14.40209
 Alpha  occ. eigenvalues --  -14.39967 -14.38562 -14.38455 -10.39288 -10.38299
 Alpha  occ. eigenvalues --  -10.36222 -10.35120 -10.34483 -10.33141 -10.31891
 Alpha  occ. eigenvalues --  -10.31518 -10.31352 -10.31082 -10.31000 -10.30960
 Alpha  occ. eigenvalues --  -10.30746 -10.30703 -10.30667 -10.30615 -10.30614
 Alpha  occ. eigenvalues --  -10.30435 -10.30304 -10.30243 -10.30103 -10.29327
 Alpha  occ. eigenvalues --  -10.29052 -10.28995 -10.28900 -10.28656 -10.28639
 Alpha  occ. eigenvalues --  -10.28566 -10.28426 -10.28387 -10.28380 -10.28325
 Alpha  occ. eigenvalues --  -10.28302 -10.28006 -10.27965 -10.27832 -10.27814
 Alpha  occ. eigenvalues --  -10.27591 -10.27537 -10.27535 -10.27515 -10.27512
 Alpha  occ. eigenvalues --  -10.27486 -10.27463 -10.27132 -10.27082 -10.27062
 Alpha  occ. eigenvalues --  -10.26969 -10.26682 -10.26618 -10.26520 -10.26377
 Alpha  occ. eigenvalues --  -10.26369 -10.26225 -10.26212 -10.26149 -10.26022
 Alpha  occ. eigenvalues --  -10.26017 -10.25904 -10.25874 -10.25822 -10.25806
 Alpha  occ. eigenvalues --  -10.25786 -10.25696 -10.25412 -10.25401 -10.24636
 Alpha  occ. eigenvalues --  -10.23570  -3.17841  -3.16465  -1.92744  -1.92307
 Alpha  occ. eigenvalues --   -1.92126  -1.91374  -1.90900  -1.90796  -1.17086
 Alpha  occ. eigenvalues --   -1.13961  -1.10343  -1.09416  -1.09356  -1.07282
 Alpha  occ. eigenvalues --   -1.07070  -1.06721  -1.05777  -1.05206  -1.04971
 Alpha  occ. eigenvalues --   -1.03900  -1.03483  -1.02908  -1.02331  -1.01464
 Alpha  occ. eigenvalues --   -0.92952  -0.92638  -0.89630  -0.89493  -0.88605
 Alpha  occ. eigenvalues --   -0.88469  -0.88408  -0.87964  -0.87893  -0.87547
 Alpha  occ. eigenvalues --   -0.87371  -0.87019  -0.86904  -0.86623  -0.84269
 Alpha  occ. eigenvalues --   -0.83969  -0.83942  -0.83514  -0.82719  -0.82340
 Alpha  occ. eigenvalues --   -0.82054  -0.81830  -0.81505  -0.81258  -0.80663
 Alpha  occ. eigenvalues --   -0.80365  -0.78964  -0.78893  -0.77708  -0.77411
 Alpha  occ. eigenvalues --   -0.76964  -0.76752  -0.75884  -0.75587  -0.75231
 Alpha  occ. eigenvalues --   -0.74966  -0.73218  -0.73089  -0.72250  -0.71391
 Alpha  occ. eigenvalues --   -0.69173  -0.68926  -0.68858  -0.68591  -0.67921
 Alpha  occ. eigenvalues --   -0.67595  -0.67377  -0.67222  -0.65919  -0.65656
 Alpha  occ. eigenvalues --   -0.65590  -0.65401  -0.65230  -0.65001  -0.64595
 Alpha  occ. eigenvalues --   -0.64492  -0.62460  -0.61251  -0.60775  -0.60531
 Alpha  occ. eigenvalues --   -0.60141  -0.59581  -0.59283  -0.59126  -0.58615
 Alpha  occ. eigenvalues --   -0.58342  -0.57751  -0.57737  -0.57333  -0.57287
 Alpha  occ. eigenvalues --   -0.56990  -0.56628  -0.55762  -0.55650  -0.55474
 Alpha  occ. eigenvalues --   -0.55315  -0.54447  -0.54442  -0.53811  -0.53789
 Alpha  occ. eigenvalues --   -0.53526  -0.53524  -0.53215  -0.53151  -0.52961
 Alpha  occ. eigenvalues --   -0.52601  -0.52581  -0.52528  -0.52468  -0.52236
 Alpha  occ. eigenvalues --   -0.52142  -0.51758  -0.51549  -0.51301  -0.51105
 Alpha  occ. eigenvalues --   -0.51021  -0.50912  -0.50721  -0.50544  -0.50399
 Alpha  occ. eigenvalues --   -0.50342  -0.50286  -0.49968  -0.49861  -0.49624
 Alpha  occ. eigenvalues --   -0.49554  -0.49247  -0.49196  -0.48782  -0.48661
 Alpha  occ. eigenvalues --   -0.48620  -0.48508  -0.48403  -0.48376  -0.48039
 Alpha  occ. eigenvalues --   -0.47884  -0.47805  -0.47662  -0.47610  -0.47526
 Alpha  occ. eigenvalues --   -0.47308  -0.47164  -0.47026  -0.46787  -0.46727
 Alpha  occ. eigenvalues --   -0.46548  -0.46381  -0.46295  -0.46099  -0.46064
 Alpha  occ. eigenvalues --   -0.45581  -0.45336  -0.45260  -0.45050  -0.44907
 Alpha  occ. eigenvalues --   -0.44694  -0.44540  -0.44436  -0.44276  -0.44222
 Alpha  occ. eigenvalues --   -0.43924  -0.43907  -0.43680  -0.43647  -0.43553
 Alpha  occ. eigenvalues --   -0.43331  -0.43068  -0.42983  -0.42836  -0.42601
 Alpha  occ. eigenvalues --   -0.42600  -0.42332  -0.41930  -0.41925  -0.41683
 Alpha  occ. eigenvalues --   -0.41575  -0.41559  -0.41167  -0.41103  -0.41053
 Alpha  occ. eigenvalues --   -0.40802  -0.40751  -0.40642  -0.40364  -0.40285
 Alpha  occ. eigenvalues --   -0.40050  -0.40049  -0.39720  -0.39024  -0.38797
 Alpha  occ. eigenvalues --   -0.38483  -0.38262  -0.37825  -0.37615  -0.37403
 Alpha  occ. eigenvalues --   -0.37394  -0.36897  -0.36453  -0.36442  -0.36296
 Alpha  occ. eigenvalues --   -0.36101  -0.35633  -0.34471  -0.34225  -0.33897
 Alpha  occ. eigenvalues --   -0.33831  -0.33544  -0.32794  -0.32252  -0.31789
 Alpha  occ. eigenvalues --   -0.31377  -0.31289  -0.30886  -0.30498  -0.30241
 Alpha  occ. eigenvalues --   -0.29671  -0.29288  -0.29251  -0.24155  -0.24109
 Alpha  occ. eigenvalues --   -0.21666  -0.21043
 Alpha virt. eigenvalues --   -0.08607  -0.08569  -0.02643  -0.01684  -0.00230
 Alpha virt. eigenvalues --    0.00535   0.02264   0.02331   0.02828   0.03426
 Alpha virt. eigenvalues --    0.04586   0.05514   0.05582   0.05613   0.05896

 Mulliken charges:
               1
     1  Mg  12.000013
     2  C    5.999973
     3  C    5.999966
     4  C    6.000030
     5  C    6.000028
     6  N    6.999979
     7  C    6.000018
     8  C    5.999991
     9  C    6.000011
    10  C    6.000018
    11  C    5.999996
    12  C    6.000001
    13  C    6.000002
    14  H    0.999980
    15  N    7.000005
    16  C    6.000025
    17  C    5.999983
    18  C    6.000016
    19  C    5.999970
    20  C    6.000002
    21  C    6.000002
    22  O    8.000005
    23  C    5.999997
    24  N    7.000016
    25  C    5.999970
    26  C    6.000018
    27  C    5.999990
    28  C    5.999976
    29  C    5.999985
    30  C    6.000001
    31  C    6.000006
    32  N    7.000000
    33  C    5.999989
    34  C    6.000003
    35  C    5.999996
    36  C    6.000013
    37  C    5.999997
    38  C    6.000001
    39  O    7.999995
    40  C    5.999997
    41  C    6.000009
    42  O    8.000019
    43  O    7.999981
    44  C    6.000002
    45  H    1.000004
    46  H    1.000001
    47  H    1.000003
    48  H    0.999980
    49  H    1.000013
    50  H    0.999972
    51  H    0.999978
    52  H    1.000001
    53  H    1.000017
    54  H    1.000016
    55  H    1.000028
    56  H    1.000004
    57  H    1.000018
    58  H    1.000004
    59  H    0.999973
    60  H    0.999979
    61  H    1.000007
    62  H    1.000023
    63  H    1.000025
    64  H    0.999975
    65  H    0.999975
    66  H    0.999995
    67  H    1.000020
    68  H    1.000015
    69  H    1.000024
    70  H    0.999975
    71  H    1.000002
    72  H    1.000021
    73  H    1.000029
    74  H    0.999978
    75  H    1.000003
    76  H    0.999964
    77  H    0.999973
    78  H    1.000010
    79  H    1.000017
    80  Mg  12.003422
    81  C    5.969274
    82  C    6.003450
    83  C    6.032692
    84  C    5.997169
    85  N    6.981501
    86  C    6.036915
    87  C    5.996763
    88  C    6.002488
    89  C    5.978383
    90  C    6.003988
    91  C    5.998889
    92  C    5.996753
    93  H    1.006638
    94  N    7.011560
    95  C    5.963070
    96  C    5.974196
    97  C    5.990503
    98  C    5.951006
    99  C    6.006299
   100  C    5.987817
   101  O    7.971270
   102  C    6.006886
   103  N    7.009043
   104  C    5.961474
   105  C    6.013329
   106  C    5.987489
   107  C    6.027525
   108  C    6.004299
   109  C    5.992195
   110  C    5.999717
   111  N    6.998534
   112  C    6.040977
   113  C    6.024659
   114  C    6.004595
   115  C    6.033745
   116  C    6.000894
   117  C    6.016632
   118  O    8.033421
   119  C    6.005934
   120  C    6.002899
   121  O    8.005519
   122  O    8.001054
   123  C    5.997604
   124  H    0.986883
   125  H    0.998135
   126  H    1.015271
   127  H    0.996178
   128  H    0.997109
   129  H    0.984793
   130  H    1.004826
   131  H    0.996104
   132  H    1.011913
   133  H    0.992618
   134  H    1.003568
   135  H    0.995449
   136  H    0.979868
   137  H    0.982589
   138  H    0.980213
   139  H    0.986064
   140  H    0.991452
   141  H    0.992128
   142  H    0.997509
   143  H    1.002880
   144  H    0.996986
   145  H    1.006273
   146  H    0.989581
   147  H    0.998851
   148  H    1.013336
   149  H    1.002157
   150  H    0.996105
   151  H    1.006510
   152  H    1.016749
   153  H    1.015711
   154  H    1.013786
   155  H    1.004448
   156  H    1.000682
   157  H    1.007085
   158  H    1.003721
 Sum of Mulliken charges = 624.00000

 Dipole moment (field-independent basis, Debye):
    X=              7.6303    Y=              1.5887    Z=              7.5085  Tot=             10.8224
 Quadrupole moment (field-independent basis, Debye-Ang):
   XX=           -401.4234   YY=              4.1413   ZZ=             -3.9977
   XY=            -39.0706   XZ=           -200.1978   YZ=              2.7554

 Normal termination of Gaussian 16 at Wed Sep 22 03:59:55 2021.
