 Gaussian 16, Revision A.03,
 Gaussian 16:  ES64L-G16RevA.03 25-Dec-2016

 ----------------------------------------------------------
 #p cam-b3lyp/Def2SVP td=(nstates=5) density=(transition=1)
 ----------------------------------------------------------

 --------------------------------
 TDDFT excited states in gaussian
 --------------------------------
 Symbolic Z-matrix:
 Charge =  0 Multiplicity = 1

                         Standard orientation:
 ---------------------------------------------------------------------
 Center     Atomic      Atomic             Coordinates (Angstroms)
 Number     Number       Type             X           Y           Z
 ---------------------------------------------------------------------
      1         12           0       16.114723    0.553834   -0.448031
      2          6           0       15.924149   -2.512913    1.115526
      3          6           0       13.254941    1.488948    1.494932
      4          6           0       15.963917    3.373526   -2.085028
      5          6           0       18.656103   -0.594078   -2.494708
      6          7           0       14.613121   -0.540805    1.005047
      7          6           0       14.917000   -1.673750    1.615777
      8          6           0       14.106838   -1.830967    2.933546
      9          6           0       12.936171   -0.826675    2.647393
     10          6           0       13.593156    0.140551    1.649664
     11          6           0       11.671189   -1.537044    2.047036
     12          6           0       15.053702   -1.392938    4.073015
     13          6           0       14.540462   -1.593169    5.505467
     14          1           0       13.089136   -1.953328    5.751931
     15          7           0       14.930296    2.256830   -0.310703
     16          6           0       13.825075    2.441617    0.589454
     17          6           0       13.440820    3.841271    0.467918
     18          6           0       14.309807    4.427583   -0.504629
     19          6           0       15.113489    3.338297   -1.057421
     20          6           0       12.314115    4.540345    1.316455
     21          6           0       14.410418    5.940739   -0.889058
     22          8           0       15.113088    6.241962   -1.814661
     23          6           0       13.620705    6.968364   -0.145354
     24          7           0       17.238687    1.326721   -2.021620
     25          6           0       16.999227    2.547043   -2.552398
     26          6           0       17.885480    2.866171   -3.755812
     27          6           0       18.833433    1.644884   -3.785542
     28          6           0       18.192711    0.713405   -2.677910
     29          6           0       17.130269    3.092538   -5.116830
     30          6           0       20.313089    1.912781   -3.679676
     31          6           0       20.882113    2.872687   -2.607126
     32          7           0       17.129090   -1.168952   -0.722125
     33          6           0       18.142069   -1.510036   -1.571965
     34          6           0       18.575797   -2.841705   -1.205376
     35          6           0       17.765159   -3.313187   -0.116113
     36          6           0       16.880834   -2.224867    0.118481
     37          6           0       19.686881   -3.577764   -1.886801
     38          6           0       17.452647   -4.400077    0.749744
     39          8           0       17.916201   -5.555323    0.867439
     40          6           0       16.028736   -3.957871    1.395513
     41          6           0       16.040578   -4.446046    2.845043
     42          8           0       16.872665   -4.213808    3.636222
     43          8           0       14.938787   -5.231199    3.032689
     44          6           0       14.530022   -5.515653    4.392848
     45          1           0       12.344558    1.742816    2.041099
     46          1           0       15.925946    4.276440   -2.698047
     47          1           0       19.442461   -1.022571   -3.118397
     48          1           0       13.683076   -2.829342    3.041057
     49          1           0       12.763647   -0.358680    3.616877
     50          1           0       10.905614   -1.622318    2.817236
     51          1           0       11.982442   -2.514811    1.678845
     52          1           0       11.194020   -0.972124    1.246188
     53          1           0       15.197238   -0.316971    3.977500
     54          1           0       16.061946   -1.784470    3.941453
     55          1           0       14.925229   -0.852122    6.206470
     56          1           0       15.124045   -2.434128    5.880530
     57          1           0       11.605589    5.087990    0.694317
     58          1           0       12.839054    5.172364    2.032579
     59          1           0       11.806463    3.795042    1.929945
     60          1           0       14.248096    7.853006   -0.256640
     61          1           0       13.589559    6.779940    0.927176
     62          1           0       12.545445    7.059768   -0.298604
     63          1           0       18.412715    3.779311   -3.480495
     64          1           0       18.698224    1.022833   -4.670313
     65          1           0       17.787011    2.684546   -5.884700
     66          1           0       17.075656    4.180016   -5.171074
     67          1           0       16.116321    2.696604   -5.060721
     68          1           0       20.457828    2.513257   -4.577147
     69          1           0       20.983408    1.052639   -3.672397
     70          1           0       21.408987    3.765441   -2.941402
     71          1           0       21.682757    2.401323   -2.037186
     72          1           0       20.068228    3.219504   -1.970241
     73          1           0       19.715815   -4.560684   -1.417419
     74          1           0       20.641281   -3.095991   -1.670189
     75          1           0       19.641777   -3.586917   -2.975432
     76          1           0       15.278588   -4.431496    0.761882
     77          1           0       14.529151   -6.587558    4.194550
     78          1           0       13.610915   -5.010748    4.690955
     79          1           0       15.290611   -5.306280    5.145474
     80         12           0      -16.094309    0.447982    0.410375
     81          6           0      -16.025757   -2.525146   -1.358620
     82          6           0      -12.635793    0.471456    0.453608
     83          6           0      -16.227304    3.661257    1.436052
     84          6           0      -19.590935    0.400632   -0.046802
     85          7           0      -14.506199   -0.747121   -0.623026
     86          6           0      -14.753757   -1.972495   -1.094187
     87          6           0      -13.433715   -2.622456   -1.612576
     88          6           0      -12.341656   -1.793825   -0.784794
     89          6           0      -13.214007   -0.620206   -0.195496
     90          6           0      -11.559066   -2.668139    0.224480
     91          6           0      -13.268891   -2.372330   -3.094360
     92          6           0      -12.731199   -3.544067   -3.900913
     93          1           0      -11.730604   -3.364061   -5.104048
     94          7           0      -14.573059    1.804688    1.045907
     95          6           0      -13.239037    1.687576    0.930013
     96          6           0      -12.654175    2.860744    1.493728
     97          6           0      -13.678051    3.741999    1.956277
     98          6           0      -14.918116    3.085044    1.524889
     99          6           0      -11.191898    2.967934    1.723013
    100          6           0      -13.423898    5.095767    2.517646
    101          8           0      -12.280475    5.477641    2.703869
    102          6           0      -14.565734    6.012666    2.939651
    103          7           0      -17.778831    1.847017    0.744418
    104          6           0      -17.492543    3.129526    1.104234
    105          6           0      -18.706440    3.993117    0.989045
    106          6           0      -19.788319    2.918656    0.498703
    107          6           0      -19.074531    1.591018    0.438160
    108          6           0      -19.069893    4.770740    2.267835
    109          6           0      -20.552893    3.266309   -0.854627
    110          6           0      -22.098200    3.234523   -0.914911
    111          7           0      -17.520776   -0.769067   -0.464108
    112          6           0      -18.877797   -0.697788   -0.504902
    113          6           0      -19.412129   -1.935524   -0.865500
    114          6           0      -18.337911   -2.746175   -1.205091
    115          6           0      -17.220532   -1.972069   -1.016412
    116          6           0      -20.934384   -2.238071   -0.987941
    117          6           0      -17.941123   -4.001658   -1.643022
    118          8           0      -18.648182   -4.923702   -2.034245
    119          6           0      -16.348762   -3.981636   -1.838167
    120          6           0      -15.694613   -4.879367   -0.956080
    121          8           0      -15.455082   -4.795264    0.250837
    122          8           0      -15.311313   -5.968108   -1.733245
    123          6           0      -14.608052   -7.093571   -1.141968
    124          1           0      -11.556865    0.409694    0.608831
    125          1           0      -16.427702    4.686593    1.755280
    126          1           0      -20.681753    0.452932   -0.053953
    127          1           0      -13.485027   -3.691061   -1.405735
    128          1           0      -11.637726   -1.241989   -1.406894
    129          1           0      -11.957792   -3.681053    0.276802
    130          1           0      -11.594165   -2.204505    1.210852
    131          1           0      -10.512961   -2.662271   -0.080808
    132          1           0      -12.689177   -1.500541   -3.398380
    133          1           0      -14.256423   -2.049559   -3.424010
    134          1           0      -13.598937   -4.122165   -4.218159
    135          1           0      -12.236917   -4.123724   -3.121325
    136          1           0      -11.095725    2.698755    2.774700
    137          1           0      -10.826892    3.974428    1.517564
    138          1           0      -10.608723    2.287175    1.102777
    139          1           0      -14.933731    6.465458    2.018843
    140          1           0      -14.096142    6.834645    3.479409
    141          1           0      -15.325192    5.457112    3.489668
    142          1           0      -18.386168    4.659594    0.188862
    143          1           0      -20.634071    2.860565    1.183876
    144          1           0      -18.797366    5.808288    2.071829
    145          1           0      -18.572700    4.382582    3.157386
    146          1           0      -20.150267    4.747951    2.408489
    147          1           0      -20.218705    2.568688   -1.622441
    148          1           0      -20.353153    4.278923   -1.205770
    149          1           0      -22.243754    2.194578   -1.206907
    150          1           0      -22.459426    3.877195   -1.716730
    151          1           0      -22.683953    3.282345    0.002984
    152          1           0      -21.309271   -1.755733   -1.889762
    153          1           0      -21.569518   -1.832177   -0.200329
    154          1           0      -21.112592   -3.310545   -1.071065
    155          1           0      -16.179388   -4.183739   -2.895904
    156          1           0      -14.895921   -7.979525   -1.707096
    157          1           0      -14.721896   -7.197730   -0.062617
    158          1           0      -13.548938   -6.972738   -1.369952
 ---------------------------------------------------------------------

 SCF Done:  E(RCAM-B3LYP) =  -4069.78313323     A.U. after   18 cycles

 Excitation energies and oscillator strengths:

 Excited State   1:      Singlet-A      1.6989 eV  729.80 nm  f=0.3926  <S**2>=0.000
     309 -> 315       -0.18493
     311 -> 313        0.68433
     309 <- 315       -0.10989
 This state for optimization and/or second-order correction.
 Total Energy, E(TD-HF/TD-DFT) =  -4069.72070045
 Copying the excited state density for this state as the 1-particle RhoCI density.

 Excited State   2:      Singlet-A      1.7338 eV  715.09 nm  f=0.3844  <S**2>=0.000
     310 -> 316       -0.19604
     312 -> 314        0.68034
     310 <- 316       -0.11061

 Excited State   3:      Singlet-A      2.2193 eV  558.65 nm  f=0.0930  <S**2>=0.000
     310 -> 314        0.63489
     312 -> 316        0.29916

 Excited State   4:      Singlet-A      2.2279 eV  556.51 nm  f=0.0996  <S**2>=0.000
     309 -> 313        0.63658
     311 -> 315        0.29375

 Excited State   5:      Singlet-A      2.9316 eV  422.92 nm  f=0.0000  <S**2>=0.000
     312 -> 313        0.70709

 The electronic state is 1-A.
 Alpha  occ. eigenvalues --  -46.89740 -46.88259 -19.24686 -19.24378 -19.20253
 Alpha  occ. eigenvalues --  -19.20240 -19.19294 -19.19085 -19.19009 -19.18409
 Alpha  occ. eigenvalues --  -14.42402 -14.42070 -14.41724 -14.41721 -14.39857
 Alpha  occ. eigenvalues --  -14.39296 -14.39265 -14.39251 -10.39670 -10.38908
 Alpha  occ. eigenvalues --  -10.35279 -10.35264 -10.35049 -10.34677 -10.31628
 Alpha  occ. eigenvalues --  -10.31597 -10.31455 -10.31446 -10.31358 -10.31191
 Alpha  occ. eigenvalues --  -10.30955 -10.30702 -10.30611 -10.30583 -10.30419
 Alpha  occ. eigenvalues --  -10.30274 -10.29825 -10.29615 -10.29490 -10.29304
 Alpha  occ. eigenvalues --  -10.28999 -10.28881 -10.28768 -10.28761 -10.28591
 Alpha  occ. eigenvalues --  -10.28552 -10.28447 -10.28385 -10.28380 -10.28362
 Alpha  occ. eigenvalues --  -10.28229 -10.28227 -10.28066 -10.27862 -10.27848
 Alpha  occ. eigenvalues --  -10.27812 -10.27791 -10.27774 -10.27689 -10.27645
 Alpha  occ. eigenvalues --  -10.27608 -10.27575 -10.27573 -10.27424 -10.27089
 Alpha  occ. eigenvalues --  -10.26904 -10.26841 -10.26731 -10.26657 -10.26576
 Alpha  occ. eigenvalues --  -10.26550 -10.26457 -10.26456 -10.26269 -10.26256
 Alpha  occ. eigenvalues --  -10.26194 -10.26117 -10.26085 -10.25942 -10.25907
 Alpha  occ. eigenvalues --  -10.25784 -10.25736 -10.25264 -10.24966 -10.24937
 Alpha  occ. eigenvalues --  -10.24901  -3.18062  -3.16896  -1.92975  -1.92512
 Alpha  occ. eigenvalues --   -1.92355  -1.91796  -1.91368  -1.91186  -1.17604
 Alpha  occ. eigenvalues --   -1.15795  -1.11513  -1.10081  -1.10044  -1.09792
 Alpha  occ. eigenvalues --   -1.08001  -1.07572  -1.05562  -1.05228  -1.04136
 Alpha  occ. eigenvalues --   -1.04072  -1.03912  -1.03043  -1.02663  -1.02067
 Alpha  occ. eigenvalues --   -0.93950  -0.93012  -0.89529  -0.89372  -0.89207
 Alpha  occ. eigenvalues --   -0.88660  -0.88529  -0.88453  -0.87947  -0.87299
 Alpha  occ. eigenvalues --   -0.86931  -0.86425  -0.86250  -0.85671  -0.85477
 Alpha  occ. eigenvalues --   -0.84695  -0.84059  -0.83728  -0.83102  -0.82421
 Alpha  occ. eigenvalues --   -0.82311  -0.81753  -0.81536  -0.81417  -0.80853
 Alpha  occ. eigenvalues --   -0.80272  -0.78234  -0.77986  -0.77667  -0.77352
 Alpha  occ. eigenvalues --   -0.76813  -0.76620  -0.76562  -0.75865  -0.75504
 Alpha  occ. eigenvalues --   -0.75234  -0.73567  -0.72677  -0.72446  -0.71999
 Alpha  occ. eigenvalues --   -0.70264  -0.69877  -0.69312  -0.68875  -0.68180
 Alpha  occ. eigenvalues --   -0.68098  -0.67476  -0.66235  -0.66194  -0.65971
 Alpha  occ. eigenvalues --   -0.65541  -0.65181  -0.64917  -0.64916  -0.64292
 Alpha  occ. eigenvalues --   -0.64147  -0.62758  -0.62365  -0.60555  -0.60499
 Alpha  occ. eigenvalues --   -0.59945  -0.59644  -0.59181  -0.59157  -0.59155
 Alpha  occ. eigenvalues --   -0.58815  -0.58240  -0.58137  -0.58053  -0.57912
 Alpha  occ. eigenvalues --   -0.56411  -0.56219  -0.56208  -0.56130  -0.55644
 Alpha  occ. eigenvalues --   -0.55517  -0.55345  -0.54928  -0.54428  -0.54221
 Alpha  occ. eigenvalues --   -0.53631  -0.53596  -0.53512  -0.53455  -0.52958
 Alpha  occ. eigenvalues --   -0.52710  -0.52391  -0.52384  -0.52299  -0.52141
 Alpha  occ. eigenvalues --   -0.52138  -0.52078  -0.51888  -0.51803  -0.51557
 Alpha  occ. eigenvalues --   -0.51370  -0.50757  -0.50712  -0.50434  -0.50196
 Alpha  occ. eigenvalues --   -0.50142  -0.50068  -0.49981  -0.49684  -0.49646
 Alpha  occ. eigenvalues --   -0.49555  -0.49495  -0.49319  -0.49304  -0.49083
 Alpha  occ. eigenvalues --   -0.49044  -0.48769  -0.48445  -0.48351  -0.48226
 Alpha  occ. eigenvalues --   -0.48132  -0.47970  -0.47632  -0.47585  -0.46938
 Alpha  occ. eigenvalues --   -0.46843  -0.46808  -0.46765  -0.46665  -0.46617
 Alpha  occ. eigenvalues --   -0.46539  -0.46185  -0.46018  -0.45954  -0.45874
 Alpha  occ. eigenvalues --   -0.45830  -0.45581  -0.45534  -0.45355  -0.45202
 Alpha  occ. eigenvalues --   -0.45132  -0.45007  -0.44758  -0.44735  -0.44573
 Alpha  occ. eigenvalues --   -0.43964  -0.43852  -0.43664  -0.43445  -0.43351
 Alpha  occ. eigenvalues --   -0.43258  -0.43219  -0.42975  -0.42929  -0.42854
 Alpha  occ. eigenvalues --   -0.42689  -0.42300  -0.42239  -0.42110  -0.42082
 Alpha  occ. eigenvalues --   -0.41982  -0.41978  -0.41894  -0.41873  -0.41565
 Alpha  occ. eigenvalues --   -0.41495  -0.41425  -0.41124  -0.40986  -0.40298
 Alpha  occ. eigenvalues --   -0.40217  -0.39787  -0.39545  -0.39438  -0.38395
 Alpha  occ. eigenvalues --   -0.38345  -0.38267  -0.38022  -0.37945  -0.37504
 Alpha  occ. eigenvalues --   -0.37431  -0.37323  -0.37124  -0.36382  -0.36324
 Alpha  occ. eigenvalues --   -0.35846  -0.35727  -0.35129  -0.34970  -0.34418
 Alpha  occ. eigenvalues --   -0.33954  -0.33672  -0.33339  -0.31881  -0.31574
 Alpha  occ. eigenvalues --   -0.31257  -0.31005  -0.30775  -0.30550  -0.30412
 Alpha  occ. eigenvalues --   -0.29816  -0.29501  -0.29355  -0.24606  -0.23803
 Alpha  occ. eigenvalues --   -0.21599  -0.21089
 Alpha virt. eigenvalues --   -0.09238  -0.08429  -0.02327  -0.01881  -0.00231
 Alpha virt. eigenvalues --    0.00196   0.02281   0.02464   0.02617   0.03031
 Alpha virt. eigenvalues --    0.04000   0.04588   0.05345   0.05454   0.05858

 Mulliken charges:
               1
     1  Mg  12.000135
     2  C    5.999490
     3  C    6.001098
     4  C    6.000689
     5  C    5.999390
     6  N    7.000164
     7  C    6.001121
     8  C    5.999852
     9  C    6.000355
    10  C    5.998528
    11  C    6.000163
    12  C    5.999687
    13  C    6.000060
    14  H    1.000100
    15  N    7.000565
    16  C    5.997560
    17  C    5.999638
    18  C    5.999163
    19  C    5.998745
    20  C    6.000005
    21  C    5.999412
    22  O    7.998989
    23  C    6.000240
    24  N    6.999968
    25  C    5.998504
    26  C    6.000410
    27  C    5.999750
    28  C    6.001268
    29  C    6.000055
    30  C    5.999693
    31  C    5.999891
    32  N    6.999695
    33  C    6.001584
    34  C    6.001294
    35  C    6.000294
    36  C    6.001114
    37  C    5.999884
    38  C    6.000675
    39  O    8.001441
    40  C    6.000026
    41  C    6.000208
    42  O    8.000212
    43  O    8.000072
    44  C    5.999911
    45  H    0.999453
    46  H    0.999768
    47  H    1.000357
    48  H    0.999982
    49  H    0.999799
    50  H    0.999639
    51  H    0.999482
    52  H    1.000034
    53  H    1.000533
    54  H    0.999763
    55  H    1.000152
    56  H    0.999947
    57  H    0.999169
    58  H    0.999327
    59  H    0.999145
    60  H    0.999432
    61  H    0.999694
    62  H    0.999374
    63  H    1.000035
    64  H    0.999968
    65  H    0.999623
    66  H    1.000063
    67  H    0.999940
    68  H    1.000416
    69  H    0.999874
    70  H    1.000218
    71  H    0.999915
    72  H    1.000344
    73  H    1.000610
    74  H    1.001037
    75  H    1.000974
    76  H    1.000306
    77  H    1.000175
    78  H    1.000195
    79  H    1.000160
    80  Mg  12.002845
    81  C    6.006894
    82  C    5.967021
    83  C    5.985186
    84  C    6.029633
    85  N    6.985168
    86  C    5.978706
    87  C    6.007304
    88  C    5.989940
    89  C    6.042526
    90  C    5.999269
    91  C    6.000987
    92  C    6.002519
    93  H    0.990307
    94  N    6.993328
    95  C    6.051008
    96  C    6.021845
    97  C    6.012224
    98  C    6.042587
    99  C    5.993496
   100  C    6.009473
   101  O    8.018445
   102  C    5.996868
   103  N    7.008307
   104  C    6.029696
   105  C    5.988928
   106  C    6.010682
   107  C    5.961781
   108  C    5.996026
   109  C    6.002575
   110  C    5.997493
   111  N    7.001028
   112  C    5.961638
   113  C    5.970751
   114  C    5.994007
   115  C    5.976118
   116  C    6.000078
   117  C    5.984106
   118  O    7.966774
   119  C    5.994546
   120  C    5.998984
   121  O    7.989645
   122  O    7.998248
   123  C    6.004128
   124  H    1.004623
   125  H    1.011867
   126  H    0.994143
   127  H    1.001378
   128  H    0.999448
   129  H    1.012479
   130  H    0.995440
   131  H    1.001711
   132  H    0.987951
   133  H    1.006617
   134  H    1.005030
   135  H    0.995949
   136  H    1.023238
   137  H    1.018929
   138  H    1.023459
   139  H    1.010265
   140  H    1.013305
   141  H    1.008058
   142  H    0.999588
   143  H    0.998798
   144  H    0.999391
   145  H    0.998865
   146  H    1.012308
   147  H    1.005161
   148  H    0.989439
   149  H    1.007759
   150  H    0.996915
   151  H    0.997012
   152  H    0.978978
   153  H    0.978657
   154  H    0.987201
   155  H    0.989692
   156  H    0.995929
   157  H    0.995442
   158  H    0.991857
 Sum of Mulliken charges = 624.00000

 Dipole moment (field-independent basis, Debye):
    X=              6.9280    Y=              7.5785    Z=              4.0563  Tot=             11.0401
 Quadrupole moment (field-independent basis, Debye-Ang):
   XX=           -206.0123   YY=              3.7016   ZZ=              1.7479
   XY=           -129.2915   XZ=            -62.3110   YZ=              4.0077

 Normal termination of Gaussian 16 at Wed Sep 22 02:41:16 2021.
