 Gaussian 16, Revision A.03,
 Gaussian 16:  ES64L-G16RevA.03 25-Dec-2016

 -----------------------------------
 #p cam-b3lyp/Def2SVP td=(nstates=5)
 -----------------------------------

 --------------------------------
 TDDFT excited states in gaussian
 --------------------------------
 Symbolic Z-matrix:
 Charge =  0 Multiplicity = 1

                         Standard orientation:
 ---------------------------------------------------------------------
 Center     Atomic      Atomic             Coordinates (Angstroms)
 Number     Number       Type             X           Y           Z
 ---------------------------------------------------------------------
      1         12           0       20.449351    0.032989    0.522590
      2          6           0       17.891221   -1.231542   -1.464959
      3          6           0       20.752117    2.679796   -1.632779
      4          6           0       23.154861    1.048256    2.329155
      5          6           0       20.121669   -2.923269    2.468479
      6          7           0       19.467987    0.632999   -1.344297
      7          6           0       18.371953    0.007614   -1.877573
      8          6           0       17.919420    0.863089   -3.063476
      9          6           0       19.009018    1.901534   -3.262680
     10          6           0       19.783500    1.748445   -1.958566
     11          6           0       19.880351    1.848586   -4.488836
     12          6           0       16.438548    1.465922   -2.954597
     13          6           0       16.046662    2.513260   -4.045998
     14          1           0       15.364504    2.010753   -5.345311
     15          7           0       21.657052    1.718355    0.434108
     16          6           0       21.650730    2.669240   -0.533012
     17          6           0       22.723612    3.578398   -0.224107
     18          6           0       23.417749    3.092747    0.922858
     19          6           0       22.782226    1.902483    1.271758
     20          6           0       22.960808    4.787842   -1.074849
     21          6           0       24.720403    3.687562    1.532732
     22          8           0       25.435109    3.039369    2.276110
     23          6           0       25.249833    4.994866    1.179837
     24          7           0       21.410461   -0.782185    2.069552
     25          6           0       22.490656   -0.177458    2.711591
     26          6           0       22.983227   -0.985903    3.924440
     27          6           0       21.839237   -2.044355    4.083108
     28          6           0       21.042847   -1.869231    2.800547
     29          6           0       24.392931   -1.411727    3.906802
     30          6           0       20.922481   -2.033747    5.428311
     31          6           0       20.859821   -3.263624    6.338984
     32          7           0       19.265023   -1.816056    0.501748
     33          6           0       19.283349   -2.888761    1.348390
     34          6           0       18.317229   -3.863131    0.967096
     35          6           0       17.654695   -3.209498   -0.141180
     36          6           0       18.346698   -1.998901   -0.425347
     37          6           0       18.076940   -5.130794    1.694664
     38          6           0       16.531407   -3.318648   -1.043357
     39          8           0       15.619176   -4.112336   -1.165847
     40          6           0       16.668054   -1.977447   -1.977332
     41          6           0       16.619920   -2.313530   -3.423199
     42          8           0       17.480318   -2.945506   -3.995956
     43          8           0       15.522834   -1.826597   -4.029121
     44          6           0       15.485753   -1.880367   -5.541037
     45          1           0       20.817736    3.552862   -2.285814
     46          1           0       24.028190    1.392527    2.886724
     47          1           0       20.160947   -3.735905    3.197108
     48          1           0       17.934096    0.109782   -3.851018
     49          1           0       18.554989    2.889450   -3.335882
     50          1           0       20.800124    1.487008   -4.030103
     51          1           0       19.956613    2.812438   -4.992306
     52          1           0       19.579992    1.059790   -5.178871
     53          1           0       16.469404    1.939665   -1.973187
     54          1           0       15.708479    0.657635   -2.974170
     55          1           0       16.916801    3.055103   -4.414499
     56          1           0       15.392125    3.249858   -3.580071
     57          1           0       22.252275    5.003888   -1.875085
     58          1           0       23.900757    4.599354   -1.592513
     59          1           0       23.126033    5.694585   -0.492605
     60          1           0       25.341129    5.282480    0.132943
     61          1           0       26.198132    5.258671    1.647881
     62          1           0       24.549159    5.661696    1.681888
     63          1           0       22.845262   -0.208313    4.676216
     64          1           0       22.429164   -2.949875    3.942171
     65          1           0       25.044892   -0.997278    4.676223
     66          1           0       24.804232   -1.137042    2.935120
     67          1           0       24.535620   -2.483921    4.040905
     68          1           0       19.896890   -1.832315    5.119561
     69          1           0       21.109717   -1.244578    6.157486
     70          1           0       19.948752   -3.855778    6.249051
     71          1           0       21.126493   -3.077592    7.378972
     72          1           0       21.603420   -3.972632    5.974761
     73          1           0       19.040509   -5.588838    1.916641
     74          1           0       17.409918   -5.804394    1.157332
     75          1           0       17.757270   -4.867588    2.703461
     76          1           0       15.775461   -1.389306   -1.766570
     77          1           0       14.418544   -1.791231   -5.742812
     78          1           0       15.902187   -2.833695   -5.865754
     79          1           0       16.013865   -0.995580   -5.896797
     80         12           0      -20.435145   -0.172247    0.079342
     81          6           0      -18.200434    2.442906    0.049208
     82          6           0      -18.190009   -2.247849   -1.462944
     83          6           0      -22.657999   -2.870752    0.299347
     84          6           0      -22.415277    1.518364    2.348069
     85          7           0      -18.339017    0.091645   -0.408402
     86          6           0      -17.629080    1.290050   -0.521994
     87          6           0      -16.212822    1.053507   -1.052591
     88          6           0      -16.397570   -0.367760   -1.642410
     89          6           0      -17.707528   -0.952023   -1.075160
     90          6           0      -16.264730   -0.407622   -3.180542
     91          6           0      -15.150534    1.136465    0.061420
     92          6           0      -13.819213    1.888268   -0.285161
     93          1           0      -12.599549    1.403799    0.396480
     94          7           0      -20.429284   -2.201354   -0.541456
     95          6           0      -19.459398   -2.839956   -1.235235
     96          6           0      -19.880149   -4.111516   -1.742692
     97          6           0      -21.223906   -4.269050   -1.365447
     98          6           0      -21.518190   -3.051104   -0.502351
     99          6           0      -19.037210   -4.997074   -2.662620
    100          6           0      -22.169303   -5.477728   -1.705407
    101          8           0      -21.681758   -6.465155   -2.312852
    102          6           0      -23.729019   -5.491365   -1.400895
    103          7           0      -22.125977   -0.725965    1.406471
    104          6           0      -22.922603   -1.798833    1.180530
    105          6           0      -24.217005   -1.742090    1.950497
    106          6           0      -24.145640   -0.370050    2.654906
    107          6           0      -22.846797    0.207215    2.086437
    108          6           0      -25.501034   -1.983192    1.089346
    109          6           0      -24.256420   -0.470848    4.250599
    110          6           0      -25.607400   -0.031765    4.827133
    111          7           0      -20.394506    1.629624    0.985045
    112          6           0      -21.285516    2.249917    1.888317
    113          6           0      -20.919282    3.664836    2.034669
    114          6           0      -19.767685    3.773378    1.267606
    115          6           0      -19.452792    2.494774    0.778832
    116          6           0      -21.566237    4.746364    2.823583
    117          6           0      -18.724088    4.716660    0.841444
    118          8           0      -18.657986    5.955854    0.893205
    119          6           0      -17.676671    3.895339   -0.012278
    120          6           0      -17.591134    4.419272   -1.439542
    121          8           0      -18.524996    4.716377   -2.191216
    122          8           0      -16.250293    4.544114   -1.651782
    123          6           0      -15.846736    5.196911   -2.885936
    124          1           0      -17.485208   -2.917722   -1.959731
    125          1           0      -23.466079   -3.601527    0.373775
    126          1           0      -23.002074    2.111579    3.052255
    127          1           0      -15.970327    1.812738   -1.796883
    128          1           0      -15.553937   -0.919973   -1.228466
    129          1           0      -15.737196    0.395451   -3.695165
    130          1           0      -17.283802   -0.342707   -3.561533
    131          1           0      -15.791325   -1.325028   -3.529547
    132          1           0      -14.909173    0.163965    0.489617
    133          1           0      -15.669028    1.588038    0.907545
    134          1           0      -13.941067    2.946533   -0.054394
    135          1           0      -13.613980    1.751904   -1.347864
    136          1           0      -19.641098   -5.145647   -3.557513
    137          1           0      -18.660054   -5.853523   -2.103603
    138          1           0      -18.205808   -4.359118   -2.962291
    139          1           0      -23.830694   -5.825062   -0.368890
    140          1           0      -24.161706   -6.230595   -2.074600
    141          1           0      -24.112692   -4.527384   -1.736110
    142          1           0      -24.198748   -2.538592    2.694485
    143          1           0      -24.843756    0.390743    2.306507
    144          1           0      -26.277931   -1.253104    1.314616
    145          1           0      -25.926687   -2.975173    1.239552
    146          1           0      -25.226657   -1.980952    0.035254
    147          1           0      -23.541124    0.175203    4.759424
    148          1           0      -23.991764   -1.475560    4.579980
    149          1           0      -25.886330   -0.689725    5.650359
    150          1           0      -26.372365   -0.085410    4.052804
    151          1           0      -25.617488    0.992288    5.199929
    152          1           0      -22.489295    4.339903    3.236978
    153          1           0      -21.579447    5.671002    2.246208
    154          1           0      -20.935685    4.891424    3.701429
    155          1           0      -16.686782    3.882407    0.444628
    156          1           0      -16.399471    4.862106   -3.764631
    157          1           0      -14.790318    5.148926   -3.150026
    158          1           0      -16.009986    6.271664   -2.802205
 ---------------------------------------------------------------------

 SCF Done:  E(RCAM-B3LYP) =  -4069.83106247     A.U. after   19 cycles

 Excitation energies and oscillator strengths:

 Excited State   1:      Singlet-A      1.6981 eV  730.14 nm  f=0.3797  <S**2>=0.000
     309 -> 316        0.17909
     311 -> 313        0.68532
     309 <- 316        0.10828
 This state for optimization and/or second-order correction.
 Total Energy, E(TD-HF/TD-DFT) =  -4069.76865874
 Copying the excited state density for this state as the 1-particle RhoCI density.

 Excited State   2:      Singlet-A      1.7089 eV  725.51 nm  f=0.3819  <S**2>=0.000
     310 -> 315        0.17434
     312 -> 314        0.68562
     310 <- 315        0.10510

 Excited State   3:      Singlet-A      2.2224 eV  557.87 nm  f=0.0945  <S**2>=0.000
     309 -> 313        0.63226
     311 -> 316       -0.30141

 Excited State   4:      Singlet-A      2.2476 eV  551.63 nm  f=0.0932  <S**2>=0.000
     310 -> 314        0.62547
     312 -> 315       -0.31549

 Excited State   5:      Singlet-A      3.1124 eV  398.36 nm  f=0.0000  <S**2>=0.000
     312 -> 313        0.70710

 The electronic state is 1-A.
 Alpha  occ. eigenvalues --  -46.89168 -46.87882 -19.26358 -19.24425 -19.20260
 Alpha  occ. eigenvalues --  -19.19677 -19.19084 -19.18665 -19.18441 -19.18264
 Alpha  occ. eigenvalues --  -14.42718 -14.42401 -14.42167 -14.42047 -14.40221
 Alpha  occ. eigenvalues --  -14.39103 -14.39053 -14.38443 -10.39951 -10.37972
 Alpha  occ. eigenvalues --  -10.36669 -10.35588 -10.34747 -10.34652 -10.32193
 Alpha  occ. eigenvalues --  -10.32114 -10.32047 -10.31603 -10.31587 -10.31179
 Alpha  occ. eigenvalues --  -10.31131 -10.31118 -10.31086 -10.30473 -10.30447
 Alpha  occ. eigenvalues --  -10.30393 -10.29810 -10.29702 -10.29668 -10.29615
 Alpha  occ. eigenvalues --  -10.28998 -10.28804 -10.28486 -10.28472 -10.28343
 Alpha  occ. eigenvalues --  -10.28301 -10.28152 -10.28142 -10.28115 -10.28077
 Alpha  occ. eigenvalues --  -10.28015 -10.28009 -10.27967 -10.27907 -10.27737
 Alpha  occ. eigenvalues --  -10.27703 -10.27604 -10.27538 -10.27536 -10.27529
 Alpha  occ. eigenvalues --  -10.27464 -10.27288 -10.27266 -10.27219 -10.27144
 Alpha  occ. eigenvalues --  -10.27061 -10.27037 -10.26982 -10.26956 -10.26947
 Alpha  occ. eigenvalues --  -10.26909 -10.26868 -10.26862 -10.26730 -10.26561
 Alpha  occ. eigenvalues --  -10.26271 -10.26256 -10.26159 -10.26045 -10.25968
 Alpha  occ. eigenvalues --  -10.25758 -10.25754 -10.25594 -10.25495 -10.25245
 Alpha  occ. eigenvalues --  -10.24581  -3.17700  -3.16542  -1.92567  -1.92143
 Alpha  occ. eigenvalues --   -1.92031  -1.91457  -1.90998  -1.90844  -1.16833
 Alpha  occ. eigenvalues --   -1.15852  -1.10987  -1.09495  -1.08610  -1.08355
 Alpha  occ. eigenvalues --   -1.07747  -1.06738  -1.05246  -1.04669  -1.04115
 Alpha  occ. eigenvalues --   -1.03997  -1.03513  -1.03320  -1.02357  -1.02144
 Alpha  occ. eigenvalues --   -0.92439  -0.91413  -0.89220  -0.88871  -0.88831
 Alpha  occ. eigenvalues --   -0.88714  -0.88687  -0.88337  -0.87576  -0.87273
 Alpha  occ. eigenvalues --   -0.86980  -0.86979  -0.86708  -0.86385  -0.84646
 Alpha  occ. eigenvalues --   -0.84307  -0.83891  -0.83711  -0.82645  -0.82501
 Alpha  occ. eigenvalues --   -0.82477  -0.81631  -0.81417  -0.81115  -0.80748
 Alpha  occ. eigenvalues --   -0.80184  -0.78798  -0.77931  -0.77800  -0.77470
 Alpha  occ. eigenvalues --   -0.77288  -0.76737  -0.75899  -0.75882  -0.75286
 Alpha  occ. eigenvalues --   -0.75153  -0.72784  -0.72700  -0.71821  -0.71718
 Alpha  occ. eigenvalues --   -0.69393  -0.69191  -0.68962  -0.68950  -0.68232
 Alpha  occ. eigenvalues --   -0.67878  -0.67244  -0.66922  -0.66123  -0.65553
 Alpha  occ. eigenvalues --   -0.65429  -0.65071  -0.64987  -0.64684  -0.64550
 Alpha  occ. eigenvalues --   -0.64209  -0.62681  -0.61431  -0.60535  -0.59939
 Alpha  occ. eigenvalues --   -0.59759  -0.59588  -0.58959  -0.58915  -0.58834
 Alpha  occ. eigenvalues --   -0.58600  -0.57963  -0.57723  -0.57306  -0.57229
 Alpha  occ. eigenvalues --   -0.56367  -0.55959  -0.55758  -0.55752  -0.55415
 Alpha  occ. eigenvalues --   -0.55340  -0.55010  -0.54788  -0.54580  -0.53810
 Alpha  occ. eigenvalues --   -0.53760  -0.53363  -0.53162  -0.53133  -0.52971
 Alpha  occ. eigenvalues --   -0.52787  -0.52597  -0.52591  -0.52349  -0.52082
 Alpha  occ. eigenvalues --   -0.52007  -0.51578  -0.51349  -0.51319  -0.51173
 Alpha  occ. eigenvalues --   -0.51092  -0.50996  -0.50865  -0.50847  -0.50497
 Alpha  occ. eigenvalues --   -0.50307  -0.49937  -0.49936  -0.49456  -0.49442
 Alpha  occ. eigenvalues --   -0.49351  -0.49322  -0.49144  -0.49048  -0.48997
 Alpha  occ. eigenvalues --   -0.48629  -0.48504  -0.48259  -0.48234  -0.48139
 Alpha  occ. eigenvalues --   -0.47839  -0.47725  -0.47676  -0.47468  -0.47453
 Alpha  occ. eigenvalues --   -0.47173  -0.47108  -0.46855  -0.46842  -0.46595
 Alpha  occ. eigenvalues --   -0.46569  -0.46543  -0.46379  -0.46257  -0.46070
 Alpha  occ. eigenvalues --   -0.45997  -0.45562  -0.45246  -0.45156  -0.45117
 Alpha  occ. eigenvalues --   -0.44804  -0.44767  -0.44426  -0.44411  -0.44245
 Alpha  occ. eigenvalues --   -0.44111  -0.44015  -0.43785  -0.43763  -0.43687
 Alpha  occ. eigenvalues --   -0.43474  -0.43374  -0.43273  -0.42936  -0.42814
 Alpha  occ. eigenvalues --   -0.42708  -0.42465  -0.42445  -0.42114  -0.41961
 Alpha  occ. eigenvalues --   -0.41951  -0.41829  -0.41573  -0.41515  -0.41288
 Alpha  occ. eigenvalues --   -0.41142  -0.40968  -0.40791  -0.40597  -0.40384
 Alpha  occ. eigenvalues --   -0.40202  -0.39708  -0.39510  -0.39354  -0.39281
 Alpha  occ. eigenvalues --   -0.38792  -0.38672  -0.38377  -0.38147  -0.37778
 Alpha  occ. eigenvalues --   -0.37376  -0.37265  -0.36889  -0.36847  -0.36409
 Alpha  occ. eigenvalues --   -0.36294  -0.36059  -0.34864  -0.34789  -0.34072
 Alpha  occ. eigenvalues --   -0.33988  -0.33026  -0.32989  -0.31574  -0.31311
 Alpha  occ. eigenvalues --   -0.31191  -0.30972  -0.30486  -0.30447  -0.30213
 Alpha  occ. eigenvalues --   -0.29830  -0.29723  -0.29052  -0.24209  -0.24193
 Alpha  occ. eigenvalues --   -0.21131  -0.21076
 Alpha virt. eigenvalues --   -0.08801  -0.08574  -0.02015  -0.01879   0.00179
 Alpha virt. eigenvalues --    0.00612   0.01645   0.01986   0.02727   0.03373
 Alpha virt. eigenvalues --    0.04694   0.04992   0.05055   0.05238   0.06256

 Mulliken charges:
               1
     1  Mg   0.828796
     2  C    0.048445
     3  C   -0.079087
     4  C   -0.067481
     5  C   -0.103357
     6  N   -0.255691
     7  C   -0.052024
     8  C   -0.000602
     9  C   -0.103502
    10  C    0.035612
    11  C    0.099464
    12  C    0.042539
    13  C   -0.062431
    14  H    0.013852
    15  N   -0.403927
    16  C    0.147260
    17  C   -0.142784
    18  C   -0.017886
    19  C    0.106319
    20  C    0.100432
    21  C    0.025248
    22  O   -0.202176
    23  C    0.059487
    24  N   -0.343330
    25  C    0.041660
    26  C   -0.041084
    27  C   -0.002504
    28  C    0.022952
    29  C    0.094410
    30  C    0.043902
    31  C   -0.014162
    32  N   -0.286872
    33  C    0.153008
    34  C   -0.160757
    35  C   -0.026714
    36  C    0.074256
    37  C    0.149291
    38  C    0.065574
    39  O   -0.154865
    40  C   -0.074523
    41  C    0.174466
    42  O   -0.224076
    43  O   -0.340818
    44  C    0.172988
    45  H   -0.041508
    46  H    0.001684
    47  H   -0.024250
    48  H    0.009382
    49  H   -0.002353
    50  H    0.017514
    51  H    0.021537
    52  H    0.015317
    53  H    0.009134
    54  H    0.039081
    55  H    0.023339
    56  H    0.035813
    57  H    0.015664
    58  H    0.027312
    59  H    0.025114
    60  H    0.036038
    61  H    0.023059
    62  H    0.027294
    63  H    0.010712
    64  H    0.008019
    65  H    0.017748
    66  H    0.025450
    67  H    0.006149
    68  H    0.012074
    69  H    0.010604
    70  H    0.018369
    71  H    0.023297
    72  H   -0.001761
    73  H    0.012731
    74  H    0.047922
    75  H    0.021408
    76  H    0.037223
    77  H    0.044511
    78  H    0.065039
    79  H    0.042028
    80  Mg   0.836126
    81  C   -0.065933
    82  C   -0.099832
    83  C   -0.076410
    84  C   -0.074292
    85  N   -0.335347
    86  C   -0.053030
    87  C   -0.007708
    88  C   -0.038879
    89  C    0.100361
    90  C    0.060683
    91  C    0.062701
    92  C   -0.070260
    93  H    0.026022
    94  N   -0.347194
    95  C    0.138453
    96  C   -0.175723
    97  C   -0.042918
    98  C    0.173859
    99  C    0.164806
   100  C    0.001207
   101  O   -0.229601
   102  C    0.054725
   103  N   -0.257141
   104  C   -0.006402
   105  C   -0.021879
   106  C   -0.004510
   107  C    0.016318
   108  C    0.057142
   109  C    0.038570
   110  C   -0.002756
   111  N   -0.349138
   112  C    0.091994
   113  C   -0.191260
   114  C    0.000939
   115  C    0.118562
   116  C    0.151207
   117  C    0.079074
   118  O   -0.194642
   119  C    0.005611
   120  C    0.224943
   121  O   -0.217110
   122  O   -0.326147
   123  C    0.174549
   124  H   -0.017099
   125  H   -0.042485
   126  H   -0.036581
   127  H    0.000606
   128  H    0.005491
   129  H    0.014657
   130  H    0.013566
   131  H    0.016705
   132  H    0.006735
   133  H    0.005791
   134  H    0.043346
   135  H    0.028582
   136  H    0.042072
   137  H    0.047536
   138  H   -0.009930
   139  H    0.058758
   140  H    0.031692
   141  H    0.040069
   142  H    0.020129
   143  H    0.008825
   144  H    0.024597
   145  H    0.011790
   146  H    0.017599
   147  H    0.008255
   148  H    0.004659
   149  H    0.016477
   150  H    0.008711
   151  H    0.019580
   152  H   -0.000758
   153  H    0.052428
   154  H    0.027010
   155  H    0.034508
   156  H    0.037775
   157  H    0.033793
   158  H    0.035376
 Sum of Mulliken charges =  -0.00000

 Dipole moment (field-independent basis, Debye):
    X=              0.2220    Y=              2.8838    Z=              1.3182  Tot=              3.1786
 Quadrupole moment (field-independent basis, Debye-Ang):
   XX=           -404.9216   YY=           -557.2321   ZZ=           -479.6983
   XY=            139.2285   XZ=            -13.7383   YZ=            -39.7610

 Normal termination of Gaussian 16 at Thu Sep 16 01:49:11 2021.
