 Gaussian 16, Revision A.03,
 Gaussian 16:  ES64L-G16RevA.03 25-Dec-2016

 -----------------------------------------------------
 #p cam-b3lyp/Def2SVP td=(nstates=5) density=(current)
 -----------------------------------------------------

 --------------------------------
 TDDFT excited states in gaussian
 --------------------------------
 Symbolic Z-matrix:
 Charge =  0 Multiplicity = 1

                         Standard orientation:
 ---------------------------------------------------------------------
 Center     Atomic      Atomic             Coordinates (Angstroms)
 Number     Number       Type             X           Y           Z
 ---------------------------------------------------------------------
      1         12           0       -0.720166    0.127069    0.339434
      2          6           0        2.759057    0.063244    0.327411
      3          6           0       -0.799202   -3.236379    0.159451
      4          6           0       -4.066168    0.323014   -0.098003
      5          6           0       -0.548413    3.557052    0.030383
      6          7           0        0.867588   -1.415480    0.234848
      7          6           0        2.205518   -1.210052    0.456876
      8          6           0        2.920860   -2.505143    0.532607
      9          6           0        1.852087   -3.599428    0.429497
     10          6           0        0.516389   -2.751211    0.279896
     11          6           0        2.015560   -4.692731   -0.614952
     12          6           0        3.843625   -2.599621    1.876363
     13          6           0        5.371333   -2.753077    1.689756
     14          1           0        6.172782   -3.664757    2.586092
     15          7           0       -2.233471   -1.256371    0.190318
     16          6           0       -2.070777   -2.631610    0.116217
     17          6           0       -3.334362   -3.251142   -0.055176
     18          6           0       -4.318310   -2.229003   -0.139321
     19          6           0       -3.553962   -0.985858    0.005563
     20          6           0       -3.410131   -4.826885    0.005930
     21          6           0       -5.804877   -2.455840   -0.408645
     22          8           0       -6.651704   -1.562304   -0.559942
     23          6           0       -6.338510   -3.820613   -0.421059
     24          7           0       -2.144810    1.675549   -0.237071
     25          6           0       -3.455049    1.542466   -0.239769
     26          6           0       -4.145439    2.867417   -0.634729
     27          6           0       -3.039988    3.850440   -0.081130
     28          6           0       -1.798463    2.964353   -0.063333
     29          6           0       -4.467065    3.188431   -2.141306
     30          6           0       -3.312319    4.520140    1.350221
     31          6           0       -3.492157    3.630752    2.511563
     32          7           0        0.790827    1.642569    0.150563
     33          6           0        0.704186    3.044516    0.043634
     34          6           0        2.020034    3.596159   -0.019683
     35          6           0        2.856955    2.498735    0.018440
     36          6           0        2.053636    1.330869    0.231451
     37          6           0        2.365862    4.963147   -0.357968
     38          6           0        4.183709    2.121907    0.163851
     39          8           0        5.230076    2.778515    0.159430
     40          6           0        4.229624    0.529756    0.273006
     41          6           0        4.842295    0.062642   -1.005859
     42          8           0        4.507157    0.206463   -2.162897
     43          8           0        5.952468   -0.580934   -0.640631
     44          6           0        6.756444   -1.187743   -1.751622
     45          1           0       -0.700331   -4.310293    0.330730
     46          1           0       -5.157323    0.336306   -0.082045
     47          1           0       -0.511428    4.647776   -0.001034
     48          1           0        3.567237   -2.515588   -0.344119
     49          1           0        1.767131   -4.100613    1.393452
     50          1           0        1.407066   -4.214277   -1.381458
     51          1           0        1.708316   -5.692241   -0.306734
     52          1           0        2.995702   -4.880536   -1.052458
     53          1           0        3.471334   -3.413658    2.497626
     54          1           0        3.830466   -1.692156    2.480571
     55          1           0        5.797668   -1.772499    1.903401
     56          1           0        5.640137   -2.938500    0.650672
     57          1           0       -3.935551   -5.180220   -0.881105
     58          1           0       -4.078630   -4.888982    0.864709
     59          1           0       -2.478178   -5.392076   -0.009005
     60          1           0       -5.828115   -4.433880   -1.162398
     61          1           0       -7.319875   -3.744305   -0.888648
     62          1           0       -6.428511   -4.294711    0.556638
     63          1           0       -4.977480    3.033518    0.049680
     64          1           0       -3.021514    4.651945   -0.819223
     65          1           0       -3.704413    2.894114   -2.861304
     66          1           0       -4.622589    4.267636   -2.118375
     67          1           0       -5.386057    2.691720   -2.453608
     68          1           0       -4.209417    5.139339    1.372790
     69          1           0       -2.424511    5.033055    1.719995
     70          1           0       -2.469131    3.383241    2.791375
     71          1           0       -4.016780    2.683590    2.382404
     72          1           0       -3.945371    4.039558    3.414058
     73          1           0        2.323510    4.973941   -1.447745
     74          1           0        3.354785    5.290037   -0.037900
     75          1           0        1.726495    5.704167    0.123072
     76          1           0        4.728644    0.171714    1.173562
     77          1           0        6.562546   -2.257434   -1.669362
     78          1           0        7.807080   -0.925027   -1.630237
     79          1           0        6.479476   -0.924755   -2.772905
 ---------------------------------------------------------------------

 SCF Done:  E(RCAM-B3LYP) =  -2034.88172772     A.U. after   19 cycles

 Excitation energies and oscillator strengths:

 Excited State   1:      Singlet-A      1.7047 eV  727.32 nm  f=0.3741  <S**2>=0.000
     155 ->158        -0.17530
     156 ->157         0.68603
     155 <-158        -0.10617
 This state for optimization and/or second-order correction.
 Total Energy, E(TD-HF/TD-DFT) =  -2034.81908230
 Copying the excited state density for this state as the 1-particle RhoCI density.

 Excited State   2:      Singlet-A      2.1769 eV  569.54 nm  f=0.1390  <S**2>=0.000
     155 ->157         0.65142
     156 ->158         0.26315

 Excited State   3:      Singlet-A      3.2935 eV  376.46 nm  f=0.0018  <S**2>=0.000
     152 ->157        -0.11264
     153 ->157         0.45407
     153 ->159        -0.23171
     153 ->160        -0.11889
     153 ->161         0.11606
     154 ->157        -0.37281

 Excited State   4:      Singlet-A      3.4512 eV  359.25 nm  f=0.0040  <S**2>=0.000
     152 ->157        -0.13609
     153 ->157         0.35841
     153 ->159        -0.10060
     154 ->157         0.56262

 Excited State   5:      Singlet-A      3.5611 eV  348.16 nm  f=0.2576  <S**2>=0.000
     152 ->157        -0.40808
     153 ->157        -0.13078
     155 ->157        -0.16661
     156 ->158         0.50722

 The electronic state is 1-A.
 Alpha  occ. eigenvalues --  -46.89366 -19.25069 -19.19097 -19.18694 -19.18235
 Alpha  occ. eigenvalues --  -14.42025 -14.41853 -14.39727 -14.39012 -10.38637
 Alpha  occ. eigenvalues --  -10.35099 -10.34180 -10.31724 -10.31449 -10.31232
 Alpha  occ. eigenvalues --  -10.30651 -10.30309 -10.30130 -10.29816 -10.29131
 Alpha  occ. eigenvalues --  -10.29011 -10.28696 -10.28576 -10.28565 -10.28307
 Alpha  occ. eigenvalues --  -10.28180 -10.27910 -10.27890 -10.27823 -10.27549
 Alpha  occ. eigenvalues --  -10.27531 -10.27505 -10.27498 -10.27182 -10.26525
 Alpha  occ. eigenvalues --  -10.26488 -10.26403 -10.26289 -10.26061 -10.25831
 Alpha  occ. eigenvalues --  -10.25608 -10.24757 -10.24682  -3.17775  -1.92678
 Alpha  occ. eigenvalues --   -1.92209  -1.92092  -1.17031  -1.09151  -1.08586
 Alpha  occ. eigenvalues --   -1.07383  -1.05448  -1.04284  -1.03410  -1.02655
 Alpha  occ. eigenvalues --   -0.92239  -0.89246  -0.88774  -0.88396  -0.87990
 Alpha  occ. eigenvalues --   -0.87625  -0.86890  -0.84664  -0.84314  -0.83098
 Alpha  occ. eigenvalues --   -0.82034  -0.81589  -0.80767  -0.78778  -0.77691
 Alpha  occ. eigenvalues --   -0.77407  -0.75975  -0.75393  -0.73507  -0.71704
 Alpha  occ. eigenvalues --   -0.69414  -0.69118  -0.67801  -0.67238  -0.65784
 Alpha  occ. eigenvalues --   -0.65417  -0.64843  -0.63996  -0.62086  -0.60463
 Alpha  occ. eigenvalues --   -0.59950  -0.59335  -0.58643  -0.58287  -0.57951
 Alpha  occ. eigenvalues --   -0.56464  -0.55803  -0.55508  -0.55082  -0.54857
 Alpha  occ. eigenvalues --   -0.54730  -0.53416  -0.53279  -0.53017  -0.52718
 Alpha  occ. eigenvalues --   -0.52215  -0.51931  -0.51193  -0.51116  -0.50395
 Alpha  occ. eigenvalues --   -0.49827  -0.49754  -0.49480  -0.49226  -0.49017
 Alpha  occ. eigenvalues --   -0.48530  -0.48380  -0.48100  -0.47397  -0.47140
 Alpha  occ. eigenvalues --   -0.46863  -0.46695  -0.46265  -0.46020  -0.45840
 Alpha  occ. eigenvalues --   -0.45276  -0.44662  -0.44501  -0.44139  -0.44084
 Alpha  occ. eigenvalues --   -0.43749  -0.43390  -0.43218  -0.42970  -0.42532
 Alpha  occ. eigenvalues --   -0.42246  -0.42137  -0.41855  -0.41632  -0.41096
 Alpha  occ. eigenvalues --   -0.40995  -0.40739  -0.40190  -0.39550  -0.38964
 Alpha  occ. eigenvalues --   -0.38089  -0.38052  -0.37720  -0.37042  -0.36396
 Alpha  occ. eigenvalues --   -0.36148  -0.34503  -0.34330  -0.33506  -0.31505
 Alpha  occ. eigenvalues --   -0.31064  -0.30557  -0.30482  -0.30011  -0.24042
 Alpha  occ. eigenvalues --   -0.21467
 Alpha virt. eigenvalues --   -0.09005  -0.01643   0.00255   0.01988   0.02437
 Alpha virt. eigenvalues --    0.05316   0.06075   0.06761   0.07100   0.08289
 Alpha virt. eigenvalues --    0.08609   0.08964   0.09274   0.10141   0.10219

 Mulliken charges:
               1
     1  Mg   0.794560
     2  C   -0.011050
     3  C   -0.059054
     4  C   -0.069690
     5  C   -0.109933
     6  N   -0.319636
     7  C   -0.018774
     8  C   -0.019391
     9  C   -0.005266
    10  C   -0.037221
    11  C    0.052599
    12  C    0.041893
    13  C   -0.080100
    14  H    0.020362
    15  N   -0.381335
    16  C    0.185103
    17  C   -0.165191
    18  C   -0.028062
    19  C    0.114969
    20  C    0.128141
    21  C    0.000641
    22  O   -0.220205
    23  C    0.054964
    24  N   -0.239891
    25  C    0.019412
    26  C    0.005255
    27  C   -0.071545
    28  C    0.095438
    29  C    0.091957
    30  C    0.063712
    31  C   -0.039839
    32  N   -0.323441
    33  C    0.110896
    34  C   -0.122446
    35  C    0.064174
    36  C    0.069887
    37  C    0.106153
    38  C    0.007357
    39  O   -0.196990
    40  C   -0.023807
    41  C    0.198998
    42  O   -0.214455
    43  O   -0.318503
    44  C    0.160568
    45  H   -0.031183
    46  H   -0.015193
    47  H   -0.027184
    48  H    0.026219
    49  H    0.010047
    50  H    0.028182
    51  H    0.021082
    52  H    0.019616
    53  H    0.018101
    54  H    0.020879
    55  H    0.037315
    56  H    0.018062
    57  H    0.016061
    58  H    0.039075
    59  H    0.029129
    60  H    0.016954
    61  H    0.018120
    62  H    0.051514
    63  H   -0.005121
    64  H    0.000023
    65  H    0.029405
    66  H    0.021139
    67  H    0.031319
    68  H    0.012976
    69  H    0.006912
    70  H    0.003052
    71  H    0.017776
    72  H    0.017213
    73  H    0.049348
    74  H    0.031591
    75  H    0.012834
    76  H    0.028357
    77  H    0.029083
    78  H    0.050087
    79  H    0.055996
 Sum of Mulliken charges =  -0.00000

 Dipole moment (field-independent basis, Debye):
    X=             -1.4075    Y=             -3.0398    Z=              1.7631  Tot=              3.7855
 Quadrupole moment (field-independent basis, Debye-Ang):
   XX=           -285.5163   YY=           -223.5235   ZZ=           -256.5440
   XY=            -24.8526   XZ=             -4.5238   YZ=              1.7628

 Normal termination of Gaussian 16 at Fri Oct  8 12:49:41 2021.
