 Gaussian 16, Revision A.03,
 Gaussian 16:  ES64L-G16RevA.03 25-Dec-2016

 ----------------------------------------------------------
 #p cam-b3lyp/Def2SVP td=(nstates=5) density=(transition=1)
 ----------------------------------------------------------

 --------------------------------
 TDDFT excited states in gaussian
 --------------------------------
 Symbolic Z-matrix:
 Charge =  0 Multiplicity = 1

                         Standard orientation:
 ---------------------------------------------------------------------
 Center     Atomic      Atomic             Coordinates (Angstroms)
 Number     Number       Type             X           Y           Z
 ---------------------------------------------------------------------
      1         12           0      -27.621993    0.118388   -0.090455
      2          6           0      -24.419943   -1.083814    0.277585
      3          6           0      -28.752066   -1.789630    2.519107
      4          6           0      -30.827817    1.504245   -0.361563
      5          6           0      -26.456945    2.661544   -2.115604
      6          7           0      -26.565645   -1.109395    1.351060
      7          6           0      -25.278001   -1.641943    1.244034
      8          6           0      -24.968859   -2.595810    2.400685
      9          6           0      -26.411434   -2.865182    2.899115
     10          6           0      -27.335143   -1.793188    2.285344
     11          6           0      -26.861799   -4.327541    2.689911
     12          6           0      -24.050270   -1.952523    3.458389
     13          6           0      -22.909506   -2.852937    4.046312
     14          1           0      -22.519037   -2.580525    5.446402
     15          7           0      -29.484919   -0.156612    0.887594
     16          6           0      -29.769089   -1.044550    1.867714
     17          6           0      -31.174200   -1.176918    2.111744
     18          6           0      -31.821636   -0.331881    1.195474
     19          6           0      -30.687770    0.388822    0.481425
     20          6           0      -31.792497   -2.192560    3.074660
     21          6           0      -33.370729   -0.134083    1.018171
     22          8           0      -34.143437   -0.720725    1.818468
     23          6           0      -34.024444    0.698429   -0.167244
     24          7           0      -28.463345    2.022195   -0.861449
     25          6           0      -29.794583    2.252862   -0.967788
     26          6           0      -30.119490    3.411705   -1.875017
     27          6           0      -28.735306    3.834191   -2.412902
     28          6           0      -27.822999    2.766020   -1.804549
     29          6           0      -31.194271    3.103609   -2.969715
     30          6           0      -28.372427    5.362831   -2.096284
     31          6           0      -28.469476    6.306148   -3.300886
     32          7           0      -25.835329    0.674004   -0.843988
     33          6           0      -25.463524    1.730498   -1.704304
     34          6           0      -24.078845    1.527082   -2.150207
     35          6           0      -23.684381    0.396694   -1.448095
     36          6           0      -24.741582    0.023666   -0.601891
     37          6           0      -23.247319    2.323603   -3.090823
     38          6           0      -22.546766   -0.504363   -1.214815
     39          8           0      -21.478341   -0.663492   -1.827836
     40          6           0      -22.994767   -1.540324   -0.107307
     41          6           0      -22.968353   -2.967144   -0.638712
     42          8           0      -23.399914   -3.377117   -1.720869
     43          8           0      -22.297703   -3.653815    0.329377
     44          6           0      -21.954421   -5.033224    0.026840
     45          1           0      -29.125838   -2.397559    3.345537
     46          1           0      -31.788811    1.965827   -0.598204
     47          1           0      -26.025763    3.430969   -2.759171
     48          1           0      -24.461070   -3.481577    2.017579
     49          1           0      -26.338201   -2.697752    3.973643
     50          1           0      -26.111373   -5.107897    2.563579
     51          1           0      -27.409201   -4.330521    1.747459
     52          1           0      -27.502793   -4.680741    3.497331
     53          1           0      -24.603679   -1.497600    4.279453
     54          1           0      -23.659164   -1.054970    2.978685
     55          1           0      -22.023134   -2.753647    3.419805
     56          1           0      -23.256676   -3.887095    4.052936
     57          1           0      -32.479947   -2.784987    2.471309
     58          1           0      -32.145219   -1.681744    3.970709
     59          1           0      -30.967292   -2.856758    3.331365
     60          1           0      -34.025183    1.737442    0.160137
     61          1           0      -35.048517    0.337709   -0.260588
     62          1           0      -33.516315    0.380799   -1.078150
     63          1           0      -30.534775    4.210924   -1.260971
     64          1           0      -28.547403    3.645190   -3.469560
     65          1           0      -30.889771    3.477063   -3.947036
     66          1           0      -32.165968    3.539318   -2.737915
     67          1           0      -31.391856    2.032522   -2.981158
     68          1           0      -27.342974    5.485499   -1.759963
     69          1           0      -28.972219    5.723006   -1.260518
     70          1           0      -28.886405    7.262679   -2.985241
     71          1           0      -29.117233    5.867775   -4.059751
     72          1           0      -27.514085    6.502424   -3.787164
     73          1           0      -23.889618    3.090849   -3.523171
     74          1           0      -22.672040    1.657590   -3.734233
     75          1           0      -22.555478    2.891408   -2.467763
     76          1           0      -22.394627   -1.464618    0.799837
     77          1           0      -22.766063   -5.601081   -0.429767
     78          1           0      -21.576859   -5.642068    0.848315
     79          1           0      -21.119956   -5.057692   -0.674464
     80         12           0       26.830900    0.709076    0.562211
     81          6           0       27.835603   -2.529801   -0.593243
     82          6           0       24.247445    0.512291   -1.831658
     83          6           0       26.210643    3.895443    0.970273
     84          6           0       29.599236    0.814295    2.533938
     85          7           0       26.124595   -0.869388   -0.974996
     86          6           0       26.662212   -2.103545   -1.127051
     87          6           0       25.771724   -2.909232   -2.058575
     88          6           0       24.577134   -2.007783   -2.479889
     89          6           0       24.962813   -0.729071   -1.711560
     90          6           0       24.426724   -1.832041   -4.094984
     91          6           0       25.226727   -4.242261   -1.387874
     92          6           0       25.350686   -5.523526   -2.213064
     93          1           0       25.230051   -5.492509   -3.789557
     94          7           0       25.441978    2.047493   -0.359343
     95          6           0       24.509416    1.761414   -1.243001
     96          6           0       23.809630    2.980043   -1.537433
     97          6           0       24.223300    4.002318   -0.646114
     98          6           0       25.338268    3.356899   -0.003918
     99          6           0       22.581581    3.028202   -2.445033
    100          6           0       23.688830    5.379765   -0.286437
    101          8           0       24.259917    6.132433    0.481267
    102          6           0       22.362162    5.752141   -0.889121
    103          7           0       27.988535    2.215691    1.328290
    104          6           0       27.392328    3.455263    1.567235
    105          6           0       28.146870    4.299185    2.630233
    106          6           0       29.108941    3.187308    3.195479
    107          6           0       28.892687    1.969677    2.296961
    108          6           0       28.829231    5.512538    1.982069
    109          6           0       28.761569    2.741181    4.694006
    110          6           0       29.651418    3.204154    5.798465
    111          7           0       28.316592   -0.584364    1.001597
    112          6           0       29.409939   -0.380003    1.815336
    113          6           0       30.360935   -1.487815    1.775188
    114          6           0       29.773409   -2.392242    0.820199
    115          6           0       28.625213   -1.747901    0.302172
    116          6           0       31.504019   -1.642502    2.711869
    117          6           0       29.866744   -3.713541    0.218539
    118          8           0       30.729674   -4.581664    0.443348
    119          6           0       28.587544   -3.862119   -0.785938
    120          6           0       29.170462   -4.031788   -2.107514
    121          8           0       29.942266   -3.243954   -2.609095
    122          8           0       28.737404   -5.153775   -2.694518
    123          6           0       29.229255   -5.593981   -4.037670
    124          1           0       23.386838    0.476584   -2.502748
    125          1           0       25.846760    4.792566    1.476753
    126          1           0       30.426799    0.860024    3.244546
    127          1           0       26.362205   -3.135746   -2.946353
    128          1           0       23.617587   -2.450781   -2.212662
    129          1           0       24.905504   -2.657764   -4.621429
    130          1           0       24.892444   -0.870736   -4.313549
    131          1           0       23.371294   -1.776554   -4.361109
    132          1           0       24.204130   -4.188495   -1.016887
    133          1           0       25.808118   -4.453718   -0.490530
    134          1           0       24.645210   -6.285245   -1.880447
    135          1           0       26.326494   -5.905478   -1.913024
    136          1           0       21.631051    2.991960   -1.912534
    137          1           0       22.646105    2.293615   -3.248295
    138          1           0       22.638204    3.978733   -2.975009
    139          1           0       21.620197    4.953341   -0.909513
    140          1           0       22.412511    6.122766   -1.911986
    141          1           0       21.848758    6.436289   -0.213452
    142          1           0       27.408231    4.640874    3.354815
    143          1           0       30.125969    3.578143    3.161193
    144          1           0       28.536686    5.696890    0.948463
    145          1           0       29.911798    5.394913    1.949202
    146          1           0       28.613115    6.402966    2.573343
    147          1           0       28.726139    1.663590    4.854040
    148          1           0       27.746061    3.007010    4.985249
    149          1           0       29.100703    3.852345    6.478929
    150          1           0       30.430235    3.753592    5.269307
    151          1           0       30.031340    2.353787    6.364631
    152          1           0       31.680144   -2.690084    2.953736
    153          1           0       31.297857   -0.982847    3.554551
    154          1           0       32.383988   -1.259653    2.193168
    155          1           0       27.985523   -4.737692   -0.546703
    156          1           0       30.319174   -5.573446   -4.047581
    157          1           0       28.877048   -4.951187   -4.844808
    158          1           0       28.822999   -6.552061   -4.360746
 ---------------------------------------------------------------------

 SCF Done:  E(RCAM-B3LYP) =  -4069.82249356     A.U. after   19 cycles

 Excitation energies and oscillator strengths:

 Excited State   1:      Singlet-A      1.6835 eV  736.49 nm  f=0.4078  <S**2>=0.000
     310 -> 316       -0.17292
     312 -> 313        0.68695
     310 <- 316       -0.10714
 This state for optimization and/or second-order correction.
 Total Energy, E(TD-HF/TD-DFT) =  -4069.76062788
 Copying the excited state density for this state as the 1-particle RhoCI density.

 Excited State   2:      Singlet-A      1.7089 eV  725.54 nm  f=0.3600  <S**2>=0.000
     309 -> 315       -0.17444
     311 -> 314        0.68603
     309 <- 315       -0.10517

 Excited State   3:      Singlet-A      2.1994 eV  563.73 nm  f=0.1324  <S**2>=0.000
     310 -> 313        0.65029
     312 -> 316        0.26295

 Excited State   4:      Singlet-A      2.2476 eV  551.63 nm  f=0.0932  <S**2>=0.000
     309 -> 314        0.62548
     311 -> 315        0.31551

 Excited State   5:      Singlet-A      3.1904 eV  388.62 nm  f=0.0000  <S**2>=0.000
     312 -> 314        0.70710

 The electronic state is 1-A.
 Alpha  occ. eigenvalues --  -46.89199 -46.88614 -19.26389 -19.25257 -19.20292
 Alpha  occ. eigenvalues --  -19.19708 -19.19523 -19.19007 -19.18512 -19.18473
 Alpha  occ. eigenvalues --  -14.42432 -14.42198 -14.41873 -14.41707 -14.40253
 Alpha  occ. eigenvalues --  -14.39368 -14.39134 -14.39082 -10.39982 -10.38496
 Alpha  occ. eigenvalues --  -10.36700 -10.35781 -10.35455 -10.34778 -10.32534
 Alpha  occ. eigenvalues --  -10.32225 -10.32078 -10.31618 -10.31326 -10.31210
 Alpha  occ. eigenvalues --  -10.31119 -10.30738 -10.30513 -10.30504 -10.30425
 Alpha  occ. eigenvalues --  -10.30263 -10.29700 -10.29644 -10.29578 -10.29173
 Alpha  occ. eigenvalues --  -10.29020 -10.28841 -10.28742 -10.28559 -10.28518
 Alpha  occ. eigenvalues --  -10.28504 -10.28375 -10.28201 -10.28182 -10.28175
 Alpha  occ. eigenvalues --  -10.28044 -10.28041 -10.28013 -10.27998 -10.27940
 Alpha  occ. eigenvalues --  -10.27930 -10.27792 -10.27768 -10.27737 -10.27721
 Alpha  occ. eigenvalues --  -10.27636 -10.27610 -10.27494 -10.27319 -10.27081
 Alpha  occ. eigenvalues --  -10.27013 -10.27000 -10.26938 -10.26759 -10.26653
 Alpha  occ. eigenvalues --  -10.26597 -10.26566 -10.26420 -10.26304 -10.26220
 Alpha  occ. eigenvalues --  -10.26079 -10.26062 -10.26051 -10.25999 -10.25802
 Alpha  occ. eigenvalues --  -10.25786 -10.25572 -10.25563 -10.25458 -10.25017
 Alpha  occ. eigenvalues --  -10.24613  -3.17732  -3.17243  -1.92598  -1.92174
 Alpha  occ. eigenvalues --   -1.92108  -1.92062  -1.91703  -1.91553  -1.16864
 Alpha  occ. eigenvalues --   -1.16555  -1.10839  -1.08641  -1.08433  -1.08386
 Alpha  occ. eigenvalues --   -1.07779  -1.07363  -1.04700  -1.04644  -1.04029
 Alpha  occ. eigenvalues --   -1.03545  -1.03504  -1.03139  -1.02176  -1.01879
 Alpha  occ. eigenvalues --   -0.92158  -0.91445  -0.88900  -0.88862  -0.88721
 Alpha  occ. eigenvalues --   -0.88631  -0.88259  -0.88092  -0.87304  -0.87102
 Alpha  occ. eigenvalues --   -0.87016  -0.87012  -0.86417  -0.86401  -0.84339
 Alpha  occ. eigenvalues --   -0.84222  -0.84119  -0.83921  -0.82659  -0.82533
 Alpha  occ. eigenvalues --   -0.81828  -0.81663  -0.81281  -0.81146  -0.80692
 Alpha  occ. eigenvalues --   -0.80216  -0.78260  -0.77962  -0.77670  -0.77502
 Alpha  occ. eigenvalues --   -0.76861  -0.76770  -0.76273  -0.75914  -0.75318
 Alpha  occ. eigenvalues --   -0.74837  -0.72731  -0.72480  -0.71749  -0.71410
 Alpha  occ. eigenvalues --   -0.69221  -0.68994  -0.68746  -0.67911  -0.67796
 Alpha  occ. eigenvalues --   -0.67645  -0.67276  -0.66969  -0.66154  -0.65553
 Alpha  occ. eigenvalues --   -0.65156  -0.65103  -0.65019  -0.64619  -0.64581
 Alpha  occ. eigenvalues --   -0.64495  -0.62713  -0.62418  -0.60497  -0.59971
 Alpha  occ. eigenvalues --   -0.59620  -0.59225  -0.58947  -0.58812  -0.58631
 Alpha  occ. eigenvalues --   -0.58485  -0.58038  -0.57755  -0.57467  -0.57260
 Alpha  occ. eigenvalues --   -0.56078  -0.55990  -0.55784  -0.55753  -0.55371
 Alpha  occ. eigenvalues --   -0.55158  -0.55041  -0.54362  -0.53790  -0.53497
 Alpha  occ. eigenvalues --   -0.53396  -0.53312  -0.53164  -0.52985  -0.52910
 Alpha  occ. eigenvalues --   -0.52818  -0.52622  -0.52614  -0.52357  -0.52089
 Alpha  occ. eigenvalues --   -0.52037  -0.51612  -0.51381  -0.51281  -0.51205
 Alpha  occ. eigenvalues --   -0.51186  -0.51124  -0.50896  -0.50583  -0.50523
 Alpha  occ. eigenvalues --   -0.50067  -0.49968  -0.49967  -0.49487  -0.49354
 Alpha  occ. eigenvalues --   -0.49259  -0.49080  -0.49023  -0.48750  -0.48562
 Alpha  occ. eigenvalues --   -0.48535  -0.48393  -0.48291  -0.48171  -0.48138
 Alpha  occ. eigenvalues --   -0.47871  -0.47714  -0.47708  -0.47498  -0.47425
 Alpha  occ. eigenvalues --   -0.47204  -0.46887  -0.46739  -0.46603  -0.46598
 Alpha  occ. eigenvalues --   -0.46411  -0.46189  -0.46113  -0.46028  -0.45886
 Alpha  occ. eigenvalues --   -0.45593  -0.45301  -0.45277  -0.45096  -0.44797
 Alpha  occ. eigenvalues --   -0.44505  -0.44458  -0.44232  -0.44144  -0.43818
 Alpha  occ. eigenvalues --   -0.43816  -0.43796  -0.43588  -0.43506  -0.43304
 Alpha  occ. eigenvalues --   -0.43293  -0.43013  -0.42967  -0.42753  -0.42604
 Alpha  occ. eigenvalues --   -0.42495  -0.42477  -0.42467  -0.42145  -0.41982
 Alpha  occ. eigenvalues --   -0.41838  -0.41606  -0.41510  -0.41409  -0.41284
 Alpha  occ. eigenvalues --   -0.41174  -0.41005  -0.40821  -0.40628  -0.40546
 Alpha  occ. eigenvalues --   -0.40287  -0.39739  -0.39716  -0.39385  -0.39319
 Alpha  occ. eigenvalues --   -0.38707  -0.38410  -0.38389  -0.38180  -0.37916
 Alpha  occ. eigenvalues --   -0.37408  -0.36968  -0.36879  -0.36547  -0.36440
 Alpha  occ. eigenvalues --   -0.36217  -0.36143  -0.34895  -0.34820  -0.34449
 Alpha  occ. eigenvalues --   -0.33757  -0.33057  -0.33005  -0.31689  -0.31606
 Alpha  occ. eigenvalues --   -0.31233  -0.31223  -0.30735  -0.30518  -0.30478
 Alpha  occ. eigenvalues --   -0.30081  -0.29861  -0.29388  -0.24224  -0.23827
 Alpha  occ. eigenvalues --   -0.21107  -0.20956
 Alpha virt. eigenvalues --   -0.08713  -0.08606  -0.02047  -0.01112   0.00121
 Alpha virt. eigenvalues --    0.00147   0.01614   0.01784   0.01954   0.02082
 Alpha virt. eigenvalues --    0.04773   0.04961   0.05023   0.05527   0.06041

 Mulliken charges:
               1
     1  Mg  11.999986
     2  C    6.000508
     3  C    5.999717
     4  C    5.999545
     5  C    6.000122
     6  N    7.000238
     7  C    5.999406
     8  C    6.000121
     9  C    5.999875
    10  C    6.000467
    11  C    5.999938
    12  C    5.999995
    13  C    6.000026
    14  H    0.999935
    15  N    6.999866
    16  C    6.000587
    17  C    6.000238
    18  C    6.000193
    19  C    6.000639
    20  C    5.999933
    21  C    6.000175
    22  O    8.000308
    23  C    5.999999
    24  N    6.999902
    25  C    6.000565
    26  C    5.999811
    27  C    6.000121
    28  C    5.999551
    29  C    5.999997
    30  C    6.000041
    31  C    6.000018
    32  N    6.999987
    33  C    5.999411
    34  C    5.999680
    35  C    5.999896
    36  C    5.999600
    37  C    6.000097
    38  C    5.999728
    39  O    7.999520
    40  C    5.999972
    41  C    5.999921
    42  O    7.999972
    43  O    7.999974
    44  C    6.000028
    45  H    1.000185
    46  H    1.000113
    47  H    0.999763
    48  H    1.000025
    49  H    1.000094
    50  H    1.000197
    51  H    1.000019
    52  H    1.000021
    53  H    0.999879
    54  H    1.000088
    55  H    1.000037
    56  H    0.999961
    57  H    1.000242
    58  H    1.000275
    59  H    1.000246
    60  H    1.000145
    61  H    1.000189
    62  H    1.000111
    63  H    1.000045
    64  H    1.000043
    65  H    1.000147
    66  H    0.999996
    67  H    0.999969
    68  H    1.000027
    69  H    0.999843
    70  H    0.999924
    71  H    0.999931
    72  H    1.000004
    73  H    0.999755
    74  H    0.999732
    75  H    0.999663
    76  H    0.999871
    77  H    0.999955
    78  H    0.999934
    79  H    0.999963
    80  Mg  11.997538
    81  C    6.024461
    82  C    5.984104
    83  C    5.968055
    84  C    6.011384
    85  N    7.008193
    86  C    5.972389
    87  C    6.010860
    88  C    5.984744
    89  C    6.034052
    90  C    5.999278
    91  C    6.001255
    92  C    6.000827
    93  H    0.992365
    94  N    6.991471
    95  C    6.041513
    96  C    6.025482
    97  C    6.012554
    98  C    6.040685
    99  C    5.995564
   100  C    6.014073
   101  O    8.027122
   102  C    5.991662
   103  N    6.990649
   104  C    6.047694
   105  C    5.988423
   106  C    6.009164
   107  C    5.971796
   108  C    5.996112
   109  C    6.008696
   110  C    6.000484
   111  N    7.000196
   112  C    5.964298
   113  C    5.961465
   114  C    5.999763
   115  C    5.962123
   116  C    6.004962
   117  C    5.985624
   118  O    7.971376
   119  C    5.992527
   120  C    5.994786
   121  O    7.997845
   122  O    7.997946
   123  C    6.002594
   124  H    1.010422
   125  H    1.005334
   126  H    0.987765
   127  H    0.999907
   128  H    1.006143
   129  H    1.013908
   130  H    0.998180
   131  H    1.000389
   132  H    0.990891
   133  H    1.008202
   134  H    0.997595
   135  H    1.006336
   136  H    1.022913
   137  H    1.018929
   138  H    1.018092
   139  H    1.004991
   140  H    1.009939
   141  H    1.015087
   142  H    1.000299
   143  H    0.996743
   144  H    0.995394
   145  H    1.012849
   146  H    1.003251
   147  H    1.005745
   148  H    0.985920
   149  H    0.992671
   150  H    0.997315
   151  H    1.002151
   152  H    0.980684
   153  H    0.980477
   154  H    0.975144
   155  H    0.990659
   156  H    0.999410
   157  H    0.993159
   158  H    0.994953
 Sum of Mulliken charges = 624.00000

 Dipole moment (field-independent basis, Debye):
    X=             -8.3572    Y=              6.8218    Z=             -3.3744  Tot=             11.3034
 Quadrupole moment (field-independent basis, Debye-Ang):
   XX=           -436.5839   YY=             10.1468   ZZ=             -3.1250
   XY=            180.7306   XZ=            -95.7219   YZ=             -3.0630

 Normal termination of Gaussian 16 at Thu Sep 23 11:42:47 2021.
