 Gaussian 16, Revision A.03,
 Gaussian 16:  ES64L-G16RevA.03 25-Dec-2016

 -----------------------------------
 #p cam-b3lyp/Def2SVP td=(nstates=5)
 -----------------------------------

 --------------------------------
 TDDFT excited states in gaussian
 --------------------------------
 Symbolic Z-matrix:
 Charge =  0 Multiplicity = 1

                         Standard orientation:
 ---------------------------------------------------------------------
 Center     Atomic      Atomic             Coordinates (Angstroms)
 Number     Number       Type             X           Y           Z
 ---------------------------------------------------------------------
      1         12           0      -22.737374   -0.700469   -0.195378
      2          6           0      -24.340635    1.792817    1.490661
      3          6           0      -20.341877    1.674727   -1.260250
      4          6           0      -21.263721   -3.066012   -2.051661
      5          6           0      -25.084619   -2.929254    0.954290
      6          7           0      -22.543789    1.513591   -0.188865
      7          6           0      -23.287888    2.311327    0.689767
      8          6           0      -22.818875    3.793726    0.668021
      9          6           0      -21.598973    3.647527   -0.279956
     10          6           0      -21.503391    2.184034   -0.671597
     11          6           0      -21.424888    4.571490   -1.559801
     12          6           0      -22.432885    4.444154    2.068915
     13          6           0      -21.946805    5.910172    1.913991
     14          1           0      -22.953837    6.938248    2.431477
     15          7           0      -20.966798   -0.694718   -1.468252
     16          6           0      -20.036529    0.318739   -1.553310
     17          6           0      -19.026289   -0.150687   -2.494297
     18          6           0      -19.312442   -1.535005   -2.723479
     19          6           0      -20.539717   -1.846995   -2.061119
     20          6           0      -17.931881    0.739171   -2.942674
     21          6           0      -18.466582   -2.435505   -3.690022
     22          8           0      -18.821168   -3.572092   -4.063343
     23          6           0      -17.185496   -1.907436   -4.281164
     24          7           0      -23.112619   -2.593300   -0.511572
     25          6           0      -22.352697   -3.441573   -1.365230
     26          6           0      -23.074471   -4.746822   -1.612732
     27          6           0      -23.929673   -4.816759   -0.349036
     28          6           0      -24.032691   -3.372900    0.121468
     29          6           0      -23.926652   -4.735200   -2.926088
     30          6           0      -23.265293   -5.638347    0.778296
     31          6           0      -23.460431   -7.130762    0.788450
     32          7           0      -24.446061   -0.683608    0.958150
     33          6           0      -25.214511   -1.656552    1.473865
     34          6           0      -26.240499   -1.071741    2.285769
     35          6           0      -25.945071    0.273348    2.351207
     36          6           0      -24.805575    0.463949    1.554234
     37          6           0      -27.290824   -1.884626    2.958803
     38          6           0      -26.364455    1.483139    2.918717
     39          8           0      -27.269446    1.745825    3.687071
     40          6           0      -25.311968    2.558604    2.373568
     41          6           0      -26.072829    3.625240    1.668867
     42          8           0      -26.689400    3.520902    0.636523
     43          8           0      -25.882742    4.816063    2.244789
     44          6           0      -26.564157    5.996846    1.587002
     45          1           0      -19.563930    2.424811   -1.416259
     46          1           0      -20.790273   -3.849419   -2.646851
     47          1           0      -25.788747   -3.592701    1.460046
     48          1           0      -23.592826    4.392794    0.188103
     49          1           0      -20.680485    3.814054    0.283646
     50          1           0      -20.405966    4.875193   -1.801401
     51          1           0      -22.159717    5.376409   -1.536382
     52          1           0      -21.679238    3.916312   -2.392851
     53          1           0      -21.696430    3.750302    2.472400
     54          1           0      -23.311156    4.409178    2.713391
     55          1           0      -21.619021    6.086765    0.889551
     56          1           0      -21.071290    6.013067    2.554400
     57          1           0      -18.089605    0.956430   -3.999267
     58          1           0      -17.007450    0.243378   -2.646463
     59          1           0      -17.932283    1.669593   -2.374674
     60          1           0      -16.703575   -2.684210   -4.874868
     61          1           0      -16.536154   -1.772894   -3.415001
     62          1           0      -17.246661   -0.978186   -4.846999
     63          1           0      -22.372015   -5.577144   -1.690112
     64          1           0      -24.932378   -5.205489   -0.525540
     65          1           0      -24.829491   -4.138297   -2.802889
     66          1           0      -24.179421   -5.753699   -3.222015
     67          1           0      -23.275591   -4.305411   -3.686540
     68          1           0      -23.517176   -5.274072    1.773459
     69          1           0      -22.192284   -5.446174    0.782549
     70          1           0      -22.467401   -7.573846    0.718769
     71          1           0      -23.922190   -7.322930   -0.180153
     72          1           0      -24.072794   -7.502906    1.609964
     73          1           0      -27.010812   -2.084392    3.992377
     74          1           0      -27.660532   -2.776856    2.452554
     75          1           0      -28.159506   -1.228562    3.016869
     76          1           0      -24.783198    2.981575    3.228043
     77          1           0      -26.304235    5.963916    0.528729
     78          1           0      -26.214511    6.958989    1.962255
     79          1           0      -27.638460    5.883540    1.734035
     80         12           0       23.052737   -0.598531    0.530729
     81          6           0       22.866139    2.265459   -1.488629
     82          6           0       24.186570    1.200998    3.099314
     83          6           0       23.233268   -3.359231    2.209885
     84          6           0       22.828639   -2.474065   -2.554854
     85          7           0       23.561667    1.488959    0.690926
     86          6           0       23.270502    2.499324   -0.138046
     87          6           0       23.738003    3.825613    0.403466
     88          6           0       24.533637    3.400111    1.702188
     89          6           0       24.069003    1.965622    1.863281
     90          6           0       26.090747    3.537801    1.700632
     91          6           0       22.477192    4.746308    0.811024
     92          6           0       22.575965    6.210785    0.271301
     93          1           0       21.167242    7.002216    0.431064
     94          7           0       23.377431   -0.974396    2.410220
     95          6           0       23.808868   -0.087199    3.381561
     96          6           0       23.695891   -0.725833    4.663920
     97          6           0       23.370783   -2.132590    4.485128
     98          6           0       23.191146   -2.219047    2.985259
     99          6           0       24.089433    0.073849    5.939056
    100          6           0       23.170586   -3.333516    5.402522
    101          8           0       22.798580   -4.470453    5.060111
    102          6           0       23.357449   -2.992131    6.838440
    103          7           0       23.183129   -2.578435   -0.172946
    104          6           0       23.260453   -3.525985    0.817715
    105          6           0       23.411727   -4.926997    0.224035
    106          6           0       22.969257   -4.685186   -1.242985
    107          6           0       23.050183   -3.163226   -1.376381
    108          6           0       24.868479   -5.475239    0.496895
    109          6           0       21.538908   -5.246773   -1.642098
    110          6           0       21.302956   -5.543572   -3.131675
    111          7           0       22.843518   -0.233436   -1.603089
    112          6           0       22.769507   -1.084753   -2.663647
    113          6           0       22.495304   -0.369759   -3.889980
    114          6           0       22.458962    0.958411   -3.427307
    115          6           0       22.736947    1.002536   -2.053631
    116          6           0       22.284715   -0.848622   -5.344811
    117          6           0       22.233689    2.307543   -3.865562
    118          8           0       21.814470    2.786653   -4.886492
    119          6           0       22.666597    3.231455   -2.612316
    120          6           0       21.579504    4.213951   -2.610364
    121          8           0       20.428894    4.120659   -2.112928
    122          8           0       22.066272    5.270260   -3.284251
    123          6           0       21.189697    6.423861   -3.491313
    124          1           0       24.470489    1.794862    3.970786
    125          1           0       23.218236   -4.290030    2.781058
    126          1           0       22.671417   -3.093887   -3.440041
    127          1           0       24.334317    4.424375   -0.285566
    128          1           0       24.226011    3.880592    2.631146
    129          1           0       26.511555    2.532365    1.691191
    130          1           0       26.330523    4.034268    2.640751
    131          1           0       26.568256    4.064038    0.874839
    132          1           0       22.239828    4.784760    1.874827
    133          1           0       21.592175    4.221942    0.450453
    134          1           0       22.849138    6.211911   -0.783711
    135          1           0       23.270247    6.857291    0.807515
    136          1           0       23.196129    0.576760    6.306878
    137          1           0       24.691475    0.959492    5.732192
    138          1           0       24.720373   -0.433946    6.668175
    139          1           0       22.664765   -2.243517    7.221346
    140          1           0       24.402496   -2.680753    6.861059
    141          1           0       23.298418   -3.853094    7.504892
    142          1           0       22.703543   -5.547280    0.773580
    143          1           0       23.662999   -5.191438   -1.914139
    144          1           0       25.450847   -5.472260   -0.424398
    145          1           0       24.982986   -6.489144    0.879405
    146          1           0       25.507566   -4.870140    1.140292
    147          1           0       20.885535   -4.398332   -1.436943
    148          1           0       21.173882   -6.124474   -1.108281
    149          1           0       20.555397   -4.880659   -3.569269
    150          1           0       20.994694   -6.545231   -3.431964
    151          1           0       22.227006   -5.254621   -3.630446
    152          1           0       22.802679   -1.804932   -5.417541
    153          1           0       22.689945   -0.129301   -6.057706
    154          1           0       21.211811   -0.999412   -5.463678
    155          1           0       23.594478    3.753448   -2.846781
    156          1           0       21.561376    7.251847   -2.887916
    157          1           0       20.138582    6.174127   -3.350747
    158          1           0       21.318356    6.767234   -4.517709
 ---------------------------------------------------------------------

 SCF Done:  E(RCAM-B3LYP) =  -4069.82646654     A.U. after   17 cycles

 Excitation energies and oscillator strengths:

 Excited State   1:      Singlet-A      1.6534 eV  749.88 nm  f=0.3894  <S**2>=0.000
     309 -> 316       -0.16013
     312 -> 313        0.69079
     309 <- 316       -0.10388
 This state for optimization and/or second-order correction.
 Total Energy, E(TD-HF/TD-DFT) =  -4069.76570535
 Copying the excited state density for this state as the 1-particle RhoCI density.

 Excited State   2:      Singlet-A      1.7272 eV  717.85 nm  f=0.3814  <S**2>=0.000
     310 -> 315       -0.19745
     311 -> 314        0.68096
     310 <- 315       -0.11062

 Excited State   3:      Singlet-A      2.2496 eV  551.13 nm  f=0.0558  <S**2>=0.000
     310 -> 314        0.61646
     311 -> 315        0.33537

 Excited State   4:      Singlet-A      2.2510 eV  550.79 nm  f=0.1147  <S**2>=0.000
     309 -> 313        0.63779
     312 -> 316        0.28809

 Excited State   5:      Singlet-A      3.0824 eV  402.23 nm  f=0.0000  <S**2>=0.000
     311 -> 313        0.70710

 The electronic state is 1-A.
 Alpha  occ. eigenvalues --  -46.87592 -46.87498 -19.24913 -19.24888 -19.19689
 Alpha  occ. eigenvalues --  -19.19372 -19.19057 -19.18736 -19.18546 -19.18449
 Alpha  occ. eigenvalues --  -14.42716 -14.42617 -14.41749 -14.41737 -14.39477
 Alpha  occ. eigenvalues --  -14.38862 -14.38846 -14.38425 -10.38590 -10.38525
 Alpha  occ. eigenvalues --  -10.36014 -10.35207 -10.34937 -10.34680 -10.32289
 Alpha  occ. eigenvalues --  -10.32050 -10.31732 -10.31353 -10.31212 -10.31026
 Alpha  occ. eigenvalues --  -10.30807 -10.30624 -10.30560 -10.30293 -10.30134
 Alpha  occ. eigenvalues --  -10.30060 -10.30006 -10.29557 -10.29489 -10.29467
 Alpha  occ. eigenvalues --  -10.29263 -10.29249 -10.28988 -10.28976 -10.28742
 Alpha  occ. eigenvalues --  -10.28597 -10.28561 -10.28476 -10.28388 -10.28092
 Alpha  occ. eigenvalues --  -10.28054 -10.27884 -10.27856 -10.27783 -10.27762
 Alpha  occ. eigenvalues --  -10.27754 -10.27753 -10.27731 -10.27698 -10.27629
 Alpha  occ. eigenvalues --  -10.27451 -10.27364 -10.27364 -10.27321 -10.27114
 Alpha  occ. eigenvalues --  -10.26826 -10.26757 -10.26668 -10.26666 -10.26527
 Alpha  occ. eigenvalues --  -10.26522 -10.26451 -10.26347 -10.26277 -10.26163
 Alpha  occ. eigenvalues --  -10.26082 -10.25891 -10.25841 -10.25825 -10.25733
 Alpha  occ. eigenvalues --  -10.25573 -10.25522 -10.25382 -10.25097 -10.25013
 Alpha  occ. eigenvalues --  -10.24459  -3.16435  -3.16278  -1.91320  -1.91180
 Alpha  occ. eigenvalues --   -1.90902  -1.90749  -1.90749  -1.90577  -1.16909
 Alpha  occ. eigenvalues --   -1.15956  -1.10793  -1.10436  -1.09411  -1.08273
 Alpha  occ. eigenvalues --   -1.07139  -1.05570  -1.05436  -1.05211  -1.04323
 Alpha  occ. eigenvalues --   -1.03918  -1.03611  -1.03096  -1.02431  -1.01957
 Alpha  occ. eigenvalues --   -0.93330  -0.92734  -0.89130  -0.89079  -0.88776
 Alpha  occ. eigenvalues --   -0.88658  -0.88281  -0.88066  -0.87902  -0.87467
 Alpha  occ. eigenvalues --   -0.87168  -0.86991  -0.86564  -0.86283  -0.84554
 Alpha  occ. eigenvalues --   -0.84324  -0.83966  -0.83846  -0.82525  -0.82498
 Alpha  occ. eigenvalues --   -0.82290  -0.81576  -0.81288  -0.81210  -0.80631
 Alpha  occ. eigenvalues --   -0.80322  -0.78383  -0.78239  -0.77553  -0.77339
 Alpha  occ. eigenvalues --   -0.77213  -0.76938  -0.76208  -0.75941  -0.75422
 Alpha  occ. eigenvalues --   -0.75199  -0.73216  -0.72807  -0.72152  -0.71806
 Alpha  occ. eigenvalues --   -0.69442  -0.69267  -0.68954  -0.68817  -0.68314
 Alpha  occ. eigenvalues --   -0.67936  -0.67237  -0.66077  -0.66073  -0.65796
 Alpha  occ. eigenvalues --   -0.65565  -0.64951  -0.64882  -0.64620  -0.64465
 Alpha  occ. eigenvalues --   -0.64182  -0.62081  -0.61790  -0.60256  -0.60248
 Alpha  occ. eigenvalues --   -0.59989  -0.59861  -0.59169  -0.59113  -0.58877
 Alpha  occ. eigenvalues --   -0.58659  -0.58323  -0.58015  -0.57996  -0.57176
 Alpha  occ. eigenvalues --   -0.56547  -0.56344  -0.56080  -0.55948  -0.55462
 Alpha  occ. eigenvalues --   -0.55019  -0.54753  -0.54386  -0.54244  -0.53940
 Alpha  occ. eigenvalues --   -0.53462  -0.53454  -0.53348  -0.53235  -0.52931
 Alpha  occ. eigenvalues --   -0.52796  -0.52712  -0.52576  -0.52284  -0.52243
 Alpha  occ. eigenvalues --   -0.51760  -0.51666  -0.51621  -0.51452  -0.51324
 Alpha  occ. eigenvalues --   -0.51047  -0.50750  -0.50409  -0.50368  -0.50248
 Alpha  occ. eigenvalues --   -0.50186  -0.50043  -0.49979  -0.49900  -0.49729
 Alpha  occ. eigenvalues --   -0.49445  -0.49271  -0.49072  -0.48947  -0.48940
 Alpha  occ. eigenvalues --   -0.48757  -0.48506  -0.48257  -0.48134  -0.48079
 Alpha  occ. eigenvalues --   -0.48042  -0.47738  -0.47496  -0.47439  -0.47282
 Alpha  occ. eigenvalues --   -0.47118  -0.46923  -0.46894  -0.46523  -0.46516
 Alpha  occ. eigenvalues --   -0.46453  -0.46366  -0.46029  -0.45929  -0.45851
 Alpha  occ. eigenvalues --   -0.45736  -0.45544  -0.45495  -0.45270  -0.45170
 Alpha  occ. eigenvalues --   -0.44906  -0.44692  -0.44223  -0.44054  -0.43752
 Alpha  occ. eigenvalues --   -0.43749  -0.43710  -0.43581  -0.43552  -0.43498
 Alpha  occ. eigenvalues --   -0.43333  -0.43117  -0.42896  -0.42881  -0.42843
 Alpha  occ. eigenvalues --   -0.42679  -0.42231  -0.42098  -0.42000  -0.41930
 Alpha  occ. eigenvalues --   -0.41804  -0.41623  -0.41550  -0.41365  -0.41221
 Alpha  occ. eigenvalues --   -0.41119  -0.40874  -0.40837  -0.40636  -0.40603
 Alpha  occ. eigenvalues --   -0.40409  -0.40340  -0.40040  -0.39818  -0.39617
 Alpha  occ. eigenvalues --   -0.38800  -0.38435  -0.38058  -0.37864  -0.37474
 Alpha  occ. eigenvalues --   -0.37402  -0.37019  -0.36931  -0.36661  -0.36564
 Alpha  occ. eigenvalues --   -0.35523  -0.35242  -0.34213  -0.34006  -0.34004
 Alpha  occ. eigenvalues --   -0.33956  -0.33274  -0.32993  -0.31747  -0.31457
 Alpha  occ. eigenvalues --   -0.31338  -0.31242  -0.30645  -0.30565  -0.30471
 Alpha  occ. eigenvalues --   -0.30353  -0.29628  -0.29092  -0.24603  -0.24206
 Alpha  occ. eigenvalues --   -0.21137  -0.21111
 Alpha virt. eigenvalues --   -0.09066  -0.08460  -0.02320  -0.01541  -0.00313
 Alpha virt. eigenvalues --    0.00412   0.02363   0.02383   0.03123   0.03418
 Alpha virt. eigenvalues --    0.04662   0.04766   0.05120   0.05368   0.06086

 Mulliken charges:
               1
     1  Mg   0.828509
     2  C    0.007450
     3  C   -0.059493
     4  C   -0.069219
     5  C   -0.093597
     6  N   -0.267909
     7  C   -0.051218
     8  C    0.020223
     9  C   -0.103964
    10  C    0.038329
    11  C    0.063711
    12  C    0.034965
    13  C   -0.056563
    14  H    0.031788
    15  N   -0.358571
    16  C    0.139201
    17  C   -0.203004
    18  C   -0.035946
    19  C    0.110416
    20  C    0.139558
    21  C    0.019224
    22  O   -0.225608
    23  C    0.056027
    24  N   -0.391517
    25  C    0.083608
    26  C   -0.019347
    27  C   -0.020648
    28  C    0.118465
    29  C    0.088231
    30  C   -0.004929
    31  C    0.053335
    32  N   -0.339571
    33  C    0.089620
    34  C   -0.168150
    35  C    0.069283
    36  C    0.103932
    37  C    0.108002
    38  C    0.017634
    39  O   -0.153809
    40  C   -0.052411
    41  C    0.180657
    42  O   -0.217060
    43  O   -0.331560
    44  C    0.179195
    45  H   -0.027481
    46  H   -0.006584
    47  H   -0.026970
    48  H    0.017577
    49  H    0.009471
    50  H    0.020313
    51  H    0.021739
    52  H    0.015398
    53  H    0.010974
    54  H    0.033001
    55  H    0.030025
    56  H    0.029334
    57  H    0.042936
    58  H    0.027739
    59  H    0.001111
    60  H    0.024442
    61  H    0.024877
    62  H    0.039996
    63  H    0.000244
    64  H   -0.003836
    65  H    0.020440
    66  H    0.019230
    67  H    0.019167
    68  H   -0.002531
    69  H   -0.003866
    70  H    0.012716
    71  H   -0.002489
    72  H    0.028738
    73  H    0.038321
    74  H    0.023652
    75  H    0.027398
    76  H    0.043182
    77  H    0.041487
    78  H    0.041633
    79  H    0.051348
    80  Mg   0.852818
    81  C    0.059568
    82  C   -0.070813
    83  C   -0.057464
    84  C   -0.106724
    85  N   -0.271018
    86  C    0.000290
    87  C   -0.067191
    88  C   -0.030303
    89  C    0.007062
    90  C    0.073760
    91  C    0.057198
    92  C   -0.089397
    93  H    0.003738
    94  N   -0.473334
    95  C    0.176003
    96  C   -0.108110
    97  C   -0.095516
    98  C    0.154253
    99  C    0.089100
   100  C    0.047438
   101  O   -0.209002
   102  C    0.040319
   103  N   -0.291856
   104  C    0.056781
   105  C   -0.031483
   106  C   -0.009910
   107  C    0.037021
   108  C    0.062898
   109  C    0.033916
   110  C   -0.009107
   111  N   -0.270818
   112  C    0.124382
   113  C   -0.199724
   114  C    0.032759
   115  C    0.059090
   116  C    0.139565
   117  C    0.025845
   118  O   -0.148477
   119  C   -0.069265
   120  C    0.203355
   121  O   -0.256641
   122  O   -0.319711
   123  C    0.175309
   124  H   -0.039465
   125  H    0.000580
   126  H   -0.042871
   127  H    0.011948
   128  H    0.003428
   129  H    0.020791
   130  H    0.015874
   131  H    0.020569
   132  H    0.007583
   133  H    0.035318
   134  H    0.036313
   135  H    0.033633
   136  H    0.029945
   137  H    0.006234
   138  H    0.032736
   139  H    0.052565
   140  H    0.030751
   141  H    0.020741
   142  H    0.015896
   143  H    0.001422
   144  H   -0.000310
   145  H    0.021570
   146  H    0.019824
   147  H    0.012288
   148  H    0.017932
   149  H    0.013122
   150  H    0.020660
   151  H    0.010267
   152  H    0.013446
   153  H    0.043218
   154  H    0.041335
   155  H    0.043570
   156  H    0.032020
   157  H    0.059337
   158  H    0.031129
 Sum of Mulliken charges =  -0.00000

 Dipole moment (field-independent basis, Debye):
    X=              7.2447    Y=              2.2310    Z=              3.4564  Tot=              8.3313
 Quadrupole moment (field-independent basis, Debye-Ang):
   XX=           -505.3610   YY=           -474.4622   ZZ=           -520.8482
   XY=              5.3806   XZ=             68.6036   YZ=             10.5874

 Normal termination of Gaussian 16 at Thu Sep  2 10:02:53 2021.
