 Gaussian 16, Revision A.03,
 Gaussian 16:  ES64L-G16RevA.03 25-Dec-2016

 -----------------------------------
 #p cam-b3lyp/Def2SVP td=(nstates=5)
 -----------------------------------

 --------------------------------
 TDDFT excited states in gaussian
 --------------------------------
 Symbolic Z-matrix:
 Charge =  0 Multiplicity = 1

                         Standard orientation:
 ---------------------------------------------------------------------
 Center     Atomic      Atomic             Coordinates (Angstroms)
 Number     Number       Type             X           Y           Z
 ---------------------------------------------------------------------
      1         12           0       24.949309   -0.779816    0.393308
      2          6           0       24.693419    2.166574   -1.319947
      3          6           0       25.181289    0.836706    3.297675
      4          6           0       25.405574   -3.677879    1.813023
      5          6           0       25.296945   -2.345010   -2.789752
      6          7           0       25.112146    1.316239    0.931930
      7          6           0       24.712811    2.303894    0.092237
      8          6           0       24.342748    3.557599    0.836518
      9          6           0       24.790831    3.174618    2.303944
     10          6           0       25.133660    1.705661    2.182244
     11          6           0       25.919211    4.059094    2.886543
     12          6           0       22.777363    4.032342    0.632615
     13          6           0       22.493390    5.508013    0.313239
     14          1           0       23.570052    6.547087    0.758238
     15          7           0       25.069860   -1.334620    2.228737
     16          6           0       25.161916   -0.563580    3.343511
     17          6           0       25.399298   -1.325966    4.545030
     18          6           0       25.262212   -2.626375    4.163341
     19          6           0       25.361373   -2.582456    2.671337
     20          6           0       25.738321   -0.548773    5.803841
     21          6           0       25.251449   -3.894870    5.039369
     22          8           0       25.185293   -5.019973    4.601775
     23          6           0       25.368841   -3.618913    6.509282
     24          7           0       25.473812   -2.706276   -0.424686
     25          6           0       25.470659   -3.746878    0.427781
     26          6           0       25.605663   -5.072876   -0.327368
     27          6           0       25.251031   -4.673613   -1.799983
     28          6           0       25.369518   -3.139357   -1.693824
     29          6           0       26.971578   -5.874121   -0.208995
     30          6           0       23.806719   -5.054607   -2.299916
     31          6           0       22.553476   -4.568796   -1.620495
     32          7           0       24.913848   -0.304736   -1.681380
     33          6           0       25.154901   -1.002125   -2.869525
     34          6           0       25.069310   -0.120763   -4.040956
     35          6           0       24.877131    1.148538   -3.475111
     36          6           0       24.792260    0.944447   -2.061836
     37          6           0       25.112673   -0.496729   -5.499823
     38          6           0       24.728747    2.506651   -3.737304
     39          8           0       24.760566    3.166975   -4.763977
     40          6           0       24.369136    3.194455   -2.394857
     41          6           0       25.259630    4.377719   -2.393857
     42          8           0       26.456381    4.372123   -2.095561
     43          8           0       24.616722    5.479021   -2.880179
     44          6           0       25.395383    6.668080   -3.240641
     45          1           0       25.058675    1.382435    4.235785
     46          1           0       25.504398   -4.686480    2.217911
     47          1           0       25.375701   -2.959731   -3.689684
     48          1           0       24.998905    4.380528    0.552858
     49          1           0       23.920189    3.213710    2.958225
     50          1           0       26.856854    3.504798    2.847397
     51          1           0       25.689420    4.267232    3.931531
     52          1           0       25.964306    4.952519    2.263645
     53          1           0       22.286524    3.768156    1.569381
     54          1           0       22.321116    3.494698   -0.197975
     55          1           0       21.612702    5.847827    0.857582
     56          1           0       22.236148    5.614121   -0.740575
     57          1           0       26.648245    0.049010    5.748702
     58          1           0       26.044197   -1.070898    6.710245
     59          1           0       24.809435   -0.000640    5.961508
     60          1           0       24.579130   -2.943932    6.838369
     61          1           0       26.396956   -3.265813    6.586562
     62          1           0       25.228953   -4.440289    7.211136
     63          1           0       24.849856   -5.683367    0.168038
     64          1           0       26.051283   -5.016480   -2.456208
     65          1           0       27.654015   -5.331994    0.445146
     66          1           0       27.499120   -5.880262   -1.162072
     67          1           0       26.899108   -6.915350    0.108836
     68          1           0       23.885411   -6.141271   -2.258394
     69          1           0       23.638718   -4.759950   -3.335309
     70          1           0       22.814680   -4.079140   -0.681443
     71          1           0       21.907769   -5.408639   -1.364380
     72          1           0       21.975022   -3.812654   -2.150912
     73          1           0       26.045484   -0.200777   -5.977748
     74          1           0       24.270370   -0.042782   -6.022172
     75          1           0       25.112295   -1.586608   -5.469949
     76          1           0       23.304319    3.417204   -2.324243
     77          1           0       24.895220    7.274247   -3.996879
     78          1           0       26.437391    6.426899   -3.445128
     79          1           0       25.549021    7.339032   -2.395665
     80         12           0      -25.461791   -0.454437   -0.298808
     81          6           0      -23.156364    2.176667   -0.215488
     82          6           0      -27.474214    1.249340    1.875567
     83          6           0      -27.418865   -3.117629   -0.162936
     84          6           0      -23.173689   -2.203469   -2.415858
     85          7           0      -25.277044    1.491981    0.744795
     86          6           0      -24.305300    2.457643    0.603718
     87          6           0      -24.751614    3.758714    1.244789
     88          6           0      -25.986793    3.315462    2.124413
     89          6           0      -26.303314    1.938485    1.447287
     90          6           0      -25.661557    3.171388    3.605691
     91          6           0      -24.936185    4.864802    0.142800
     92          6           0      -25.594951    6.166350    0.678264
     93          1           0      -25.336761    6.511478    2.130218
     94          7           0      -27.155254   -0.852940    0.669630
     95          6           0      -27.803825   -0.072630    1.618471
     96          6           0      -28.981700   -0.759528    2.177013
     97          6           0      -28.967225   -2.033196    1.529521
     98          6           0      -27.806871   -2.038136    0.642554
     99          6           0      -29.911864   -0.124104    3.141251
    100          6           0      -29.955965   -3.149843    1.745062
    101          8           0      -29.895653   -4.230283    1.095202
    102          6           0      -31.114467   -2.995532    2.692762
    103          7           0      -25.333931   -2.385028   -1.226211
    104          6           0      -26.298986   -3.270767   -0.977889
    105          6           0      -25.943210   -4.676095   -1.635612
    106          6           0      -24.508779   -4.387863   -2.352741
    107          6           0      -24.310874   -2.920004   -1.972020
    108          6           0      -25.901748   -5.770357   -0.491597
    109          6           0      -24.523610   -4.532443   -3.934520
    110          6           0      -24.286897   -5.967820   -4.485796
    111          7           0      -23.564268   -0.178920   -1.101324
    112          6           0      -22.785380   -0.905686   -2.040143
    113          6           0      -21.533074   -0.104426   -2.393659
    114          6           0      -21.593613    1.071913   -1.653344
    115          6           0      -22.896716    1.008475   -0.943580
    116          6           0      -20.461693   -0.462802   -3.375299
    117          6           0      -20.967141    2.340819   -1.365084
    118          8           0      -19.909943    2.849757   -1.750711
    119          6           0      -22.050499    3.206968   -0.550059
    120          6           0      -21.464499    3.877060    0.671582
    121          8           0      -21.376727    3.353357    1.749222
    122          8           0      -21.258134    5.256872    0.446340
    123          6           0      -21.129952    6.120777    1.629540
    124          1           0      -27.976769    1.892798    2.601226
    125          1           0      -28.060769   -3.999092   -0.101712
    126          1           0      -22.385963   -2.716917   -2.971295
    127          1           0      -23.939689    4.102301    1.884485
    128          1           0      -26.881839    3.930093    2.023084
    129          1           0      -26.358490    3.829949    4.123819
    130          1           0      -24.601710    3.381470    3.747684
    131          1           0      -25.964875    2.207055    4.012621
    132          1           0      -25.365348    4.282506   -0.671989
    133          1           0      -23.928378    5.096823   -0.199930
    134          1           0      -26.655788    5.997121    0.493422
    135          1           0      -25.232732    6.998827    0.075208
    136          1           0      -29.779488   -0.739062    4.031255
    137          1           0      -30.939709   -0.079042    2.782233
    138          1           0      -29.717484    0.893112    3.483642
    139          1           0      -31.768456   -2.206063    2.324989
    140          1           0      -30.548670   -2.772820    3.598260
    141          1           0      -31.692615   -3.894875    2.903145
    142          1           0      -26.760059   -4.757910   -2.353723
    143          1           0      -23.618073   -4.810082   -1.885533
    144          1           0      -26.090033   -5.384929    0.510301
    145          1           0      -24.918933   -6.241809   -0.466528
    146          1           0      -26.731946   -6.443027   -0.704937
    147          1           0      -23.929962   -3.762340   -4.426262
    148          1           0      -25.538344   -4.280227   -4.240707
    149          1           0      -25.135859   -6.198562   -5.128346
    150          1           0      -24.147285   -6.643205   -3.641620
    151          1           0      -23.389256   -6.026768   -5.101778
    152          1           0      -20.608715    0.191579   -4.234801
    153          1           0      -20.536342   -1.516227   -3.647859
    154          1           0      -19.425624   -0.296140   -3.081269
    155          1           0      -22.441106    3.938527   -1.256817
    156          1           0      -20.108937    5.964744    1.976779
    157          1           0      -21.935387    5.927960    2.338487
    158          1           0      -21.294226    7.139231    1.278615
 ---------------------------------------------------------------------

 SCF Done:  E(RCAM-B3LYP) =  -4069.81617797     A.U. after   19 cycles

 Excitation energies and oscillator strengths:

 Excited State   1:      Singlet-A      1.7141 eV  723.31 nm  f=0.3825  <S**2>=0.000
     309 -> 315       -0.19957
     312 -> 313        0.68035
     309 <- 315       -0.11166
 This state for optimization and/or second-order correction.
 Total Energy, E(TD-HF/TD-DFT) =  -4069.75318513
 Copying the excited state density for this state as the 1-particle RhoCI density.

 Excited State   2:      Singlet-A      1.7683 eV  701.14 nm  f=0.3764  <S**2>=0.000
     310 -> 316       -0.19167
     311 -> 314        0.68182
     310 <- 316       -0.10600

 Excited State   3:      Singlet-A      2.2756 eV  544.83 nm  f=0.0577  <S**2>=0.000
     310 -> 314        0.61599
     311 -> 316        0.33777

 Excited State   4:      Singlet-A      2.2903 eV  541.35 nm  f=0.0346  <S**2>=0.000
     309 -> 313        0.58795
     312 -> 315        0.38621

 Excited State   5:      Singlet-A      3.2465 eV  381.90 nm  f=0.0000  <S**2>=0.000
     312 -> 314        0.70711

 The electronic state is 1-A.
 Alpha  occ. eigenvalues --  -46.88073 -46.87943 -19.23981 -19.23897 -19.20304
 Alpha  occ. eigenvalues --  -19.19922 -19.19186 -19.18394 -19.18324 -19.17636
 Alpha  occ. eigenvalues --  -14.42153 -14.41695 -14.41562 -14.41046 -14.39988
 Alpha  occ. eigenvalues --  -14.39954 -14.39880 -14.38736 -10.39424 -10.38239
 Alpha  occ. eigenvalues --  -10.35952 -10.35537 -10.35249 -10.33532 -10.31764
 Alpha  occ. eigenvalues --  -10.30918 -10.30815 -10.30758 -10.30642 -10.30614
 Alpha  occ. eigenvalues --  -10.30570 -10.30437 -10.30369 -10.30360 -10.30317
 Alpha  occ. eigenvalues --  -10.30230 -10.30122 -10.30116 -10.29623 -10.29480
 Alpha  occ. eigenvalues --  -10.29229 -10.29107 -10.29015 -10.28952 -10.28913
 Alpha  occ. eigenvalues --  -10.28704 -10.28545 -10.28300 -10.28194 -10.28143
 Alpha  occ. eigenvalues --  -10.28050 -10.27838 -10.27812 -10.27797 -10.27747
 Alpha  occ. eigenvalues --  -10.27741 -10.27734 -10.27711 -10.27615 -10.27579
 Alpha  occ. eigenvalues --  -10.27578 -10.27546 -10.27475 -10.27312 -10.27226
 Alpha  occ. eigenvalues --  -10.27165 -10.26907 -10.26622 -10.26509 -10.26481
 Alpha  occ. eigenvalues --  -10.26444 -10.26438 -10.26249 -10.26223 -10.26028
 Alpha  occ. eigenvalues --  -10.26024 -10.25989 -10.25886 -10.25768 -10.25571
 Alpha  occ. eigenvalues --  -10.25550 -10.25400 -10.25200 -10.25154 -10.25041
 Alpha  occ. eigenvalues --  -10.24046  -3.16798  -3.16756  -1.91663  -1.91661
 Alpha  occ. eigenvalues --   -1.91267  -1.91196  -1.91131  -1.91086  -1.15479
 Alpha  occ. eigenvalues --   -1.14827  -1.11516  -1.09118  -1.08987  -1.07808
 Alpha  occ. eigenvalues --   -1.07779  -1.05906  -1.05574  -1.04684  -1.04331
 Alpha  occ. eigenvalues --   -1.04099  -1.03470  -1.02982  -1.02801  -1.01379
 Alpha  occ. eigenvalues --   -0.92326  -0.91609  -0.89616  -0.88916  -0.88580
 Alpha  occ. eigenvalues --   -0.88407  -0.88010  -0.87945  -0.87831  -0.87567
 Alpha  occ. eigenvalues --   -0.87453  -0.86729  -0.86543  -0.86325  -0.84359
 Alpha  occ. eigenvalues --   -0.84251  -0.83571  -0.82941  -0.82697  -0.82588
 Alpha  occ. eigenvalues --   -0.82194  -0.81933  -0.81049  -0.80759  -0.80511
 Alpha  occ. eigenvalues --   -0.80005  -0.79010  -0.78966  -0.77450  -0.77421
 Alpha  occ. eigenvalues --   -0.76979  -0.76968  -0.75765  -0.75688  -0.75196
 Alpha  occ. eigenvalues --   -0.74547  -0.72627  -0.72070  -0.71672  -0.71472
 Alpha  occ. eigenvalues --   -0.69629  -0.69414  -0.69014  -0.68617  -0.68278
 Alpha  occ. eigenvalues --   -0.68135  -0.67302  -0.67067  -0.65514  -0.65400
 Alpha  occ. eigenvalues --   -0.65131  -0.64960  -0.64732  -0.63946  -0.63767
 Alpha  occ. eigenvalues --   -0.63747  -0.61699  -0.61268  -0.61104  -0.60639
 Alpha  occ. eigenvalues --   -0.59497  -0.59304  -0.59270  -0.58699  -0.57914
 Alpha  occ. eigenvalues --   -0.57799  -0.57787  -0.57536  -0.57514  -0.56775
 Alpha  occ. eigenvalues --   -0.56291  -0.56154  -0.55950  -0.55301  -0.55105
 Alpha  occ. eigenvalues --   -0.54657  -0.54524  -0.54404  -0.54241  -0.53956
 Alpha  occ. eigenvalues --   -0.53684  -0.53621  -0.53247  -0.53192  -0.52610
 Alpha  occ. eigenvalues --   -0.52606  -0.52513  -0.52424  -0.52282  -0.52212
 Alpha  occ. eigenvalues --   -0.51902  -0.51750  -0.51617  -0.51440  -0.51245
 Alpha  occ. eigenvalues --   -0.51158  -0.50833  -0.50596  -0.50484  -0.50448
 Alpha  occ. eigenvalues --   -0.50218  -0.50065  -0.49537  -0.49486  -0.49430
 Alpha  occ. eigenvalues --   -0.49323  -0.49320  -0.49078  -0.49006  -0.48884
 Alpha  occ. eigenvalues --   -0.48764  -0.48560  -0.48505  -0.48109  -0.48056
 Alpha  occ. eigenvalues --   -0.48049  -0.47999  -0.47771  -0.47387  -0.47156
 Alpha  occ. eigenvalues --   -0.46879  -0.46785  -0.46641  -0.46499  -0.46182
 Alpha  occ. eigenvalues --   -0.46076  -0.45732  -0.45694  -0.45596  -0.45468
 Alpha  occ. eigenvalues --   -0.45236  -0.45208  -0.45161  -0.44857  -0.44814
 Alpha  occ. eigenvalues --   -0.44651  -0.44496  -0.44179  -0.44102  -0.43993
 Alpha  occ. eigenvalues --   -0.43896  -0.43818  -0.43468  -0.43451  -0.43160
 Alpha  occ. eigenvalues --   -0.43123  -0.43071  -0.42896  -0.42895  -0.42832
 Alpha  occ. eigenvalues --   -0.42552  -0.42423  -0.42342  -0.42124  -0.42101
 Alpha  occ. eigenvalues --   -0.41831  -0.41559  -0.41516  -0.41286  -0.41236
 Alpha  occ. eigenvalues --   -0.41046  -0.40911  -0.40733  -0.40506  -0.40332
 Alpha  occ. eigenvalues --   -0.40186  -0.39574  -0.39226  -0.39192  -0.39075
 Alpha  occ. eigenvalues --   -0.38499  -0.38454  -0.38221  -0.38181  -0.37987
 Alpha  occ. eigenvalues --   -0.36987  -0.36652  -0.36434  -0.36275  -0.36259
 Alpha  occ. eigenvalues --   -0.35893  -0.35137  -0.34537  -0.34344  -0.34145
 Alpha  occ. eigenvalues --   -0.33264  -0.33176  -0.32926  -0.32481  -0.31349
 Alpha  occ. eigenvalues --   -0.31315  -0.30931  -0.30702  -0.30513  -0.30490
 Alpha  occ. eigenvalues --   -0.30076  -0.30030  -0.29697  -0.23985  -0.23798
 Alpha  occ. eigenvalues --   -0.20593  -0.20428
 Alpha virt. eigenvalues --   -0.07887  -0.07814  -0.02138  -0.01738  -0.00211
 Alpha virt. eigenvalues --    0.00237   0.02170   0.02291   0.03038   0.03261
 Alpha virt. eigenvalues --    0.04489   0.04955   0.05039   0.05877   0.06125

 Mulliken charges:
               1
     1  Mg   0.850570
     2  C    0.012145
     3  C   -0.109465
     4  C   -0.070327
     5  C   -0.108760
     6  N   -0.257963
     7  C   -0.051809
     8  C   -0.000875
     9  C   -0.101379
    10  C    0.045280
    11  C    0.094738
    12  C    0.048919
    13  C   -0.072537
    14  H    0.012970
    15  N   -0.419465
    16  C    0.163737
    17  C   -0.108894
    18  C   -0.091220
    19  C    0.161823
    20  C    0.094038
    21  C    0.026207
    22  O   -0.168447
    23  C    0.036209
    24  N   -0.251372
    25  C    0.003054
    26  C   -0.036989
    27  C    0.001981
    28  C   -0.034614
    29  C    0.070320
    30  C    0.035384
    31  C    0.008531
    32  N   -0.312650
    33  C    0.155315
    34  C   -0.183089
    35  C    0.078804
    36  C    0.062742
    37  C    0.144283
    38  C   -0.022471
    39  O   -0.177545
    40  C    0.001695
    41  C    0.195338
    42  O   -0.239456
    43  O   -0.323690
    44  C    0.190509
    45  H   -0.033061
    46  H   -0.010560
    47  H   -0.035039
    48  H    0.022029
    49  H    0.005885
    50  H    0.023417
    51  H    0.016538
    52  H    0.024988
    53  H    0.008961
    54  H    0.018156
    55  H    0.025963
    56  H    0.040076
    57  H    0.037354
    58  H    0.007415
    59  H    0.045239
    60  H    0.040709
    61  H    0.049164
    62  H    0.021272
    63  H    0.008518
    64  H    0.002528
    65  H    0.016655
    66  H    0.005051
    67  H    0.028202
    68  H    0.006565
    69  H    0.007650
    70  H    0.009856
    71  H    0.017920
    72  H    0.021365
    73  H    0.036295
    74  H    0.041593
    75  H   -0.001561
    76  H    0.044082
    77  H    0.042907
    78  H    0.040267
    79  H    0.012025
    80  Mg   0.842077
    81  C   -0.020529
    82  C   -0.090069
    83  C   -0.079607
    84  C   -0.078347
    85  N   -0.250676
    86  C   -0.044729
    87  C   -0.013008
    88  C   -0.082138
    89  C   -0.014530
    90  C    0.091555
    91  C    0.015931
    92  C   -0.044477
    93  H    0.032149
    94  N   -0.411423
    95  C    0.200961
    96  C   -0.144011
    97  C   -0.033964
    98  C    0.153108
    99  C    0.122200
   100  C   -0.007209
   101  O   -0.241924
   102  C    0.080568
   103  N   -0.275391
   104  C    0.019536
   105  C   -0.035736
   106  C    0.002853
   107  C    0.012047
   108  C    0.060810
   109  C    0.002614
   110  C    0.023781
   111  N   -0.368242
   112  C    0.111830
   113  C   -0.177378
   114  C    0.032704
   115  C    0.112092
   116  C    0.110970
   117  C    0.072016
   118  O   -0.179448
   119  C   -0.071635
   120  C    0.225334
   121  O   -0.190697
   122  O   -0.375625
   123  C    0.183822
   124  H   -0.034858
   125  H   -0.005885
   126  H   -0.023963
   127  H    0.008526
   128  H    0.003683
   129  H    0.006445
   130  H    0.036701
   131  H    0.014640
   132  H    0.016680
   133  H    0.015045
   134  H    0.036679
   135  H    0.035930
   136  H    0.032158
   137  H    0.035701
   138  H    0.012026
   139  H    0.044602
   140  H    0.019927
   141  H    0.028106
   142  H    0.024703
   143  H    0.018529
   144  H    0.031727
   145  H    0.016254
   146  H    0.027676
   147  H    0.011365
   148  H   -0.004933
   149  H    0.019984
   150  H    0.018626
   151  H    0.014664
   152  H    0.037886
   153  H    0.005621
   154  H    0.037452
   155  H    0.063017
   156  H    0.049864
   157  H    0.033273
   158  H    0.033980
 Sum of Mulliken charges =  -0.00000

 Dipole moment (field-independent basis, Debye):
    X=             -6.2190    Y=              0.6871    Z=              5.8907  Tot=              8.5935
 Quadrupole moment (field-independent basis, Debye-Ang):
   XX=           -423.3109   YY=           -497.6914   ZZ=           -489.3384
   XY=            -95.8636   XZ=             91.7626   YZ=             43.0231

 Normal termination of Gaussian 16 at Tue Sep 14 16:21:38 2021.
