 Gaussian 16, Revision A.03,
 Gaussian 16:  ES64L-G16RevA.03 25-Dec-2016

 -----------------------------------
 #p cam-b3lyp/Def2SVP td=(nstates=5)
 -----------------------------------

 --------------------------------
 TDDFT excited states in gaussian
 --------------------------------
 Symbolic Z-matrix:
 Charge =  0 Multiplicity = 1

                         Standard orientation:
 ---------------------------------------------------------------------
 Center     Atomic      Atomic             Coordinates (Angstroms)
 Number     Number       Type             X           Y           Z
 ---------------------------------------------------------------------
      1         12           0      -26.626045    0.078334   -0.078125
      2          6           0      -23.233619    0.938981   -0.122942
      3          6           0      -26.216919   -0.777443   -3.403924
      4          6           0      -29.750808   -1.095055   -0.046164
      5          6           0      -26.586706    0.193446    3.415524
      6          7           0      -24.724454   -0.082539   -1.576789
      7          6           0      -23.503789    0.447311   -1.369163
      8          6           0      -22.581585    0.324216   -2.558286
      9          6           0      -23.704474    0.046663   -3.629087
     10          6           0      -24.969347   -0.351018   -2.875242
     11          6           0      -23.999592    1.340145   -4.434447
     12          6           0      -21.480208   -0.713255   -2.306095
     13          6           0      -21.816432   -2.025619   -1.567763
     14          1           0      -21.318824   -3.307061   -2.225925
     15          7           0      -27.812052   -0.790658   -1.500446
     16          6           0      -27.484890   -0.934368   -2.822728
     17          6           0      -28.718035   -1.110205   -3.600906
     18          6           0      -29.777400   -1.370029   -2.642210
     19          6           0      -29.118760   -1.066913   -1.335021
     20          6           0      -28.717045   -1.358988   -5.157764
     21          6           0      -31.203051   -1.834241   -2.950584
     22          8           0      -31.594866   -1.892576   -4.082766
     23          6           0      -32.140747   -2.176587   -1.828978
     24          7           0      -27.900343   -0.587216    1.552445
     25          6           0      -29.242307   -0.947656    1.329825
     26          6           0      -30.051689   -1.182968    2.674749
     27          6           0      -28.990075   -0.687102    3.768224
     28          6           0      -27.740078   -0.288438    2.857453
     29          6           0      -31.518921   -0.547759    2.863295
     30          6           0      -28.621986   -1.697369    4.948417
     31          6           0      -28.321399   -0.893035    6.308086
     32          7           0      -25.240701    0.531360    1.419553
     33          6           0      -25.402226    0.621415    2.787177
     34          6           0      -24.173118    1.133361    3.380875
     35          6           0      -23.269977    1.356031    2.309563
     36          6           0      -23.949757    0.893328    1.125524
     37          6           0      -23.969402    1.532360    4.818992
     38          6           0      -21.892459    1.745145    1.863633
     39          8           0      -20.912205    2.033375    2.513346
     40          6           0      -21.889682    1.528518    0.290748
     41          6           0      -21.630720    2.875116   -0.327049
     42          8           0      -20.499807    3.420658   -0.374176
     43          8           0      -22.783307    3.330185   -0.950924
     44          6           0      -22.621875    4.483697   -1.771511
     45          1           0      -26.114786   -0.961527   -4.475515
     46          1           0      -30.823052   -1.267806    0.069415
     47          1           0      -26.654243    0.414269    4.482945
     48          1           0      -22.151169    1.285997   -2.836617
     49          1           0      -23.523516   -0.733091   -4.367669
     50          1           0      -25.062998    1.305218   -4.672436
     51          1           0      -23.326181    1.422653   -5.286396
     52          1           0      -23.962203    2.303667   -3.925218
     53          1           0      -20.765449   -0.224636   -1.644640
     54          1           0      -21.008317   -0.943423   -3.261389
     55          1           0      -22.899655   -2.131082   -1.513019
     56          1           0      -21.342669   -1.991757   -0.587112
     57          1           0      -28.436894   -2.367074   -5.464551
     58          1           0      -28.051843   -0.642717   -5.640129
     59          1           0      -29.647124   -1.135047   -5.678899
     60          1           0      -33.061090   -2.635186   -2.192051
     61          1           0      -32.410867   -1.315572   -1.217269
     62          1           0      -31.599035   -2.977797   -1.325572
     63          1           0      -30.116431   -2.270171    2.652663
     64          1           0      -29.319213    0.238180    4.240232
     65          1           0      -32.234461   -1.283916    2.498848
     66          1           0      -31.620571    0.391938    2.321104
     67          1           0      -31.665761   -0.330182    3.921415
     68          1           0      -27.672372   -2.196132    4.754916
     69          1           0      -29.394849   -2.456490    5.071424
     70          1           0      -27.298743   -1.063518    6.644799
     71          1           0      -29.002710   -1.233190    7.087416
     72          1           0      -28.332388    0.196245    6.291891
     73          1           0      -24.158622    0.661966    5.446340
     74          1           0      -24.680848    2.314279    5.085466
     75          1           0      -22.946784    1.850796    5.020694
     76          1           0      -20.989289    0.941432    0.111224
     77          1           0      -23.560493    4.692908   -2.284155
     78          1           0      -21.750917    4.388560   -2.420189
     79          1           0      -22.494733    5.391168   -1.181291
     80         12           0       25.649430   -0.839957   -0.298378
     81          6           0       26.789508    2.451868   -0.477925
     82          6           0       22.983588    0.172831    1.417554
     83          6           0       25.388180   -4.019304    0.929873
     84          6           0       28.481923   -1.856609   -2.053277
     85          7           0       24.875012    1.141830    0.254095
     86          6           0       25.493476    2.300630    0.062073
     87          6           0       24.535258    3.468278    0.495851
     88          6           0       23.385907    2.703250    1.194742
     89          6           0       23.757993    1.239660    0.977146
     90          6           0       23.321630    2.929399    2.786363
     91          6           0       23.998100    4.385621   -0.694641
     92          6           0       23.987085    5.831587   -0.334129
     93          1           0       22.720681    6.646941   -0.545456
     94          7           0       24.341857   -1.779182    0.976495
     95          6           0       23.266645   -1.185109    1.582459
     96          6           0       22.398635   -2.236104    2.131556
     97          6           0       23.114261   -3.456855    1.982681
     98          6           0       24.370936   -3.088721    1.309593
     99          6           0       21.040424   -1.937093    2.842817
    100          6           0       22.726007   -4.880675    2.483477
    101          8           0       23.408099   -5.883312    2.303691
    102          6           0       21.438136   -5.037774    3.199690
    103          7           0       26.744368   -2.616270   -0.485596
    104          6           0       26.506627   -3.830726    0.165020
    105          6           0       27.697804   -4.793147   -0.081483
    106          6           0       28.268370   -4.298194   -1.482306
    107          6           0       27.776057   -2.832583   -1.315801
    108          6           0       28.702691   -4.831234    1.089882
    109          6           0       27.695424   -4.929209   -2.719458
    110          6           0       26.357316   -4.511980   -3.253311
    111          7           0       27.221551    0.050302   -1.299132
    112          6           0       28.324681   -0.468833   -1.936510
    113          6           0       29.207556    0.581735   -2.448554
    114          6           0       28.694237    1.795083   -1.802661
    115          6           0       27.489246    1.379913   -1.112795
    116          6           0       30.436953    0.392222   -3.178424
    117          6           0       28.910600    3.220097   -1.583943
    118          8           0       29.783221    3.945410   -1.884087
    119          6           0       27.608991    3.716916   -0.763506
    120          6           0       27.921248    4.568782    0.440810
    121          8           0       28.071969    4.149958    1.584726
    122          8           0       27.911686    5.907765    0.051345
    123          6           0       28.164593    6.922353    1.090456
    124          1           0       21.980834    0.322662    1.824018
    125          1           0       25.251099   -5.008052    1.373490
    126          1           0       29.293620   -2.236518   -2.676608
    127          1           0       24.987042    4.111562    1.251365
    128          1           0       22.375622    2.935449    0.857881
    129          1           0       22.640572    3.763391    2.957041
    130          1           0       24.258265    3.234209    3.252456
    131          1           0       22.906029    2.026209    3.234693
    132          1           0       22.980929    4.118854   -0.982002
    133          1           0       24.538189    4.296374   -1.637318
    134          1           0       24.698722    6.263666   -1.037147
    135          1           0       24.326410    6.112588    0.662472
    136          1           0       21.284231   -1.803829    3.896436
    137          1           0       20.304780   -2.718226    2.649577
    138          1           0       20.647974   -0.938180    2.649455
    139          1           0       21.095017   -4.303265    3.928127
    140          1           0       21.429085   -5.988895    3.731454
    141          1           0       20.660612   -5.301151    2.482051
    142          1           0       27.214719   -5.760436   -0.216608
    143          1           0       29.352282   -4.393126   -1.544820
    144          1           0       29.746807   -4.637230    0.844275
    145          1           0       28.580606   -5.695937    1.742559
    146          1           0       28.472593   -4.037032    1.799873
    147          1           0       27.598285   -6.012844   -2.665244
    148          1           0       28.403595   -4.763126   -3.531381
    149          1           0       26.631235   -3.772920   -4.006000
    150          1           0       25.696959   -4.010139   -2.545734
    151          1           0       25.863332   -5.375867   -3.699208
    152          1           0       30.489266    1.218683   -3.887406
    153          1           0       30.341751   -0.544107   -3.727705
    154          1           0       31.287852    0.429040   -2.498906
    155          1           0       27.021808    4.332015   -1.445407
    156          1           0       29.094089    6.641969    1.586695
    157          1           0       27.377424    6.910631    1.843873
    158          1           0       28.245131    7.972588    0.809575
 ---------------------------------------------------------------------

 SCF Done:  E(RCAM-B3LYP) =  -4069.81129825     A.U. after   17 cycles

 Excitation energies and oscillator strengths:

 Excited State   1:      Singlet-A      1.6811 eV  737.53 nm  f=0.3801  <S**2>=0.000
     310 -> 316        0.17703
     312 -> 314        0.68653
     310 <- 316        0.10856
 This state for optimization and/or second-order correction.
 Total Energy, E(TD-HF/TD-DFT) =  -4069.74951958
 Copying the excited state density for this state as the 1-particle RhoCI density.

 Excited State   2:      Singlet-A      1.7469 eV  709.75 nm  f=0.3576  <S**2>=0.000
     309 -> 315        0.19412
     311 -> 313        0.68068
     309 <- 315        0.10947

 Excited State   3:      Singlet-A      2.2374 eV  554.14 nm  f=0.1044  <S**2>=0.000
     309 -> 313        0.63522
     311 -> 315       -0.29910

 Excited State   4:      Singlet-A      2.2559 eV  549.59 nm  f=0.1050  <S**2>=0.000
     310 -> 314        0.63272
     312 -> 316       -0.30597

 Excited State   5:      Singlet-A      3.1138 eV  398.17 nm  f=0.0000  <S**2>=0.000
     312 -> 313        0.70710

 The electronic state is 1-A.
 Alpha  occ. eigenvalues --  -46.90417 -46.87901 -19.26063 -19.25001 -19.20081
 Alpha  occ. eigenvalues --  -19.20036 -19.19668 -19.19568 -19.19163 -19.19060
 Alpha  occ. eigenvalues --  -14.42281 -14.42174 -14.41834 -14.41404 -14.40544
 Alpha  occ. eigenvalues --  -14.39496 -14.39265 -14.39207 -10.39998 -10.39673
 Alpha  occ. eigenvalues --  -10.35810 -10.35628 -10.35503 -10.35325 -10.32852
 Alpha  occ. eigenvalues --  -10.32003 -10.31852 -10.31781 -10.31314 -10.31151
 Alpha  occ. eigenvalues --  -10.30872 -10.30608 -10.30572 -10.30568 -10.30233
 Alpha  occ. eigenvalues --  -10.29984 -10.29906 -10.29866 -10.29730 -10.29603
 Alpha  occ. eigenvalues --  -10.29570 -10.29457 -10.29368 -10.29287 -10.28977
 Alpha  occ. eigenvalues --  -10.28761 -10.28645 -10.28561 -10.28548 -10.28465
 Alpha  occ. eigenvalues --  -10.28415 -10.28361 -10.28277 -10.28271 -10.28199
 Alpha  occ. eigenvalues --  -10.28088 -10.28015 -10.27931 -10.27888 -10.27815
 Alpha  occ. eigenvalues --  -10.27807 -10.27766 -10.27743 -10.27649 -10.27542
 Alpha  occ. eigenvalues --  -10.27516 -10.27060 -10.26899 -10.26869 -10.26685
 Alpha  occ. eigenvalues --  -10.26452 -10.26314 -10.26280 -10.26239 -10.26198
 Alpha  occ. eigenvalues --  -10.26102 -10.26068 -10.26034 -10.25968 -10.25910
 Alpha  occ. eigenvalues --  -10.25908 -10.25791 -10.25550 -10.25522 -10.25357
 Alpha  occ. eigenvalues --  -10.24532  -3.18780  -3.16603  -1.93643  -1.93255
 Alpha  occ. eigenvalues --   -1.93070  -1.91507  -1.91035  -1.90931  -1.16480
 Alpha  occ. eigenvalues --   -1.15136  -1.12927  -1.11525  -1.10680  -1.10140
 Alpha  occ. eigenvalues --   -1.07433  -1.07073  -1.05161  -1.04808  -1.03909
 Alpha  occ. eigenvalues --   -1.03560  -1.02984  -1.02850  -1.02118  -1.01918
 Alpha  occ. eigenvalues --   -0.92535  -0.91851  -0.89042  -0.89014  -0.88612
 Alpha  occ. eigenvalues --   -0.88359  -0.88001  -0.87761  -0.87367  -0.87165
 Alpha  occ. eigenvalues --   -0.86880  -0.86286  -0.86071  -0.85687  -0.84873
 Alpha  occ. eigenvalues --   -0.84159  -0.83578  -0.83372  -0.82734  -0.82522
 Alpha  occ. eigenvalues --   -0.81903  -0.81845  -0.80980  -0.80829  -0.80390
 Alpha  occ. eigenvalues --   -0.80345  -0.78225  -0.77558  -0.77312  -0.77253
 Alpha  occ. eigenvalues --   -0.76729  -0.76714  -0.76442  -0.75830  -0.75345
 Alpha  occ. eigenvalues --   -0.74844  -0.72836  -0.72228  -0.72082  -0.71450
 Alpha  occ. eigenvalues --   -0.69955  -0.69426  -0.69209  -0.68477  -0.68243
 Alpha  occ. eigenvalues --   -0.67731  -0.67181  -0.66738  -0.65919  -0.65687
 Alpha  occ. eigenvalues --   -0.64918  -0.64861  -0.64652  -0.64596  -0.64219
 Alpha  occ. eigenvalues --   -0.64079  -0.63741  -0.61784  -0.60129  -0.60053
 Alpha  occ. eigenvalues --   -0.59574  -0.59296  -0.58980  -0.58856  -0.58201
 Alpha  occ. eigenvalues --   -0.58084  -0.57819  -0.57748  -0.57370  -0.57213
 Alpha  occ. eigenvalues --   -0.56317  -0.56115  -0.55787  -0.55513  -0.55505
 Alpha  occ. eigenvalues --   -0.55329  -0.55087  -0.54819  -0.54324  -0.54080
 Alpha  occ. eigenvalues --   -0.53688  -0.53550  -0.53359  -0.53237  -0.53083
 Alpha  occ. eigenvalues --   -0.52947  -0.52810  -0.52492  -0.52148  -0.51953
 Alpha  occ. eigenvalues --   -0.51754  -0.51659  -0.51604  -0.51463  -0.51363
 Alpha  occ. eigenvalues --   -0.51219  -0.51110  -0.50721  -0.50575  -0.50386
 Alpha  occ. eigenvalues --   -0.50156  -0.50070  -0.50052  -0.49962  -0.49741
 Alpha  occ. eigenvalues --   -0.49598  -0.49574  -0.49504  -0.49130  -0.48958
 Alpha  occ. eigenvalues --   -0.48713  -0.48586  -0.48400  -0.48297  -0.47972
 Alpha  occ. eigenvalues --   -0.47780  -0.47594  -0.47336  -0.47260  -0.46972
 Alpha  occ. eigenvalues --   -0.46944  -0.46774  -0.46694  -0.46574  -0.46339
 Alpha  occ. eigenvalues --   -0.46259  -0.46106  -0.46078  -0.45729  -0.45713
 Alpha  occ. eigenvalues --   -0.45582  -0.45486  -0.45348  -0.45228  -0.45177
 Alpha  occ. eigenvalues --   -0.44931  -0.44907  -0.44615  -0.44370  -0.44273
 Alpha  occ. eigenvalues --   -0.44146  -0.43977  -0.43881  -0.43710  -0.43661
 Alpha  occ. eigenvalues --   -0.43408  -0.43305  -0.43290  -0.43231  -0.43008
 Alpha  occ. eigenvalues --   -0.42808  -0.42783  -0.42645  -0.42248  -0.42236
 Alpha  occ. eigenvalues --   -0.42025  -0.41862  -0.41757  -0.41556  -0.41510
 Alpha  occ. eigenvalues --   -0.41346  -0.41257  -0.41167  -0.40480  -0.40400
 Alpha  occ. eigenvalues --   -0.40215  -0.39942  -0.39120  -0.39113  -0.38970
 Alpha  occ. eigenvalues --   -0.38643  -0.38145  -0.38048  -0.37659  -0.37301
 Alpha  occ. eigenvalues --   -0.37215  -0.36958  -0.36808  -0.36569  -0.36512
 Alpha  occ. eigenvalues --   -0.36342  -0.35892  -0.34712  -0.34444  -0.34418
 Alpha  occ. eigenvalues --   -0.34265  -0.33180  -0.32789  -0.31396  -0.31388
 Alpha  occ. eigenvalues --   -0.31228  -0.31202  -0.30995  -0.30927  -0.30631
 Alpha  occ. eigenvalues --   -0.30006  -0.29754  -0.29538  -0.24057  -0.23966
 Alpha  occ. eigenvalues --   -0.21417  -0.20760
 Alpha virt. eigenvalues --   -0.08658  -0.08446  -0.02102  -0.01362   0.00070
 Alpha virt. eigenvalues --    0.00421   0.00744   0.01984   0.02438   0.02810
 Alpha virt. eigenvalues --    0.04410   0.04583   0.05466   0.05601   0.05888

 Mulliken charges:
               1
     1  Mg   0.821376
     2  C    0.141411
     3  C   -0.072399
     4  C   -0.088182
     5  C   -0.079392
     6  N   -0.220266
     7  C   -0.143132
     8  C    0.066474
     9  C   -0.054801
    10  C   -0.010671
    11  C    0.063587
    12  C    0.064052
    13  C   -0.078551
    14  H    0.015471
    15  N   -0.372578
    16  C    0.163215
    17  C   -0.137164
    18  C   -0.058513
    19  C    0.190607
    20  C    0.093531
    21  C   -0.010330
    22  O   -0.168272
    23  C    0.051837
    24  N   -0.300591
    25  C   -0.021013
    26  C   -0.011941
    27  C   -0.040254
    28  C    0.044989
    29  C    0.055017
    30  C    0.036446
    31  C   -0.036875
    32  N   -0.352634
    33  C    0.125104
    34  C   -0.196532
    35  C    0.022503
    36  C    0.045460
    37  C    0.117939
    38  C    0.063995
    39  O   -0.137446
    40  C   -0.139034
    41  C    0.228297
    42  O   -0.237511
    43  O   -0.322900
    44  C    0.183478
    45  H   -0.018138
    46  H   -0.048415
    47  H   -0.045694
    48  H    0.002298
    49  H   -0.000451
    50  H    0.003842
    51  H    0.026690
    52  H    0.004881
    53  H    0.013084
    54  H    0.020331
    55  H    0.050697
    56  H    0.037460
    57  H    0.040191
    58  H    0.005490
    59  H    0.031873
    60  H    0.019366
    61  H    0.059885
    62  H    0.032467
    63  H    0.026045
    64  H    0.015650
    65  H    0.028264
    66  H    0.025966
    67  H    0.028356
    68  H    0.025541
    69  H    0.019012
    70  H    0.017217
    71  H    0.020697
    72  H    0.021743
    73  H    0.015709
    74  H    0.029804
    75  H    0.034177
    76  H    0.055803
    77  H    0.031249
    78  H    0.037689
    79  H    0.027415
    80  Mg   0.845368
    81  C    0.027416
    82  C   -0.076855
    83  C   -0.074879
    84  C   -0.103146
    85  N   -0.243956
    86  C   -0.032151
    87  C    0.000714
    88  C   -0.076741
    89  C    0.082396
    90  C    0.038837
    91  C    0.070152
    92  C   -0.093384
    93  H    0.009732
    94  N   -0.370836
    95  C    0.094393
    96  C   -0.139743
    97  C   -0.061993
    98  C    0.101689
    99  C    0.093651
   100  C    0.039043
   101  O   -0.200719
   102  C    0.041862
   103  N   -0.293964
   104  C    0.034449
   105  C    0.001867
   106  C   -0.010250
   107  C    0.025391
   108  C    0.092687
   109  C    0.017549
   110  C    0.022135
   111  N   -0.363056
   112  C    0.153968
   113  C   -0.162550
   114  C   -0.039998
   115  C    0.088731
   116  C    0.123004
   117  C    0.056365
   118  O   -0.102399
   119  C   -0.071445
   120  C    0.218759
   121  O   -0.220139
   122  O   -0.352127
   123  C    0.187118
   124  H   -0.036695
   125  H   -0.006457
   126  H   -0.034639
   127  H    0.020336
   128  H    0.017661
   129  H    0.008649
   130  H    0.029586
   131  H    0.017117
   132  H    0.013846
   133  H    0.012984
   134  H    0.031493
   135  H    0.030118
   136  H    0.034936
   137  H    0.042285
   138  H    0.009207
   139  H    0.038144
   140  H    0.012070
   141  H    0.038809
   142  H   -0.003746
   143  H   -0.004010
   144  H    0.017224
   145  H    0.021798
   146  H    0.010553
   147  H    0.001274
   148  H   -0.002084
   149  H    0.005374
   150  H    0.031879
   151  H    0.016190
   152  H    0.033335
   153  H    0.015293
   154  H    0.051190
   155  H    0.046725
   156  H    0.036656
   157  H    0.023065
   158  H    0.042891
 Sum of Mulliken charges =  -0.00000

 Dipole moment (field-independent basis, Debye):
    X=             -8.6778    Y=              0.1796    Z=             -0.0247  Tot=              8.6797
 Quadrupole moment (field-independent basis, Debye-Ang):
   XX=           -445.8238   YY=           -514.6392   ZZ=           -498.4136
   XY=            -28.4099   XZ=            -69.7352   YZ=              0.0476

 Normal termination of Gaussian 16 at Wed Sep  1 23:55:49 2021.
