 Gaussian 16, Revision A.03,
 Gaussian 16:  ES64L-G16RevA.03 25-Dec-2016

 -----------------------------------
 #p cam-b3lyp/Def2SVP td=(nstates=5)
 -----------------------------------

 --------------------------------
 TDDFT excited states in gaussian
 --------------------------------
 Symbolic Z-matrix:
 Charge =  0 Multiplicity = 1

                         Standard orientation:
 ---------------------------------------------------------------------
 Center     Atomic      Atomic             Coordinates (Angstroms)
 Number     Number       Type             X           Y           Z
 ---------------------------------------------------------------------
      1         12           0       -0.708213    0.186847    0.189168
      2          6           0        2.732600    0.095258    0.308901
      3          6           0       -0.703454   -3.385325    0.277750
      4          6           0       -3.954609    0.174406   -0.283514
      5          6           0       -0.649670    3.664740   -0.064560
      6          7           0        0.885763   -1.382424    0.290282
      7          6           0        2.205050   -1.183384    0.364046
      8          6           0        2.915087   -2.563654    0.552132
      9          6           0        1.752801   -3.647936    0.395052
     10          6           0        0.521264   -2.732300    0.255945
     11          6           0        1.775996   -4.506920   -0.854647
     12          6           0        3.746455   -2.691429    1.837494
     13          6           0        5.151896   -3.187334    1.541681
     14          1           0        5.957845   -3.960303    2.595760
     15          7           0       -2.124744   -1.396912    0.102391
     16          6           0       -1.963116   -2.748625    0.203861
     17          6           0       -3.177495   -3.433092    0.162654
     18          6           0       -4.176382   -2.439222   -0.126798
     19          6           0       -3.436622   -1.130172   -0.100339
     20          6           0       -3.314608   -4.939406    0.330257
     21          6           0       -5.651146   -2.628853   -0.442172
     22          8           0       -6.305429   -1.642942   -0.833634
     23          6           0       -6.292080   -3.956150   -0.413363
     24          7           0       -2.045987    1.693378   -0.087856
     25          6           0       -3.403097    1.474954   -0.207541
     26          6           0       -4.259947    2.777850   -0.420307
     27          6           0       -3.162432    3.866785   -0.056488
     28          6           0       -1.863700    3.040460   -0.088147
     29          6           0       -4.957710    3.090915   -1.802532
     30          6           0       -3.408129    4.802800    1.212708
     31          6           0       -3.138236    4.166454    2.550591
     32          7           0        0.674266    1.606116   -0.006814
     33          6           0        0.608167    2.982949   -0.104778
     34          6           0        1.881477    3.576670   -0.151197
     35          6           0        2.722140    2.475214    0.046508
     36          6           0        1.957153    1.275895    0.136599
     37          6           0        2.066310    5.032669   -0.220860
     38          6           0        4.102836    2.178601    0.058763
     39          8           0        5.041542    2.952104   -0.141107
     40          6           0        4.219758    0.578636    0.262282
     41          6           0        4.977076    0.014022   -0.840849
     42          8           0        4.591451   -0.153324   -1.975259
     43          8           0        6.233336   -0.206837   -0.473635
     44          6           0        7.177835   -0.648339   -1.454863
     45          1           0       -0.689199   -4.476560    0.253168
     46          1           0       -5.022401    0.328786   -0.450244
     47          1           0       -0.676512    4.753246   -0.148122
     48          1           0        3.533684   -2.581275   -0.344591
     49          1           0        1.901261   -4.346119    1.219584
     50          1           0        2.656750   -4.369963   -1.482751
     51          1           0        0.934340   -4.255398   -1.499420
     52          1           0        1.573769   -5.545874   -0.592553
     53          1           0        3.306959   -3.323625    2.609230
     54          1           0        3.788230   -1.705646    2.300134
     55          1           0        5.757737   -2.291953    1.397933
     56          1           0        5.068470   -3.803599    0.646692
     57          1           0       -2.391989   -5.389778    0.696516
     58          1           0       -3.437764   -5.390747   -0.654481
     59          1           0       -4.209228   -5.191505    0.898420
     60          1           0       -7.202798   -3.960073   -1.013323
     61          1           0       -6.599442   -4.135372    0.617399
     62          1           0       -5.607877   -4.715937   -0.790335
     63          1           0       -4.995915    2.923197    0.371111
     64          1           0       -3.156054    4.623129   -0.840357
     65          1           0       -4.740492    2.263577   -2.476975
     66          1           0       -4.413725    3.897701   -2.295339
     67          1           0       -6.024916    3.314525   -1.805177
     68          1           0       -4.474754    5.025968    1.215934
     69          1           0       -2.916012    5.772713    1.151592
     70          1           0       -2.798135    4.961385    3.213387
     71          1           0       -2.469826    3.311272    2.642374
     72          1           0       -4.090534    3.762587    2.894312
     73          1           0        1.318692    5.677913    0.239775
     74          1           0        2.360945    5.432258   -1.190481
     75          1           0        2.992555    5.146077    0.341871
     76          1           0        4.749423    0.402247    1.198268
     77          1           0        7.212578   -1.735233   -1.537698
     78          1           0        8.162678   -0.340324   -1.104187
     79          1           0        6.919111   -0.235417   -2.429998
 ---------------------------------------------------------------------

 SCF Done:  E(RCAM-B3LYP) =  -2034.92043243     A.U. after   17 cycles

 Excitation energies and oscillator strengths:

 Excited State   1:      Singlet-A      1.7068 eV  726.43 nm  f=0.4163  <S**2>=0.000
     155 ->158         0.17278
     156 ->157         0.68672
     155 <-158         0.10542
 This state for optimization and/or second-order correction.
 Total Energy, E(TD-HF/TD-DFT) =  -2034.85771049
 Copying the excited state density for this state as the 1-particle RhoCI density.

 Excited State   2:      Singlet-A      2.2215 eV  558.10 nm  f=0.1599  <S**2>=0.000
     155 ->157         0.65330
     156 ->158        -0.25401

 Excited State   3:      Singlet-A      3.3260 eV  372.77 nm  f=0.0026  <S**2>=0.000
     154 ->157         0.67836

 Excited State   4:      Singlet-A      3.3980 eV  364.87 nm  f=0.0023  <S**2>=0.000
     152 ->157         0.44970
     152 ->159        -0.20912
     152 ->160         0.15976
     153 ->157         0.42043
     154 ->157         0.11614

 Excited State   5:      Singlet-A      3.4980 eV  354.44 nm  f=0.0064  <S**2>=0.000
     152 ->157        -0.41293
     152 ->159         0.10408
     153 ->157         0.50963
     156 ->158         0.17201

 The electronic state is 1-A.
 Alpha  occ. eigenvalues --  -46.87690 -19.24831 -19.18629 -19.18596 -19.18246
 Alpha  occ. eigenvalues --  -14.42303 -14.42170 -14.39718 -14.38968 -10.38306
 Alpha  occ. eigenvalues --  -10.34873 -10.34515 -10.31506 -10.31222 -10.31190
 Alpha  occ. eigenvalues --  -10.31162 -10.30742 -10.30159 -10.29388 -10.29058
 Alpha  occ. eigenvalues --  -10.28992 -10.28558 -10.28528 -10.28287 -10.28279
 Alpha  occ. eigenvalues --  -10.28271 -10.27966 -10.27703 -10.27667 -10.27592
 Alpha  occ. eigenvalues --  -10.27503 -10.27299 -10.27194 -10.26803 -10.26608
 Alpha  occ. eigenvalues --  -10.26311 -10.26280 -10.26190 -10.26170 -10.25751
 Alpha  occ. eigenvalues --  -10.25565 -10.24984 -10.24643  -3.16474  -1.91372
 Alpha  occ. eigenvalues --   -1.90946  -1.90779  -1.17937  -1.08858  -1.08508
 Alpha  occ. eigenvalues --   -1.07801  -1.04598  -1.03706  -1.03336  -1.02551
 Alpha  occ. eigenvalues --   -0.92093  -0.89369  -0.88778  -0.88350  -0.87655
 Alpha  occ. eigenvalues --   -0.87521  -0.86790  -0.84598  -0.83869  -0.82955
 Alpha  occ. eigenvalues --   -0.82403  -0.81186  -0.80599  -0.78345  -0.77337
 Alpha  occ. eigenvalues --   -0.76899  -0.75985  -0.75288  -0.73455  -0.71457
 Alpha  occ. eigenvalues --   -0.69657  -0.68843  -0.67800  -0.67150  -0.65398
 Alpha  occ. eigenvalues --   -0.64924  -0.64610  -0.64389  -0.62348  -0.60431
 Alpha  occ. eigenvalues --   -0.60007  -0.58999  -0.58517  -0.58355  -0.57687
 Alpha  occ. eigenvalues --   -0.56531  -0.56209  -0.55096  -0.54677  -0.54365
 Alpha  occ. eigenvalues --   -0.53539  -0.53171  -0.52779  -0.52510  -0.52357
 Alpha  occ. eigenvalues --   -0.52136  -0.51727  -0.51332  -0.50305  -0.50301
 Alpha  occ. eigenvalues --   -0.49965  -0.49671  -0.49476  -0.49263  -0.49148
 Alpha  occ. eigenvalues --   -0.48967  -0.48400  -0.48150  -0.47779  -0.47335
 Alpha  occ. eigenvalues --   -0.46883  -0.46506  -0.46381  -0.46029  -0.45544
 Alpha  occ. eigenvalues --   -0.45429  -0.45155  -0.44931  -0.44593  -0.44380
 Alpha  occ. eigenvalues --   -0.43902  -0.43638  -0.43498  -0.43245  -0.42683
 Alpha  occ. eigenvalues --   -0.42532  -0.42000  -0.41592  -0.41515  -0.41326
 Alpha  occ. eigenvalues --   -0.41117  -0.40993  -0.40489  -0.39203  -0.38889
 Alpha  occ. eigenvalues --   -0.38203  -0.37743  -0.37195  -0.36541  -0.36361
 Alpha  occ. eigenvalues --   -0.36188  -0.34239  -0.33887  -0.33137  -0.31452
 Alpha  occ. eigenvalues --   -0.30789  -0.30538  -0.30066  -0.29772  -0.24130
 Alpha  occ. eigenvalues --   -0.21486
 Alpha virt. eigenvalues --   -0.09105  -0.01433   0.00481   0.02474   0.03159
 Alpha virt. eigenvalues --    0.05634   0.05663   0.06394   0.06885   0.08169
 Alpha virt. eigenvalues --    0.08611   0.08810   0.09129   0.10162   0.10617

 Mulliken charges:
               1
     1  Mg   0.849793
     2  C   -0.032508
     3  C   -0.104330
     4  C   -0.040446
     5  C   -0.102967
     6  N   -0.276979
     7  C   -0.073639
     8  C    0.020019
     9  C   -0.112945
    10  C    0.098343
    11  C    0.051547
    12  C    0.081305
    13  C   -0.091578
    14  H    0.011471
    15  N   -0.341479
    16  C    0.146761
    17  C   -0.163375
    18  C   -0.029813
    19  C    0.148890
    20  C    0.116772
    21  C   -0.008346
    22  O   -0.229857
    23  C    0.068411
    24  N   -0.320774
    25  C    0.008050
    26  C   -0.016751
    27  C   -0.037898
    28  C    0.071438
    29  C    0.076341
    30  C    0.018588
    31  C   -0.003773
    32  N   -0.375144
    33  C    0.118508
    34  C   -0.127442
    35  C    0.017199
    36  C    0.159543
    37  C    0.116731
    38  C    0.021782
    39  O   -0.183752
    40  C   -0.013640
    41  C    0.166787
    42  O   -0.220798
    43  O   -0.295157
    44  C    0.174910
    45  H   -0.024847
    46  H   -0.005987
    47  H   -0.029583
    48  H    0.009695
    49  H    0.016844
    50  H    0.020837
    51  H    0.019463
    52  H    0.013207
    53  H    0.015424
    54  H    0.005728
    55  H    0.041359
    56  H    0.035619
    57  H    0.018811
    58  H    0.034017
    59  H    0.033322
    60  H    0.029273
    61  H    0.043631
    62  H    0.024137
    63  H    0.010401
    64  H    0.001450
    65  H    0.018269
    66  H    0.006743
    67  H    0.034652
    68  H    0.004117
    69  H    0.008759
    70  H    0.014742
    71  H    0.027002
    72  H    0.007621
    73  H    0.024882
    74  H    0.030974
    75  H    0.021938
    76  H    0.035910
    77  H    0.024934
    78  H    0.037063
    79  H    0.049797
 Sum of Mulliken charges =  -0.00000

 Dipole moment (field-independent basis, Debye):
    X=             -2.3007    Y=             -2.8510    Z=              2.2823  Tot=              4.3163
 Quadrupole moment (field-independent basis, Debye-Ang):
   XX=           -269.5286   YY=           -221.8478   ZZ=           -261.0712
   XY=            -17.8365   XZ=             -3.5724   YZ=              0.6059

 Normal termination of Gaussian 16 at Wed Sep 15 15:54:12 2021.
