 Gaussian 16, Revision A.03,
 Gaussian 16:  ES64L-G16RevA.03 25-Dec-2016

 -----------------------------------
 #p cam-b3lyp/Def2SVP td=(nstates=5)
 -----------------------------------

 --------------------------------
 TDDFT excited states in gaussian
 --------------------------------
 Symbolic Z-matrix:
 Charge =  0 Multiplicity = 1

                         Standard orientation:
 ---------------------------------------------------------------------
 Center     Atomic      Atomic             Coordinates (Angstroms)
 Number     Number       Type             X           Y           Z
 ---------------------------------------------------------------------
      1         12           0       17.525840   -0.690996    0.085253
      2          6           0       15.752215    2.413387    0.349877
      3          6           0       20.425357    1.046343    0.767886
      4          6           0       19.162863   -3.384933   -0.773855
      5          6           0       14.507444   -2.152372   -0.788872
      6          7           0       18.076477    1.601637    0.246259
      7          6           0       17.140272    2.582188    0.433764
      8          6           0       17.830573    3.857996    0.986212
      9          6           0       19.360057    3.446684    1.068745
     10          6           0       19.348862    1.930558    0.652566
     11          6           0       20.394083    4.252162    0.174771
     12          6           0       17.299941    4.354886    2.357466
     13          6           0       17.050274    5.812263    2.518009
     14          1           0       17.676357    6.911375    1.577178
     15          7           0       19.573050   -1.153999   -0.015062
     16          6           0       20.633635   -0.366361    0.431912
     17          6           0       21.896763   -1.092164    0.197786
     18          6           0       21.507185   -2.442625   -0.149348
     19          6           0       20.039357   -2.376875   -0.338116
     20          6           0       23.278264   -0.539774    0.378163
     21          6           0       22.351165   -3.723464   -0.349322
     22          8           0       21.897735   -4.887374   -0.346814
     23          6           0       23.819041   -3.572976   -0.377004
     24          7           0       16.919468   -2.421729   -0.704708
     25          6           0       17.850364   -3.381047   -1.037715
     26          6           0       17.164128   -4.728548   -1.395141
     27          6           0       15.650168   -4.397946   -1.027009
     28          6           0       15.676733   -2.895319   -0.807158
     29          6           0       17.349584   -5.297062   -2.860974
     30          6           0       15.058499   -5.115058    0.176122
     31          6           0       13.908972   -6.097526   -0.131147
     32          7           0       15.499778   -0.092710    0.007916
     33          6           0       14.390516   -0.797686   -0.395426
     34          6           0       13.214009    0.081496   -0.407318
     35          6           0       13.720066    1.322250   -0.062628
     36          6           0       15.104397    1.175406    0.178121
     37          6           0       11.803825   -0.236066   -0.781277
     38          6           0       13.305286    2.658594    0.171567
     39          8           0       12.162514    3.196946    0.213661
     40          6           0       14.546349    3.401767    0.432769
     41          6           0       14.636267    4.597469   -0.476413
     42          8           0       14.833177    4.558603   -1.642753
     43          8           0       14.531063    5.718665    0.236554
     44          6           0       14.279856    6.950912   -0.430504
     45          1           0       21.390149    1.518955    0.964339
     46          1           0       19.567424   -4.361826   -1.049944
     47          1           0       13.578334   -2.603959   -1.140511
     48          1           0       17.662153    4.633563    0.238145
     49          1           0       19.705279    3.508415    2.100350
     50          1           0       19.993514    5.136434   -0.320129
     51          1           0       20.687389    3.587294   -0.638953
     52          1           0       21.283358    4.503284    0.753692
     53          1           0       17.977199    4.127199    3.181449
     54          1           0       16.340215    3.912674    2.623264
     55          1           0       17.429653    6.145369    3.484514
     56          1           0       15.970481    5.957511    2.501177
     57          1           0       23.845770   -0.678174   -0.541842
     58          1           0       23.741751   -1.130528    1.168289
     59          1           0       23.256656    0.465854    0.799372
     60          1           0       24.068909   -2.961143   -1.243851
     61          1           0       24.206519   -4.572958   -0.570424
     62          1           0       24.218007   -3.263289    0.588544
     63          1           0       17.544582   -5.447049   -0.668413
     64          1           0       15.051859   -4.662765   -1.898731
     65          1           0       17.979445   -4.627508   -3.445604
     66          1           0       16.405097   -5.541992   -3.348340
     67          1           0       17.832506   -6.269891   -2.767459
     68          1           0       14.790812   -4.495040    1.031822
     69          1           0       15.850196   -5.743051    0.583348
     70          1           0       13.043794   -6.068764    0.530926
     71          1           0       14.279194   -7.093276    0.114294
     72          1           0       13.502383   -6.042968   -1.140100
     73          1           0       11.598481   -1.306894   -0.772195
     74          1           0       11.631745    0.008833   -1.829277
     75          1           0       11.171279    0.410045   -0.172694
     76          1           0       14.482156    3.730194    1.469797
     77          1           0       13.233244    6.921811   -0.736850
     78          1           0       14.837511    7.009245   -1.365351
     79          1           0       14.400761    7.797264    0.246162
     80         12           0      -17.341811   -0.813160    0.229901
     81          6           0      -17.671606    2.391165   -1.200396
     82          6           0      -16.470756    0.778655    3.171332
     83          6           0      -16.865893   -3.849478    1.716125
     84          6           0      -17.868440   -2.225123   -2.769815
     85          7           0      -17.131007    1.369654    0.922535
     86          6           0      -17.445473    2.524541    0.216456
     87          6           0      -17.479353    3.720646    1.146483
     88          6           0      -16.739692    3.206819    2.434906
     89          6           0      -16.802012    1.720234    2.164873
     90          6           0      -15.296701    3.799522    2.679313
     91          6           0      -18.904060    4.166750    1.507534
     92          6           0      -19.104476    5.679723    1.645795
     93          1           0      -18.445989    6.407539    2.850682
     94          7           0      -16.842191   -1.456182    2.180937
     95          6           0      -16.495387   -0.611460    3.179269
     96          6           0      -16.080139   -1.384102    4.304654
     97          6           0      -16.301842   -2.775101    4.016551
     98          6           0      -16.628034   -2.735966    2.601933
     99          6           0      -15.566286   -0.747844    5.566287
    100          6           0      -16.100015   -4.036051    4.857081
    101          8           0      -16.512725   -5.153603    4.475899
    102          6           0      -15.320134   -4.033365    6.166983
    103          7           0      -17.453272   -2.735250   -0.407404
    104          6           0      -17.150089   -3.863006    0.349465
    105          6           0      -17.224428   -5.071160   -0.526697
    106          6           0      -17.614364   -4.634909   -1.984742
    107          6           0      -17.703938   -3.119360   -1.743333
    108          6           0      -15.999519   -6.028729   -0.421008
    109          6           0      -18.938271   -5.218893   -2.523618
    110          6           0      -18.746344   -6.473595   -3.397311
    111          7           0      -17.648817   -0.139836   -1.604038
    112          6           0      -17.925446   -0.811761   -2.793875
    113          6           0      -18.233439    0.128286   -3.934593
    114          6           0      -18.095051    1.372802   -3.298853
    115          6           0      -17.802911    1.172473   -1.911422
    116          6           0      -18.585270   -0.253737   -5.360800
    117          6           0      -18.181450    2.799430   -3.572052
    118          8           0      -18.398148    3.409873   -4.619644
    119          6           0      -18.022531    3.495967   -2.154312
    120          6           0      -16.921638    4.557527   -2.346433
    121          8           0      -15.902252    4.431005   -2.992983
    122          8           0      -17.362324    5.758221   -1.793114
    123          6           0      -16.387827    6.841043   -1.928375
    124          1           0      -16.277988    1.312988    4.103749
    125          1           0      -16.747853   -4.868736    2.089196
    126          1           0      -17.906336   -2.754893   -3.723580
    127          1           0      -16.938987    4.594216    0.782647
    128          1           0      -17.247003    3.434947    3.372331
    129          1           0      -14.990449    4.589692    1.993186
    130          1           0      -14.463819    3.100341    2.608725
    131          1           0      -15.237689    4.278567    3.656637
    132          1           0      -19.239134    3.708656    2.437828
    133          1           0      -19.607064    3.882231    0.724377
    134          1           0      -20.158592    5.954952    1.614239
    135          1           0      -18.739767    6.208432    0.765384
    136          1           0      -14.828070   -0.047501    5.175287
    137          1           0      -15.036473   -1.383213    6.275862
    138          1           0      -16.308300   -0.180781    6.127921
    139          1           0      -14.356891   -3.537870    6.044425
    140          1           0      -15.226421   -5.099284    6.374163
    141          1           0      -15.859511   -3.492108    6.944286
    142          1           0      -17.962583   -5.735126   -0.075808
    143          1           0      -16.838473   -4.784680   -2.736624
    144          1           0      -15.277331   -5.568517    0.253694
    145          1           0      -15.541511   -6.122301   -1.405314
    146          1           0      -16.418868   -6.945722   -0.005690
    147          1           0      -19.484840   -4.400878   -2.992366
    148          1           0      -19.546045   -5.616403   -1.710491
    149          1           0      -17.804059   -6.959317   -3.143028
    150          1           0      -18.645563   -6.310914   -4.470542
    151          1           0      -19.545988   -7.174687   -3.156438
    152          1           0      -19.597688   -0.657661   -5.344471
    153          1           0      -17.956929   -1.021460   -5.811907
    154          1           0      -18.546384    0.674361   -5.930861
    155          1           0      -18.916590    3.981943   -1.764143
    156          1           0      -15.678059    6.923577   -1.104707
    157          1           0      -17.006188    7.733685   -2.021784
    158          1           0      -15.707150    6.840775   -2.779699
 ---------------------------------------------------------------------

 SCF Done:  E(RCAM-B3LYP) =  -4069.83879371     A.U. after   17 cycles

 Excitation energies and oscillator strengths:

 Excited State   1:      Singlet-A      1.7014 eV  728.71 nm  f=0.3796  <S**2>=0.000
     310 -> 315       -0.18651
     312 -> 314        0.68378
     310 <- 315       -0.10954
 This state for optimization and/or second-order correction.
 Total Energy, E(TD-HF/TD-DFT) =  -4069.77626785
 Copying the excited state density for this state as the 1-particle RhoCI density.

 Excited State   2:      Singlet-A      1.7200 eV  720.85 nm  f=0.4187  <S**2>=0.000
     309 -> 316        0.17636
     311 -> 313        0.68695
     309 <- 316        0.10597

 Excited State   3:      Singlet-A      2.2103 eV  560.94 nm  f=0.1266  <S**2>=0.000
     309 -> 313        0.65012
     311 -> 316       -0.26631

 Excited State   4:      Singlet-A      2.2323 eV  555.40 nm  f=0.1010  <S**2>=0.000
     310 -> 314        0.63574
     312 -> 315        0.29944

 Excited State   5:      Singlet-A      3.0224 eV  410.21 nm  f=0.0000  <S**2>=0.000
     312 -> 313        0.70709

 The electronic state is 1-A.
 Alpha  occ. eigenvalues --  -46.88921 -46.87627 -19.25738 -19.25010 -19.20386
 Alpha  occ. eigenvalues --  -19.19662 -19.19186 -19.19074 -19.19036 -19.18557
 Alpha  occ. eigenvalues --  -14.42653 -14.42065 -14.41629 -14.41255 -14.39873
 Alpha  occ. eigenvalues --  -14.39705 -14.39568 -14.39460 -10.39660 -10.39056
 Alpha  occ. eigenvalues --  -10.35826 -10.35057 -10.34969 -10.34718 -10.31710
 Alpha  occ. eigenvalues --  -10.31515 -10.31452 -10.31417 -10.31038 -10.30966
 Alpha  occ. eigenvalues --  -10.30852 -10.30723 -10.30706 -10.30558 -10.30305
 Alpha  occ. eigenvalues --  -10.30255 -10.30168 -10.29708 -10.29563 -10.29559
 Alpha  occ. eigenvalues --  -10.29307 -10.29199 -10.29083 -10.28767 -10.28760
 Alpha  occ. eigenvalues --  -10.28722 -10.28717 -10.28692 -10.28605 -10.28536
 Alpha  occ. eigenvalues --  -10.28395 -10.28378 -10.28356 -10.28276 -10.28207
 Alpha  occ. eigenvalues --  -10.28108 -10.27835 -10.27575 -10.27525 -10.27524
 Alpha  occ. eigenvalues --  -10.27350 -10.27196 -10.27183 -10.27064 -10.27045
 Alpha  occ. eigenvalues --  -10.27024 -10.27006 -10.26778 -10.26741 -10.26577
 Alpha  occ. eigenvalues --  -10.26480 -10.26405 -10.26383 -10.26317 -10.26217
 Alpha  occ. eigenvalues --  -10.25988 -10.25968 -10.25925 -10.25902 -10.25672
 Alpha  occ. eigenvalues --  -10.25642 -10.25590 -10.25543 -10.25458 -10.25201
 Alpha  occ. eigenvalues --  -10.25192  -3.17498  -3.16410  -1.92381  -1.91968
 Alpha  occ. eigenvalues --   -1.91798  -1.91308  -1.90841  -1.90754  -1.18629
 Alpha  occ. eigenvalues --   -1.16277  -1.09718  -1.09209  -1.08909  -1.08317
 Alpha  occ. eigenvalues --   -1.08150  -1.08093  -1.04841  -1.04694  -1.03780
 Alpha  occ. eigenvalues --   -1.03646  -1.03053  -1.02541  -1.01795  -1.01436
 Alpha  occ. eigenvalues --   -0.93582  -0.92552  -0.89413  -0.89138  -0.89001
 Alpha  occ. eigenvalues --   -0.88556  -0.88381  -0.88277  -0.87750  -0.87463
 Alpha  occ. eigenvalues --   -0.86994  -0.86892  -0.86297  -0.86126  -0.84565
 Alpha  occ. eigenvalues --   -0.84394  -0.83537  -0.83529  -0.82634  -0.82279
 Alpha  occ. eigenvalues --   -0.82070  -0.81726  -0.81710  -0.80967  -0.80518
 Alpha  occ. eigenvalues --   -0.80065  -0.78435  -0.78312  -0.77721  -0.77448
 Alpha  occ. eigenvalues --   -0.77267  -0.77169  -0.76369  -0.76132  -0.75211
 Alpha  occ. eigenvalues --   -0.75039  -0.73185  -0.72661  -0.71643  -0.71503
 Alpha  occ. eigenvalues --   -0.69412  -0.69365  -0.68985  -0.68798  -0.68167
 Alpha  occ. eigenvalues --   -0.67504  -0.67297  -0.66263  -0.65932  -0.65767
 Alpha  occ. eigenvalues --   -0.65486  -0.64929  -0.64860  -0.64484  -0.64473
 Alpha  occ. eigenvalues --   -0.64143  -0.63041  -0.62556  -0.60354  -0.60344
 Alpha  occ. eigenvalues --   -0.60133  -0.59873  -0.59347  -0.59149  -0.58916
 Alpha  occ. eigenvalues --   -0.58481  -0.58222  -0.57767  -0.57729  -0.57480
 Alpha  occ. eigenvalues --   -0.56504  -0.56120  -0.56002  -0.55432  -0.55188
 Alpha  occ. eigenvalues --   -0.55094  -0.54926  -0.54671  -0.53784  -0.53764
 Alpha  occ. eigenvalues --   -0.53477  -0.53441  -0.53261  -0.53117  -0.53028
 Alpha  occ. eigenvalues --   -0.52861  -0.52806  -0.52549  -0.52416  -0.52132
 Alpha  occ. eigenvalues --   -0.51835  -0.51732  -0.51663  -0.51591  -0.51497
 Alpha  occ. eigenvalues --   -0.51204  -0.51127  -0.50466  -0.50198  -0.50090
 Alpha  occ. eigenvalues --   -0.50046  -0.50024  -0.49893  -0.49777  -0.49349
 Alpha  occ. eigenvalues --   -0.49265  -0.49099  -0.49052  -0.48884  -0.48764
 Alpha  occ. eigenvalues --   -0.48589  -0.48476  -0.48343  -0.48247  -0.48223
 Alpha  occ. eigenvalues --   -0.48066  -0.47718  -0.47601  -0.47425  -0.47383
 Alpha  occ. eigenvalues --   -0.46921  -0.46834  -0.46788  -0.46642  -0.46507
 Alpha  occ. eigenvalues --   -0.46256  -0.46223  -0.46124  -0.46062  -0.45886
 Alpha  occ. eigenvalues --   -0.45816  -0.45497  -0.45292  -0.44903  -0.44797
 Alpha  occ. eigenvalues --   -0.44606  -0.44551  -0.44513  -0.44459  -0.44336
 Alpha  occ. eigenvalues --   -0.44325  -0.43653  -0.43571  -0.43479  -0.43451
 Alpha  occ. eigenvalues --   -0.43167  -0.43043  -0.42994  -0.42696  -0.42666
 Alpha  occ. eigenvalues --   -0.42619  -0.42338  -0.42163  -0.41920  -0.41869
 Alpha  occ. eigenvalues --   -0.41733  -0.41637  -0.41590  -0.41443  -0.41212
 Alpha  occ. eigenvalues --   -0.41182  -0.41034  -0.40976  -0.40432  -0.40279
 Alpha  occ. eigenvalues --   -0.40224  -0.40093  -0.39694  -0.39673  -0.39134
 Alpha  occ. eigenvalues --   -0.38693  -0.38293  -0.38195  -0.37921  -0.37915
 Alpha  occ. eigenvalues --   -0.37244  -0.36958  -0.36854  -0.36617  -0.36539
 Alpha  occ. eigenvalues --   -0.36275  -0.35860  -0.35140  -0.34933  -0.34689
 Alpha  occ. eigenvalues --   -0.34136  -0.32916  -0.32835  -0.31607  -0.31503
 Alpha  occ. eigenvalues --   -0.31451  -0.30956  -0.30921  -0.30771  -0.30609
 Alpha  occ. eigenvalues --   -0.30536  -0.29979  -0.29492  -0.24124  -0.23932
 Alpha  occ. eigenvalues --   -0.21316  -0.21058
 Alpha virt. eigenvalues --   -0.08946  -0.08554  -0.01762  -0.01482  -0.00200
 Alpha virt. eigenvalues --    0.00015   0.01765   0.01919   0.02353   0.03756
 Alpha virt. eigenvalues --    0.04775   0.05050   0.05261   0.05625   0.06106

 Mulliken charges:
               1
     1  Mg   0.831059
     2  C   -0.003488
     3  C   -0.022649
     4  C   -0.061395
     5  C   -0.094157
     6  N   -0.252767
     7  C   -0.054168
     8  C    0.021063
     9  C   -0.061053
    10  C    0.018218
    11  C    0.057385
    12  C    0.048951
    13  C   -0.081518
    14  H    0.000661
    15  N   -0.364190
    16  C    0.090950
    17  C   -0.170504
    18  C   -0.041467
    19  C    0.129271
    20  C    0.140607
    21  C    0.009626
    22  O   -0.229737
    23  C    0.054901
    24  N   -0.351633
    25  C    0.076939
    26  C   -0.074953
    27  C   -0.035827
    28  C    0.084603
    29  C    0.075271
    30  C    0.058354
    31  C   -0.010529
    32  N   -0.321543
    33  C    0.100461
    34  C   -0.161329
    35  C   -0.007605
    36  C    0.104553
    37  C    0.130298
    38  C    0.044988
    39  O   -0.216263
    40  C    0.039321
    41  C    0.154797
    42  O   -0.173599
    43  O   -0.300093
    44  C    0.179694
    45  H   -0.038462
    46  H   -0.005585
    47  H   -0.029168
    48  H    0.021609
    49  H    0.016294
    50  H    0.019330
    51  H    0.019379
    52  H    0.018314
    53  H    0.008889
    54  H    0.007756
    55  H    0.022186
    56  H    0.037171
    57  H    0.036399
    58  H    0.019926
    59  H    0.011624
    60  H    0.032317
    61  H    0.020479
    62  H    0.045019
    63  H    0.021374
    64  H    0.000811
    65  H    0.029720
    66  H    0.014118
    67  H    0.016457
    68  H    0.016378
    69  H   -0.002386
    70  H    0.007253
    71  H    0.010572
    72  H    0.017290
    73  H    0.008810
    74  H    0.034214
    75  H    0.049447
    76  H    0.040216
    77  H    0.029072
    78  H    0.038778
    79  H    0.042892
    80  Mg   0.856983
    81  C   -0.058731
    82  C   -0.109463
    83  C   -0.071422
    84  C   -0.087090
    85  N   -0.241850
    86  C   -0.014015
    87  C    0.014366
    88  C   -0.051423
    89  C   -0.006666
    90  C    0.052921
    91  C    0.064880
    92  C   -0.070540
    93  H    0.002383
    94  N   -0.342954
    95  C    0.211703
    96  C   -0.159411
    97  C   -0.006401
    98  C    0.104312
    99  C    0.108364
   100  C    0.005847
   101  O   -0.228262
   102  C    0.038020
   103  N   -0.379047
   104  C    0.084282
   105  C   -0.051018
   106  C   -0.001764
   107  C    0.029949
   108  C    0.063120
   109  C    0.045027
   110  C   -0.000572
   111  N   -0.392753
   112  C    0.133068
   113  C   -0.159675
   114  C   -0.023293
   115  C    0.156278
   116  C    0.124929
   117  C    0.083863
   118  O   -0.172875
   119  C   -0.034182
   120  C    0.197921
   121  O   -0.193084
   122  O   -0.339695
   123  C    0.167124
   124  H   -0.033787
   125  H   -0.011002
   126  H   -0.037305
   127  H    0.007812
   128  H    0.014668
   129  H    0.013097
   130  H    0.020488
   131  H    0.012821
   132  H    0.016712
   133  H    0.011981
   134  H    0.024768
   135  H    0.028587
   136  H    0.025027
   137  H    0.003808
   138  H    0.034937
   139  H    0.040312
   140  H    0.037928
   141  H    0.041706
   142  H    0.016548
   143  H    0.017696
   144  H    0.022131
   145  H    0.012479
   146  H    0.021675
   147  H    0.012877
   148  H    0.003381
   149  H    0.004436
   150  H    0.019157
   151  H    0.018438
   152  H    0.027651
   153  H    0.026025
   154  H    0.042305
   155  H    0.042736
   156  H    0.025767
   157  H    0.037225
   158  H    0.047765
 Sum of Mulliken charges =  -0.00000

 Dipole moment (field-independent basis, Debye):
    X=              2.3814    Y=              0.3940    Z=              6.1073  Tot=              6.5670
 Quadrupole moment (field-independent basis, Debye-Ang):
   XX=           -457.8749   YY=           -498.1854   ZZ=           -514.9637
   XY=             32.5223   XZ=            -21.8897   YZ=             47.7427

 Normal termination of Gaussian 16 at Thu Sep  2 18:46:40 2021.
