 Gaussian 16, Revision A.03,
 Gaussian 16:  ES64L-G16RevA.03 25-Dec-2016

 ----------------------------------------------------------
 #p cam-b3lyp/Def2SVP td=(nstates=5) density=(transition=1)
 ----------------------------------------------------------

 --------------------------------
 TDDFT excited states in gaussian
 --------------------------------
 Symbolic Z-matrix:
 Charge =  0 Multiplicity = 1

                         Standard orientation:
 ---------------------------------------------------------------------
 Center     Atomic      Atomic             Coordinates (Angstroms)
 Number     Number       Type             X           Y           Z
 ---------------------------------------------------------------------
      1         12           0      -29.764479    0.575977    0.443918
      2          6           0      -28.410211   -2.350664   -0.763150
      3          6           0      -26.670394    2.008123    0.244203
      4          6           0      -31.286464    3.506707    0.359654
      5          6           0      -32.878720   -1.042318    0.544456
      6          7           0      -27.890020   -0.029478   -0.644606
      7          6           0      -27.505661   -1.319051   -0.827042
      8          6           0      -26.046189   -1.449759   -1.148404
      9          6           0      -25.496519   -0.184892   -0.412862
     10          6           0      -26.762394    0.627239   -0.182434
     11          6           0      -24.684076   -0.529544    0.868216
     12          6           0      -25.762440   -1.380915   -2.732288
     13          6           0      -24.563216   -2.300189   -3.255060
     14          1           0      -23.530061   -1.400551   -3.886947
     15          7           0      -29.045098    2.491757    0.518241
     16          6           0      -27.779279    2.930882    0.343800
     17          6           0      -27.729962    4.387111    0.377766
     18          6           0      -29.065749    4.833681    0.444658
     19          6           0      -29.867247    3.577724    0.437591
     20          6           0      -26.385211    5.146212    0.269676
     21          6           0      -29.451652    6.278848    0.294793
     22          8           0      -28.591825    7.114700    0.193343
     23          6           0      -30.901035    6.794039    0.208403
     24          7           0      -31.820638    1.206714    0.582316
     25          6           0      -32.155012    2.417809    0.509815
     26          6           0      -33.622584    2.622284    0.427803
     27          6           0      -34.175832    1.144981    0.501561
     28          6           0      -32.923753    0.381918    0.543717
     29          6           0      -34.130246    3.626021    1.517578
     30          6           0      -35.077873    0.777092   -0.765977
     31          6           0      -36.045620   -0.452259   -0.633766
     32          7           0      -30.534773   -1.303978    0.080882
     33          6           0      -31.799763   -1.830458    0.269374
     34          6           0      -31.790335   -3.253055    0.069155
     35          6           0      -30.426922   -3.525279   -0.301429
     36          6           0      -29.761195   -2.317170   -0.378158
     37          6           0      -32.930879   -4.207943    0.216455
     38          6           0      -29.522586   -4.573342   -0.627619
     39          8           0      -29.612915   -5.801748   -0.749735
     40          6           0      -28.232909   -3.842247   -1.127873
     41          6           0      -27.074527   -4.547638   -0.505171
     42          8           0      -26.431859   -5.461764   -1.040484
     43          8           0      -26.869749   -4.072433    0.760751
     44          6           0      -25.741878   -4.821632    1.382420
     45          1           0      -25.713565    2.524231    0.350606
     46          1           0      -31.760732    4.485778    0.271169
     47          1           0      -33.861552   -1.509598    0.446157
     48          1           0      -25.745657   -2.360882   -0.632612
     49          1           0      -24.784772    0.322737   -1.064093
     50          1           0      -23.649369   -0.215928    0.732963
     51          1           0      -24.660605   -1.616812    0.948652
     52          1           0      -25.202150   -0.079783    1.714642
     53          1           0      -25.650187   -0.384479   -3.159357
     54          1           0      -26.638664   -1.714730   -3.287143
     55          1           0      -25.013851   -2.894531   -4.050051
     56          1           0      -24.108880   -3.030507   -2.585399
     57          1           0      -26.313011    5.835384   -0.571628
     58          1           0      -25.508207    4.498048    0.260705
     59          1           0      -26.261487    5.696879    1.201582
     60          1           0      -31.474001    6.622131    1.119002
     61          1           0      -31.454180    6.405624   -0.647107
     62          1           0      -30.799920    7.843276   -0.070713
     63          1           0      -33.761653    3.019726   -0.577495
     64          1           0      -34.698515    0.831053    1.404765
     65          1           0      -34.611848    4.447833    0.988140
     66          1           0      -33.317967    3.987354    2.148504
     67          1           0      -34.984741    3.267124    2.091067
     68          1           0      -34.443936    0.583816   -1.631607
     69          1           0      -35.655557    1.676491   -0.974122
     70          1           0      -37.122874   -0.335878   -0.749217
     71          1           0      -35.975250   -0.887781    0.362026
     72          1           0      -35.765849   -1.229149   -1.345312
     73          1           0      -33.844908   -3.813479    0.659926
     74          1           0      -32.446683   -4.960425    0.837586
     75          1           0      -32.994495   -4.578794   -0.806623
     76          1           0      -28.123749   -3.816650   -2.212617
     77          1           0      -26.054958   -5.846468    1.579340
     78          1           0      -25.518517   -4.483844    2.394427
     79          1           0      -24.880418   -4.727136    0.720986
     80         12           0       30.161042    0.151132   -0.272599
     81          6           0       28.122247   -1.805378    1.785926
     82          6           0       29.812514    2.716950    2.008155
     83          6           0       31.532505    2.304197   -2.538534
     84          6           0       29.865643   -2.265737   -2.735213
     85          7           0       29.168968    0.334783    1.668763
     86          6           0       28.598094   -0.642599    2.384404
     87          6           0       28.334603   -0.290437    3.855779
     88          6           0       28.709462    1.240996    3.880261
     89          6           0       29.386592    1.479331    2.417450
     90          6           0       27.569284    2.243365    4.161234
     91          6           0       29.107253   -1.141848    4.863468
     92          6           0       28.409335   -1.248286    6.231554
     93          1           0       27.083744   -0.507766    6.458130
     94          7           0       30.718313    2.182655   -0.250941
     95          6           0       30.548208    3.079196    0.829174
     96          6           0       31.127866    4.354291    0.457483
     97          6           0       31.584699    4.275138   -0.910858
     98          6           0       31.326469    2.885719   -1.285660
     99          6           0       31.258579    5.467670    1.460067
    100          6           0       32.367079    5.339158   -1.804218
    101          8           0       32.819935    5.095538   -2.896309
    102          6           0       32.513827    6.726933   -1.218895
    103          7           0       30.540653    0.070497   -2.343265
    104          6           0       31.147114    1.057717   -3.063469
    105          6           0       31.412609    0.631363   -4.554250
    106          6           0       30.936736   -0.820334   -4.537160
    107          6           0       30.414646   -1.006213   -3.124898
    108          6           0       30.884808    1.497058   -5.768419
    109          6           0       32.092828   -1.792899   -4.868645
    110          6           0       33.068671   -2.203548   -3.743700
    111          7           0       29.334037   -1.763290   -0.469789
    112          6           0       29.288357   -2.634978   -1.526786
    113          6           0       28.598621   -3.832119   -1.179731
    114          6           0       28.087498   -3.557908    0.167772
    115          6           0       28.534098   -2.337694    0.497175
    116          6           0       28.359584   -5.069539   -1.925719
    117          6           0       27.215713   -4.030272    1.234470
    118          8           0       26.654276   -5.121788    1.376580
    119          6           0       27.188866   -2.938549    2.344438
    120          6           0       25.829020   -2.483642    2.615549
    121          8           0       25.179633   -1.700171    1.930924
    122          8           0       25.296549   -3.238247    3.630616
    123          6           0       23.833781   -3.278530    3.822354
    124          1           0       29.627589    3.475448    2.771931
    125          1           0       32.134061    2.922355   -3.208165
    126          1           0       29.853041   -3.069266   -3.474509
    127          1           0       27.269439   -0.299664    4.085844
    128          1           0       29.556811    1.468714    4.525993
    129          1           0       28.006104    2.806455    4.985797
    130          1           0       26.666985    1.721534    4.479166
    131          1           0       27.353882    2.836296    3.272255
    132          1           0       30.125345   -0.782323    5.007946
    133          1           0       29.226158   -2.157048    4.483930
    134          1           0       29.192605   -0.861406    6.883737
    135          1           0       28.301923   -2.284915    6.554058
    136          1           0       30.676945    5.148585    2.325006
    137          1           0       30.867949    6.386866    1.022984
    138          1           0       32.292744    5.666103    1.745514
    139          1           0       31.629227    7.364600   -1.223857
    140          1           0       33.348698    7.212037   -1.724616
    141          1           0       32.811790    6.504468   -0.194343
    142          1           0       32.498518    0.712941   -4.595838
    143          1           0       30.144875   -0.891175   -5.281966
    144          1           0       30.367573    0.929679   -6.541244
    145          1           0       31.747299    1.938219   -6.266996
    146          1           0       30.283138    2.308387   -5.357656
    147          1           0       32.636506   -1.322155   -5.686844
    148          1           0       31.599978   -2.674968   -5.278545
    149          1           0       34.049927   -2.187759   -4.217344
    150          1           0       32.908771   -3.219210   -3.382541
    151          1           0       33.004664   -1.589140   -2.846335
    152          1           0       28.498752   -5.901498   -1.236257
    153          1           0       28.988988   -5.220422   -2.802804
    154          1           0       27.300185   -5.158258   -2.167031
    155          1           0       27.647681   -3.427341    3.203768
    156          1           0       23.309230   -2.619345    3.129800
    157          1           0       23.623313   -2.925623    4.832238
    158          1           0       23.633870   -4.334434    3.643565
 ---------------------------------------------------------------------

 SCF Done:  E(RCAM-B3LYP) =  -4069.81228722     A.U. after   19 cycles

 Excitation energies and oscillator strengths:

 Excited State   1:      Singlet-A      1.6890 eV  734.06 nm  f=0.3565  <S**2>=0.000
     309 -> 315        0.16437
     312 -> 314        0.68793
     309 <- 315        0.10173
 This state for optimization and/or second-order correction.
 Total Energy, E(TD-HF/TD-DFT) =  -4069.75021696
 Copying the excited state density for this state as the 1-particle RhoCI density.

 Excited State   2:      Singlet-A      1.7177 eV  721.80 nm  f=0.4142  <S**2>=0.000
     310 -> 316        0.18152
     311 -> 313        0.68398
     310 <- 316        0.10677

 Excited State   3:      Singlet-A      2.1355 eV  580.60 nm  f=0.1576  <S**2>=0.000
     310 -> 313        0.65932
     311 -> 316       -0.23565

 Excited State   4:      Singlet-A      2.2121 eV  560.48 nm  f=0.1067  <S**2>=0.000
     309 -> 314        0.64121
     312 -> 315       -0.27963

 Excited State   5:      Singlet-A      3.1778 eV  390.15 nm  f=0.0000  <S**2>=0.000
     312 -> 313        0.70711

 The electronic state is 1-A.
 Alpha  occ. eigenvalues --  -46.89216 -46.88234 -19.25553 -19.23865 -19.19935
 Alpha  occ. eigenvalues --  -19.19516 -19.19034 -19.18977 -19.18696 -19.17892
 Alpha  occ. eigenvalues --  -14.42270 -14.42106 -14.41900 -14.41883 -14.40304
 Alpha  occ. eigenvalues --  -14.39421 -14.38582 -14.38154 -10.38674 -10.38653
 Alpha  occ. eigenvalues --  -10.36178 -10.35750 -10.35076 -10.34064 -10.32309
 Alpha  occ. eigenvalues --  -10.31705 -10.31703 -10.31159 -10.30976 -10.30876
 Alpha  occ. eigenvalues --  -10.30870 -10.30701 -10.30675 -10.30663 -10.30309
 Alpha  occ. eigenvalues --  -10.30246 -10.29962 -10.29862 -10.29366 -10.28866
 Alpha  occ. eigenvalues --  -10.28844 -10.28775 -10.28567 -10.28384 -10.28383
 Alpha  occ. eigenvalues --  -10.28263 -10.28205 -10.28155 -10.28144 -10.28102
 Alpha  occ. eigenvalues --  -10.28032 -10.27842 -10.27771 -10.27767 -10.27680
 Alpha  occ. eigenvalues --  -10.27653 -10.27578 -10.27566 -10.27565 -10.27561
 Alpha  occ. eigenvalues --  -10.27426 -10.27413 -10.27253 -10.27161 -10.27116
 Alpha  occ. eigenvalues --  -10.26993 -10.26989 -10.26939 -10.26904 -10.26663
 Alpha  occ. eigenvalues --  -10.26650 -10.26607 -10.26582 -10.26577 -10.26336
 Alpha  occ. eigenvalues --  -10.26314 -10.26272 -10.26213 -10.26210 -10.25974
 Alpha  occ. eigenvalues --  -10.25909 -10.25840 -10.25789 -10.25462 -10.24749
 Alpha  occ. eigenvalues --  -10.24426  -3.17789  -3.16759  -1.92677  -1.92258
 Alpha  occ. eigenvalues --   -1.92080  -1.91660  -1.91212  -1.91066  -1.15941
 Alpha  occ. eigenvalues --   -1.15081  -1.11951  -1.11573  -1.08857  -1.08098
 Alpha  occ. eigenvalues --   -1.07045  -1.06635  -1.06419  -1.04584  -1.04441
 Alpha  occ. eigenvalues --   -1.03930  -1.03319  -1.02821  -1.02438  -1.01012
 Alpha  occ. eigenvalues --   -0.92491  -0.92066  -0.89725  -0.89173  -0.88800
 Alpha  occ. eigenvalues --   -0.88683  -0.88252  -0.88131  -0.87293  -0.87087
 Alpha  occ. eigenvalues --   -0.86871  -0.86622  -0.86450  -0.86079  -0.84293
 Alpha  occ. eigenvalues --   -0.84193  -0.83798  -0.83430  -0.82331  -0.82270
 Alpha  occ. eigenvalues --   -0.81957  -0.81822  -0.80992  -0.80908  -0.80338
 Alpha  occ. eigenvalues --   -0.80163  -0.78418  -0.78119  -0.77835  -0.77131
 Alpha  occ. eigenvalues --   -0.76831  -0.76800  -0.75965  -0.75893  -0.75485
 Alpha  occ. eigenvalues --   -0.75005  -0.72684  -0.72424  -0.72215  -0.71085
 Alpha  occ. eigenvalues --   -0.70481  -0.69811  -0.69307  -0.68440  -0.68145
 Alpha  occ. eigenvalues --   -0.67741  -0.67679  -0.66817  -0.66070  -0.65352
 Alpha  occ. eigenvalues --   -0.64845  -0.64758  -0.64694  -0.64454  -0.64434
 Alpha  occ. eigenvalues --   -0.63718  -0.62412  -0.61393  -0.60510  -0.59764
 Alpha  occ. eigenvalues --   -0.59616  -0.59177  -0.59084  -0.59075  -0.58795
 Alpha  occ. eigenvalues --   -0.58309  -0.57970  -0.57660  -0.57402  -0.56990
 Alpha  occ. eigenvalues --   -0.56684  -0.56203  -0.55848  -0.55664  -0.55429
 Alpha  occ. eigenvalues --   -0.55163  -0.55035  -0.54654  -0.54135  -0.53698
 Alpha  occ. eigenvalues --   -0.53582  -0.53341  -0.52940  -0.52860  -0.52672
 Alpha  occ. eigenvalues --   -0.52655  -0.52383  -0.52319  -0.52126  -0.51969
 Alpha  occ. eigenvalues --   -0.51968  -0.51695  -0.51603  -0.51226  -0.51178
 Alpha  occ. eigenvalues --   -0.50795  -0.50643  -0.50629  -0.50403  -0.50216
 Alpha  occ. eigenvalues --   -0.50205  -0.49910  -0.49683  -0.49662  -0.49575
 Alpha  occ. eigenvalues --   -0.49359  -0.49134  -0.49052  -0.48994  -0.48933
 Alpha  occ. eigenvalues --   -0.48617  -0.48534  -0.48333  -0.48223  -0.48121
 Alpha  occ. eigenvalues --   -0.47763  -0.47672  -0.47615  -0.47399  -0.47105
 Alpha  occ. eigenvalues --   -0.46917  -0.46806  -0.46739  -0.46277  -0.46248
 Alpha  occ. eigenvalues --   -0.46216  -0.46117  -0.45821  -0.45818  -0.45804
 Alpha  occ. eigenvalues --   -0.45638  -0.45370  -0.45239  -0.45097  -0.45020
 Alpha  occ. eigenvalues --   -0.44658  -0.44634  -0.44408  -0.44291  -0.44259
 Alpha  occ. eigenvalues --   -0.44201  -0.43975  -0.43959  -0.43633  -0.43398
 Alpha  occ. eigenvalues --   -0.43369  -0.43178  -0.43156  -0.43048  -0.42911
 Alpha  occ. eigenvalues --   -0.42781  -0.42666  -0.42599  -0.42355  -0.42177
 Alpha  occ. eigenvalues --   -0.41955  -0.41920  -0.41890  -0.41491  -0.41446
 Alpha  occ. eigenvalues --   -0.41153  -0.41089  -0.40877  -0.40758  -0.40605
 Alpha  occ. eigenvalues --   -0.40222  -0.40063  -0.39906  -0.39612  -0.38613
 Alpha  occ. eigenvalues --   -0.38507  -0.38383  -0.38277  -0.37833  -0.37700
 Alpha  occ. eigenvalues --   -0.37680  -0.36805  -0.36698  -0.36619  -0.36479
 Alpha  occ. eigenvalues --   -0.36113  -0.35664  -0.34958  -0.34311  -0.33792
 Alpha  occ. eigenvalues --   -0.33589  -0.33376  -0.33266  -0.31901  -0.31595
 Alpha  occ. eigenvalues --   -0.31372  -0.30874  -0.30808  -0.30589  -0.30043
 Alpha  occ. eigenvalues --   -0.29596  -0.28950  -0.28645  -0.24175  -0.23504
 Alpha  occ. eigenvalues --   -0.21308  -0.21154
 Alpha virt. eigenvalues --   -0.08904  -0.08790  -0.01792  -0.01303   0.00214
 Alpha virt. eigenvalues --    0.00612   0.01673   0.02369   0.02501   0.02619
 Alpha virt. eigenvalues --    0.04632   0.05150   0.05341   0.05815   0.06011

 Mulliken charges:
               1
     1  Mg  12.000340
     2  C    6.017678
     3  C    5.985299
     4  C    5.976295
     5  C    6.006439
     6  N    7.008292
     7  C    5.963429
     8  C    6.011157
     9  C    5.985038
    10  C    6.034389
    11  C    5.996639
    12  C    5.999198
    13  C    6.002122
    14  H    0.990740
    15  N    6.990097
    16  C    6.043847
    17  C    6.021698
    18  C    6.014029
    19  C    6.039262
    20  C    5.994435
    21  C    6.008116
    22  O    8.018595
    23  C    5.997768
    24  N    6.999060
    25  C    6.034591
    26  C    5.989934
    27  C    6.010882
    28  C    5.966252
    29  C    5.997004
    30  C    6.007512
    31  C    6.001240
    32  N    7.001545
    33  C    5.967453
    34  C    5.967040
    35  C    5.999882
    36  C    5.971440
    37  C    6.001375
    38  C    5.985023
    39  O    7.969750
    40  C    6.000894
    41  C    5.995717
    42  O    7.993164
    43  O    8.001262
    44  C    6.001334
    45  H    1.010334
    46  H    1.005854
    47  H    0.991021
    48  H    1.002900
    49  H    1.006126
    50  H    1.003935
    51  H    1.016348
    52  H    0.999615
    53  H    0.988312
    54  H    1.005413
    55  H    1.002297
    56  H    1.000521
    57  H    1.019307
    58  H    1.019242
    59  H    1.018845
    60  H    1.010796
    61  H    1.011355
    62  H    1.011358
    63  H    0.999167
    64  H    0.998786
    65  H    1.000766
    66  H    0.994304
    67  H    1.010104
    68  H    0.997170
    69  H    0.987099
    70  H    0.993796
    71  H    1.001772
    72  H    1.004090
    73  H    0.980263
    74  H    0.982665
    75  H    0.980486
    76  H    0.991373
    77  H    1.000219
    78  H    0.993312
    79  H    0.993797
    80  Mg  12.000013
    81  C    5.999977
    82  C    6.000001
    83  C    6.000067
    84  C    6.000046
    85  N    7.000000
    86  C    6.000064
    87  C    5.999970
    88  C    6.000002
    89  C    5.999926
    90  C    6.000016
    91  C    5.999987
    92  C    5.999992
    93  H    0.999997
    94  N    6.999986
    95  C    5.999875
    96  C    5.999934
    97  C    5.999905
    98  C    5.999880
    99  C    6.000036
   100  C    5.999936
   101  O    7.999902
   102  C    6.000020
   103  N    7.000016
   104  C    5.999895
   105  C    6.000040
   106  C    5.999964
   107  C    6.000079
   108  C    5.999992
   109  C    5.999974
   110  C    5.999970
   111  N    7.000026
   112  C    6.000095
   113  C    6.000119
   114  C    6.000002
   115  C    6.000088
   116  C    5.999956
   117  C    6.000070
   118  O    8.000117
   119  C    5.999990
   120  C    6.000022
   121  O    8.000012
   122  O    8.000005
   123  C    5.999998
   124  H    0.999958
   125  H    0.999979
   126  H    1.000044
   127  H    0.999996
   128  H    1.000008
   129  H    0.999987
   130  H    0.999936
   131  H    0.999997
   132  H    1.000043
   133  H    0.999978
   134  H    1.000023
   135  H    1.000004
   136  H    0.999918
   137  H    0.999902
   138  H    0.999916
   139  H    0.999941
   140  H    0.999942
   141  H    0.999995
   142  H    1.000010
   143  H    1.000015
   144  H    0.999959
   145  H    1.000003
   146  H    1.000003
   147  H    1.000054
   148  H    1.000000
   149  H    1.000048
   150  H    0.999988
   151  H    1.000022
   152  H    1.000103
   153  H    1.000096
   154  H    1.000107
   155  H    1.000036
   156  H    0.999995
   157  H    1.000016
   158  H    1.000016
 Sum of Mulliken charges = 624.00000

 Dipole moment (field-independent basis, Debye):
    X=              3.8689    Y=              9.7799    Z=              0.8437  Tot=             10.5512
 Quadrupole moment (field-independent basis, Debye-Ang):
   XX=           -233.5057   YY=             10.7267   ZZ=             -0.7782
   XY=           -290.5532   XZ=            -23.3626   YZ=              1.2925

 Normal termination of Gaussian 16 at Thu Sep 23 04:18:24 2021.
