 Gaussian 16, Revision A.03,
 Gaussian 16:  ES64L-G16RevA.03 25-Dec-2016

 ----------------------------------------------------------
 #p cam-b3lyp/Def2SVP td=(nstates=5) density=(transition=1)
 ----------------------------------------------------------

 --------------------------------
 TDDFT excited states in gaussian
 --------------------------------
 Symbolic Z-matrix:
 Charge =  0 Multiplicity = 1

                         Standard orientation:
 ---------------------------------------------------------------------
 Center     Atomic      Atomic             Coordinates (Angstroms)
 Number     Number       Type             X           Y           Z
 ---------------------------------------------------------------------
      1         12           0       20.253472    0.140477    0.536347
      2          6           0       17.605054   -1.668273   -1.238957
      3          6           0       20.484022    2.169598   -2.310660
      4          6           0       22.847840    1.572776    1.894786
      5          6           0       19.726532   -1.850787    3.278450
      6          7           0       19.329901    0.108749   -1.582524
      7          6           0       18.170538   -0.632828   -2.062985
      8          6           0       17.756238   -0.274401   -3.506280
      9          6           0       18.899435    0.850130   -3.836484
     10          6           0       19.659358    1.082071   -2.515770
     11          6           0       19.811405    0.475293   -4.988490
     12          6           0       16.266210    0.180752   -3.552917
     13          6           0       15.833733    0.833468   -4.831358
     14          1           0       14.507120    0.459555   -5.454220
     15          7           0       21.547576    1.669666   -0.110306
     16          6           0       21.484046    2.394142   -1.306000
     17          6           0       22.535431    3.409523   -1.322632
     18          6           0       23.259176    3.260521   -0.069267
     19          6           0       22.579257    2.131994    0.667782
     20          6           0       22.731152    4.486479   -2.451945
     21          6           0       24.456951    3.960308    0.464232
     22          8           0       24.955992    3.758544    1.563322
     23          6           0       25.063706    5.066442   -0.295167
     24          7           0       21.079621   -0.029161    2.311656
     25          6           0       22.227736    0.573527    2.626140
     26          6           0       22.719615    0.217039    4.048565
     27          6           0       21.505050   -0.497200    4.604202
     28          6           0       20.715105   -0.893545    3.297097
     29          6           0       23.974798   -0.647849    4.052554
     30          6           0       20.573031    0.131711    5.607315
     31          6           0       19.844671    1.357071    5.097893
     32          7           0       19.029940   -1.494899    0.944108
     33          6           0       18.868107   -2.143108    2.181884
     34          6           0       17.858476   -3.163789    2.045093
     35          6           0       17.338802   -2.910168    0.749649
     36          6           0       18.080351   -1.902672    0.103660
     37          6           0       17.331030   -4.106272    3.087241
     38          6           0       16.235951   -3.361411   -0.154348
     39          8           0       15.282326   -4.143854    0.045460
     40          6           0       16.424315   -2.583688   -1.454960
     41          6           0       16.552169   -3.553758   -2.631367
     42          8           0       17.441565   -4.418870   -2.885204
     43          8           0       15.564586   -3.234586   -3.515771
     44          6           0       15.559253   -4.006550   -4.779060
     45          1           0       20.415259    2.916704   -3.102878
     46          1           0       23.751134    1.993521    2.341319
     47          1           0       19.521430   -2.537591    4.102416
     48          1           0       17.803798   -1.214873   -4.055156
     49          1           0       18.409899    1.809820   -4.002290
     50          1           0       19.736276    1.248053   -5.754073
     51          1           0       19.429229   -0.463654   -5.387438
     52          1           0       20.815745    0.129493   -4.744858
     53          1           0       16.113243    0.766551   -2.645864
     54          1           0       15.633638   -0.694541   -3.404706
     55          1           0       16.474735    0.691523   -5.701150
     56          1           0       15.694278    1.900110   -4.657860
     57          1           0       22.574766    5.441999   -1.950484
     58          1           0       22.012034    4.397687   -3.266104
     59          1           0       23.754204    4.367158   -2.808862
     60          1           0       25.160808    4.867544   -1.362658
     61          1           0       26.053254    5.166296    0.149455
     62          1           0       24.319443    5.859811   -0.233401
     63          1           0       22.949931    1.157337    4.549586
     64          1           0       21.774884   -1.407400    5.140504
     65          1           0       24.630757   -0.299106    4.849338
     66          1           0       24.509629   -0.572210    3.106404
     67          1           0       23.729681   -1.665838    4.357532
     68          1           0       21.139033    0.311321    6.521776
     69          1           0       19.732313   -0.526804    5.824978
     70          1           0       19.865081    2.173585    5.818756
     71          1           0       18.781809    1.177859    4.934158
     72          1           0       20.252712    1.771748    4.176045
     73          1           0       16.244393   -4.034971    3.127684
     74          1           0       17.664269   -4.035412    4.122602
     75          1           0       17.600882   -5.112645    2.766412
     76          1           0       15.510538   -2.020728   -1.647319
     77          1           0       16.010988   -3.413815   -5.574215
     78          1           0       14.488833   -4.200092   -4.848798
     79          1           0       16.014480   -4.991496   -4.667715
     80         12           0      -19.886092   -0.533838   -0.302444
     81          6           0      -19.274038    2.862384   -0.445614
     82          6           0      -16.482653   -1.050355   -0.314257
     83          6           0      -20.462590   -3.837938    0.439028
     84          6           0      -23.272796    0.071636   -0.180679
     85          7           0      -18.103509    0.746960   -0.169868
     86          6           0      -18.125173    2.119871   -0.317280
     87          6           0      -16.718411    2.711690   -0.341409
     88          6           0      -15.856265    1.429502   -0.642778
     89          6           0      -16.849882    0.324657   -0.314705
     90          6           0      -15.163416    1.332168   -2.076903
     91          6           0      -16.285954    3.527059    0.918788
     92          6           0      -15.588326    4.842378    0.643440
     93          1           0      -14.117013    4.802121    1.026088
     94          7           0      -18.633726   -2.159774    0.023007
     95          6           0      -17.298114   -2.178792   -0.050936
     96          6           0      -16.791036   -3.528886    0.123242
     97          6           0      -17.836196   -4.408646    0.350450
     98          6           0      -19.055234   -3.491053    0.332870
     99          6           0      -15.224480   -3.865863    0.143728
    100          6           0      -17.745981   -5.964614    0.503137
    101          8           0      -16.604861   -6.507236    0.507372
    102          6           0      -18.950131   -6.805306    0.692558
    103          7           0      -21.663134   -1.731788    0.334449
    104          6           0      -21.660891   -3.043215    0.401777
    105          6           0      -23.052141   -3.637706    0.335169
    106          6           0      -24.047334   -2.432991    0.226400
    107          6           0      -22.966110   -1.264172    0.036969
    108          6           0      -23.325671   -4.888290   -0.560056
    109          6           0      -25.040269   -2.120337    1.383203
    110          6           0      -26.182132   -1.221423    0.956012
    111          7           0      -21.072478    1.158084   -0.299319
    112          6           0      -22.482474    1.260799   -0.331281
    113          6           0      -22.819055    2.647205   -0.507491
    114          6           0      -21.590277    3.345813   -0.595622
    115          6           0      -20.605039    2.378462   -0.418092
    116          6           0      -24.197837    3.213252   -0.813070
    117          6           0      -21.069634    4.606365   -0.793239
    118          8           0      -21.519329    5.717189   -0.870118
    119          6           0      -19.485397    4.389121   -0.557051
    120          6           0      -19.253795    4.898728    0.864642
    121          8           0      -19.484676    4.281187    1.886365
    122          8           0      -18.757528    6.187286    0.750166
    123          6           0      -18.565596    6.910032    2.003339
    124          1           0      -15.436947   -1.293013   -0.513619
    125          1           0      -20.573806   -4.901429    0.659142
    126          1           0      -24.307920    0.400056   -0.295081
    127          1           0      -16.647576    3.345717   -1.224729
    128          1           0      -15.149062    1.331311    0.181630
    129          1           0      -15.035507    0.255055   -2.183902
    130          1           0      -14.138776    1.703654   -2.105699
    131          1           0      -15.702776    1.772983   -2.915167
    132          1           0      -15.609139    2.844631    1.433304
    133          1           0      -17.026359    3.644053    1.709856
    134          1           0      -16.114831    5.611672    1.208773
    135          1           0      -15.616665    5.117482   -0.411077
    136          1           0      -14.562345   -3.004035    0.050396
    137          1           0      -14.974241   -4.569063   -0.651323
    138          1           0      -14.883597   -4.255802    1.101814
    139          1           0      -19.615265   -6.685582   -0.162058
    140          1           0      -19.389697   -6.661218    1.679622
    141          1           0      -18.588681   -7.819159    0.525182
    142          1           0      -23.438855   -4.034748    1.273964
    143          1           0      -24.515002   -2.365347   -0.756132
    144          1           0      -22.344463   -5.272690   -0.841960
    145          1           0      -24.006613   -4.696375   -1.390064
    146          1           0      -23.809766   -5.714383   -0.038969
    147          1           0      -24.436859   -1.712601    2.194107
    148          1           0      -25.367613   -3.101861    1.725917
    149          1           0      -27.051839   -1.489986    1.556186
    150          1           0      -26.475437   -1.304743   -0.091144
    151          1           0      -25.956172   -0.197007    1.252118
    152          1           0      -24.188843    4.262535   -1.108210
    153          1           0      -24.819707    3.057210    0.067470
    154          1           0      -24.679530    2.665481   -1.623100
    155          1           0      -18.898249    4.844101   -1.355360
    156          1           0      -19.533244    7.082139    2.474942
    157          1           0      -18.015080    7.838518    1.855767
    158          1           0      -18.010839    6.283537    2.701232
 ---------------------------------------------------------------------

 SCF Done:  E(RCAM-B3LYP) =  -4069.81985047     A.U. after   19 cycles

 Excitation energies and oscillator strengths:

 Excited State   1:      Singlet-A      1.6630 eV  745.54 nm  f=0.3993  <S**2>=0.000
     309 -> 316        0.16582
     311 -> 313        0.68886
     309 <- 316        0.10534
 This state for optimization and/or second-order correction.
 Total Energy, E(TD-HF/TD-DFT) =  -4069.75873596
 Copying the excited state density for this state as the 1-particle RhoCI density.

 Excited State   2:      Singlet-A      1.8655 eV  664.62 nm  f=0.3723  <S**2>=0.000
     310 -> 315        0.14283
     312 -> 314        0.68807

 Excited State   3:      Singlet-A      2.1713 eV  571.01 nm  f=0.1381  <S**2>=0.000
     309 -> 313        0.65261
     311 -> 316       -0.25468

 Excited State   4:      Singlet-A      2.2639 eV  547.66 nm  f=0.1277  <S**2>=0.000
     310 -> 314        0.64676
     312 -> 315       -0.24686
     312 -> 317       -0.10312

 Excited State   5:      Singlet-A      3.0838 eV  402.06 nm  f=0.0000  <S**2>=0.000
     312 -> 313        0.70710

 The electronic state is 1-A.
 Alpha  occ. eigenvalues --  -46.89391 -46.87768 -19.25771 -19.24514 -19.20210
 Alpha  occ. eigenvalues --  -19.19868 -19.19645 -19.18776 -19.18479 -19.17711
 Alpha  occ. eigenvalues --  -14.42511 -14.42302 -14.42176 -14.42039 -14.40541
 Alpha  occ. eigenvalues --  -14.39969 -14.38874 -14.38480 -10.39966 -10.39083
 Alpha  occ. eigenvalues --  -10.37016 -10.34749 -10.34661 -10.33393 -10.33066
 Alpha  occ. eigenvalues --  -10.32408 -10.31986 -10.31923 -10.31711 -10.31512
 Alpha  occ. eigenvalues --  -10.31383 -10.31141 -10.31106 -10.31071 -10.30704
 Alpha  occ. eigenvalues --  -10.30628 -10.30481 -10.30345 -10.29794 -10.29784
 Alpha  occ. eigenvalues --  -10.29275 -10.29153 -10.28976 -10.28968 -10.28891
 Alpha  occ. eigenvalues --  -10.28832 -10.28665 -10.28612 -10.28601 -10.28405
 Alpha  occ. eigenvalues --  -10.28381 -10.28336 -10.28292 -10.28263 -10.28055
 Alpha  occ. eigenvalues --  -10.28048 -10.27544 -10.27520 -10.27508 -10.27408
 Alpha  occ. eigenvalues --  -10.27397 -10.27224 -10.27183 -10.27145 -10.27019
 Alpha  occ. eigenvalues --  -10.26980 -10.26945 -10.26927 -10.26909 -10.26851
 Alpha  occ. eigenvalues --  -10.26848 -10.26772 -10.26742 -10.26435 -10.26295
 Alpha  occ. eigenvalues --  -10.25935 -10.25909 -10.25837 -10.25794 -10.25744
 Alpha  occ. eigenvalues --  -10.25733 -10.25640 -10.25288 -10.24716 -10.24572
 Alpha  occ. eigenvalues --  -10.23093  -3.17830  -3.16508  -1.92713  -1.92291
 Alpha  occ. eigenvalues --   -1.92133  -1.91413  -1.90974  -1.90810  -1.16013
 Alpha  occ. eigenvalues --   -1.15456  -1.10396  -1.09794  -1.09131  -1.07901
 Alpha  occ. eigenvalues --   -1.07815  -1.05774  -1.05063  -1.04576  -1.03832
 Alpha  occ. eigenvalues --   -1.03183  -1.02836  -1.02540  -1.02282  -1.00619
 Alpha  occ. eigenvalues --   -0.92318  -0.91554  -0.89705  -0.89172  -0.88873
 Alpha  occ. eigenvalues --   -0.88710  -0.88488  -0.87959  -0.87335  -0.87048
 Alpha  occ. eigenvalues --   -0.87013  -0.86621  -0.85893  -0.85816  -0.84784
 Alpha  occ. eigenvalues --   -0.84496  -0.84065  -0.83624  -0.83197  -0.82954
 Alpha  occ. eigenvalues --   -0.82313  -0.82051  -0.81434  -0.80700  -0.80213
 Alpha  occ. eigenvalues --   -0.80090  -0.78534  -0.77634  -0.77285  -0.77152
 Alpha  occ. eigenvalues --   -0.76824  -0.76733  -0.75979  -0.75511  -0.75323
 Alpha  occ. eigenvalues --   -0.75134  -0.72775  -0.72385  -0.71965  -0.71686
 Alpha  occ. eigenvalues --   -0.70310  -0.69716  -0.69460  -0.69106  -0.67898
 Alpha  occ. eigenvalues --   -0.67648  -0.67346  -0.67156  -0.65606  -0.65471
 Alpha  occ. eigenvalues --   -0.65076  -0.64675  -0.64670  -0.64341  -0.64034
 Alpha  occ. eigenvalues --   -0.63836  -0.61954  -0.61697  -0.60241  -0.59961
 Alpha  occ. eigenvalues --   -0.59464  -0.59176  -0.59095  -0.59019  -0.58453
 Alpha  occ. eigenvalues --   -0.58336  -0.57835  -0.57733  -0.57414  -0.57382
 Alpha  occ. eigenvalues --   -0.56428  -0.56294  -0.56003  -0.55496  -0.55482
 Alpha  occ. eigenvalues --   -0.55313  -0.55034  -0.54819  -0.54304  -0.54176
 Alpha  occ. eigenvalues --   -0.53912  -0.53723  -0.53475  -0.53329  -0.53151
 Alpha  occ. eigenvalues --   -0.53087  -0.52741  -0.52706  -0.52510  -0.52142
 Alpha  occ. eigenvalues --   -0.52001  -0.51580  -0.51160  -0.51021  -0.50846
 Alpha  occ. eigenvalues --   -0.50796  -0.50745  -0.50520  -0.50399  -0.50199
 Alpha  occ. eigenvalues --   -0.50146  -0.49999  -0.49806  -0.49802  -0.49534
 Alpha  occ. eigenvalues --   -0.49443  -0.49020  -0.48855  -0.48824  -0.48698
 Alpha  occ. eigenvalues --   -0.48558  -0.48534  -0.48462  -0.48210  -0.48091
 Alpha  occ. eigenvalues --   -0.47731  -0.47579  -0.47574  -0.47356  -0.47167
 Alpha  occ. eigenvalues --   -0.47033  -0.46770  -0.46538  -0.46534  -0.46181
 Alpha  occ. eigenvalues --   -0.46167  -0.46124  -0.46014  -0.45952  -0.45716
 Alpha  occ. eigenvalues --   -0.45454  -0.45210  -0.45183  -0.45037  -0.44957
 Alpha  occ. eigenvalues --   -0.44871  -0.44658  -0.44547  -0.44368  -0.44267
 Alpha  occ. eigenvalues --   -0.44194  -0.43989  -0.43936  -0.43581  -0.43502
 Alpha  occ. eigenvalues --   -0.43401  -0.43196  -0.43074  -0.42695  -0.42647
 Alpha  occ. eigenvalues --   -0.42545  -0.42517  -0.42466  -0.42214  -0.42170
 Alpha  occ. eigenvalues --   -0.42030  -0.41863  -0.41769  -0.41595  -0.41218
 Alpha  occ. eigenvalues --   -0.40969  -0.40764  -0.40474  -0.40400  -0.40147
 Alpha  occ. eigenvalues --   -0.39967  -0.39856  -0.39261  -0.39243  -0.39118
 Alpha  occ. eigenvalues --   -0.38966  -0.38906  -0.38050  -0.37345  -0.37330
 Alpha  occ. eigenvalues --   -0.37142  -0.36780  -0.36535  -0.36478  -0.36319
 Alpha  occ. eigenvalues --   -0.36124  -0.35327  -0.34411  -0.34318  -0.34282
 Alpha  occ. eigenvalues --   -0.34110  -0.33082  -0.33069  -0.32428  -0.31869
 Alpha  occ. eigenvalues --   -0.31526  -0.31282  -0.30848  -0.30414  -0.30330
 Alpha  occ. eigenvalues --   -0.29652  -0.29186  -0.29092  -0.24263  -0.24058
 Alpha  occ. eigenvalues --   -0.21490  -0.21476
 Alpha virt. eigenvalues --   -0.09306  -0.08439  -0.01780  -0.01674   0.00127
 Alpha virt. eigenvalues --    0.00317   0.01815   0.02003   0.02176   0.03353
 Alpha virt. eigenvalues --    0.04496   0.05147   0.05183   0.05722   0.05842

 Mulliken charges:
               1
     1  Mg  11.997004
     2  C    6.021398
     3  C    5.986018
     4  C    5.978673
     5  C    6.015518
     6  N    7.005358
     7  C    5.966081
     8  C    6.010961
     9  C    5.991489
    10  C    6.027384
    11  C    5.992398
    12  C    6.003242
    13  C    6.000077
    14  H    0.999526
    15  N    6.990709
    16  C    6.044046
    17  C    6.021251
    18  C    6.017095
    19  C    6.037194
    20  C    6.000015
    21  C    6.011826
    22  O    8.030813
    23  C    5.996115
    24  N    7.001216
    25  C    6.037884
    26  C    5.991849
    27  C    6.001595
    28  C    5.965548
    29  C    5.997789
    30  C    6.007975
    31  C    6.005916
    32  N    7.004476
    33  C    5.952345
    34  C    5.979435
    35  C    5.991468
    36  C    5.961613
    37  C    6.004771
    38  C    5.981362
    39  O    7.967408
    40  C    6.001511
    41  C    5.997121
    42  O    7.994271
    43  O    7.998256
    44  C    6.001627
    45  H    1.011011
    46  H    1.006014
    47  H    0.990319
    48  H    0.999903
    49  H    1.000227
    50  H    1.001605
    51  H    1.014122
    52  H    0.997998
    53  H    0.997568
    54  H    1.005889
    55  H    0.994799
    56  H    0.994368
    57  H    1.017294
    58  H    1.019260
    59  H    1.016819
    60  H    1.007069
    61  H    1.015005
    62  H    1.008258
    63  H    0.999189
    64  H    0.999680
    65  H    1.003169
    66  H    0.994721
    67  H    1.014219
    68  H    0.989027
    69  H    1.004815
    70  H    0.993886
    71  H    1.006280
    72  H    0.983558
    73  H    0.983731
    74  H    0.980086
    75  H    0.981171
    76  H    0.991523
    77  H    0.993036
    78  H    0.996933
    79  H    0.997819
    80  Mg  11.999981
    81  C    5.999966
    82  C    5.999986
    83  C    5.999950
    84  C    5.999983
    85  N    6.999995
    86  C    5.999970
    87  C    6.000017
    88  C    5.999961
    89  C    6.000090
    90  C    5.999977
    91  C    6.000007
    92  C    5.999991
    93  H    1.000071
    94  N    6.999992
    95  C    6.000134
    96  C    6.000086
    97  C    6.000044
    98  C    6.000164
    99  C    5.999933
   100  C    6.000046
   101  O    8.000168
   102  C    5.999966
   103  N    6.999975
   104  C    6.000097
   105  C    5.999968
   106  C    5.999995
   107  C    5.999941
   108  C    6.000006
   109  C    6.000027
   110  C    6.000019
   111  N    6.999979
   112  C    5.999849
   113  C    5.999892
   114  C    5.999952
   115  C    5.999943
   116  C    6.000035
   117  C    5.999891
   118  O    7.999816
   119  C    6.000044
   120  C    5.999996
   121  O    7.999988
   122  O    7.999988
   123  C    6.000014
   124  H    1.000120
   125  H    1.000017
   126  H    0.999924
   127  H    0.999989
   128  H    1.000078
   129  H    1.000033
   130  H    1.000103
   131  H    0.999992
   132  H    1.000025
   133  H    0.999989
   134  H    0.999957
   135  H    0.999967
   136  H    1.000145
   137  H    1.000132
   138  H    1.000164
   139  H    0.999992
   140  H    1.000018
   141  H    1.000084
   142  H    1.000024
   143  H    0.999980
   144  H    1.000020
   145  H    0.999986
   146  H    0.999995
   147  H    1.000002
   148  H    0.999947
   149  H    0.999933
   150  H    0.999970
   151  H    1.000015
   152  H    0.999894
   153  H    0.999893
   154  H    0.999885
   155  H    0.999928
   156  H    0.999948
   157  H    0.999940
   158  H    1.000018
 Sum of Mulliken charges = 624.00000

 Dipole moment (field-independent basis, Debye):
    X=              7.3659    Y=              8.1079    Z=             -2.5737  Tot=             11.2525
 Quadrupole moment (field-independent basis, Debye-Ang):
   XX=            295.0005   YY=              2.6813   ZZ=             -4.3315
   XY=            166.9566   XZ=            -50.9957   YZ=              0.7741

 Normal termination of Gaussian 16 at Wed Sep 22 04:28:32 2021.
