 Gaussian 16, Revision A.03,
 Gaussian 16:  ES64L-G16RevA.03 25-Dec-2016

 ----------------------------------------------------------
 #p cam-b3lyp/Def2SVP td=(nstates=5) density=(transition=1)
 ----------------------------------------------------------

 --------------------------------
 TDDFT excited states in gaussian
 --------------------------------
 Symbolic Z-matrix:
 Charge =  0 Multiplicity = 1

                         Standard orientation:
 ---------------------------------------------------------------------
 Center     Atomic      Atomic             Coordinates (Angstroms)
 Number     Number       Type             X           Y           Z
 ---------------------------------------------------------------------
      1         12           0      -30.172104   -0.550092    0.440698
      2          6           0      -29.542218    2.269982   -1.384778
      3          6           0      -29.552073   -2.491518   -2.195348
      4          6           0      -31.031718   -3.095419    2.285939
      5          6           0      -31.382875    1.633568    2.983966
      6          7           0      -29.766231   -0.148118   -1.653045
      7          6           0      -29.297651    1.053519   -2.073184
      8          6           0      -28.536659    0.938235   -3.365576
      9          6           0      -28.812202   -0.573721   -3.738213
     10          6           0      -29.493342   -1.110792   -2.498140
     11          6           0      -29.599974   -0.781689   -5.053936
     12          6           0      -26.959876    1.409514   -3.270503
     13          6           0      -26.406241    2.344259   -4.356775
     14          1           0      -27.132038    2.329363   -5.738765
     15          7           0      -30.111497   -2.449973    0.161562
     16          6           0      -29.842381   -3.130890   -0.982828
     17          6           0      -30.045071   -4.553905   -0.859651
     18          6           0      -30.270066   -4.758475    0.468156
     19          6           0      -30.600627   -3.398835    0.997255
     20          6           0      -29.988013   -5.375433   -2.134566
     21          6           0      -30.402378   -6.090982    1.232052
     22          8           0      -30.665053   -6.173929    2.409270
     23          6           0      -30.211088   -7.305493    0.372429
     24          7           0      -31.245534   -0.664418    2.308890
     25          6           0      -31.337527   -1.878582    2.880648
     26          6           0      -31.890950   -1.771774    4.305101
     27          6           0      -31.702307   -0.253198    4.639930
     28          6           0      -31.451903    0.301016    3.222399
     29          6           0      -33.364055   -2.294833    4.584563
     30          6           0      -30.483822    0.112573    5.568710
     31          6           0      -29.059032   -0.225198    5.216396
     32          7           0      -30.371761    1.526980    0.861642
     33          6           0      -30.956133    2.287686    1.879475
     34          6           0      -30.867353    3.726289    1.598556
     35          6           0      -30.302967    3.769105    0.314862
     36          6           0      -30.035265    2.411207   -0.046599
     37          6           0      -31.233780    4.879402    2.497215
     38          6           0      -29.896685    4.594669   -0.728504
     39          8           0      -29.946792    5.801784   -0.905878
     40          6           0      -29.175278    3.697019   -1.766942
     41          6           0      -29.762730    4.154429   -3.047087
     42          8           0      -30.864028    3.818518   -3.489276
     43          8           0      -28.976507    5.098953   -3.640748
     44          6           0      -29.514695    5.890993   -4.751215
     45          1           0      -29.156799   -3.097879   -3.013265
     46          1           0      -31.287971   -3.897543    2.980136
     47          1           0      -31.745354    2.178326    3.859072
     48          1           0      -29.027337    1.510934   -4.152639
     49          1           0      -27.859854   -1.100500   -3.794474
     50          1           0      -30.631958   -1.033940   -4.810362
     51          1           0      -29.160512   -1.623141   -5.589619
     52          1           0      -29.543772    0.160122   -5.599901
     53          1           0      -26.394296    0.477682   -3.278101
     54          1           0      -26.779849    1.953459   -2.343780
     55          1           0      -25.394361    2.045866   -4.629639
     56          1           0      -26.308510    3.354311   -3.959032
     57          1           0      -30.735658   -5.118891   -2.885271
     58          1           0      -30.250687   -6.433076   -2.122804
     59          1           0      -28.946344   -5.233227   -2.422393
     60          1           0      -29.246204   -7.271173   -0.132905
     61          1           0      -31.105742   -7.279463   -0.249332
     62          1           0      -30.147011   -8.282621    0.849861
     63          1           0      -31.221774   -2.439282    4.849168
     64          1           0      -32.656039    0.149163    4.982122
     65          1           0      -33.789253   -2.689824    3.662224
     66          1           0      -34.028647   -1.465909    4.825177
     67          1           0      -33.477524   -3.023152    5.388990
     68          1           0      -30.798122   -0.394011    6.481587
     69          1           0      -30.426138    1.181867    5.769627
     70          1           0      -29.044800   -0.877043    4.341923
     71          1           0      -28.586738   -0.780842    6.026377
     72          1           0      -28.419944    0.607981    4.924707
     73          1           0      -32.141114    5.387051    2.172913
     74          1           0      -30.408321    5.590211    2.539135
     75          1           0      -31.474802    4.386205    3.439232
     76          1           0      -28.090938    3.785879   -1.698029
     77          1           0      -29.021794    6.859550   -4.843106
     78          1           0      -30.603308    5.916264   -4.744379
     79          1           0      -29.371678    5.407375   -5.717355
     80         12           0       30.506382    0.571961   -0.233623
     81          6           0       28.270688   -1.995524   -0.815967
     82          6           0       27.851042    2.534627    0.739742
     83          6           0       32.751065    2.907575    0.908964
     84          6           0       33.118769   -1.489872   -1.114229
     85          7           0       28.362624    0.244328    0.130500
     86          6           0       27.676237   -0.888449   -0.260364
     87          6           0       26.174788   -0.755042   -0.020229
     88          6           0       26.033144    0.803601    0.149169
     89          6           0       27.480119    1.203969    0.397279
     90          6           0       25.284596    1.602360   -1.011817
     91          6           0       25.578388   -1.610810    1.142488
     92          6           0       24.287243   -2.336990    0.829162
     93          1           0       23.103434   -1.753740    1.584953
     94          7           0       30.291575    2.418980    0.693946
     95          6           0       29.148162    3.052989    0.977367
     96          6           0       29.411825    4.375760    1.516792
     97          6           0       30.776382    4.590705    1.615505
     98          6           0       31.359426    3.272321    1.115243
     99          6           0       28.242735    5.355995    2.007139
    100          6           0       31.496078    5.907942    2.062062
    101          8           0       30.790986    6.877132    2.462221
    102          6           0       32.971770    6.029394    2.076277
    103          7           0       32.713821    0.613657    0.118608
    104          6           0       33.374775    1.708287    0.417445
    105          6           0       34.851353    1.609801    0.095806
    106          6           0       35.086916    0.173691   -0.483569
    107          6           0       33.552908   -0.281104   -0.588669
    108          6           0       35.580650    2.802409   -0.601345
    109          6           0       35.945334   -0.863265    0.297268
    110          6           0       36.413283   -2.015198   -0.567869
    111          7           0       30.678725   -1.394699   -0.844091
    112          6           0       31.828969   -2.102946   -1.262405
    113          6           0       31.401102   -3.379751   -1.765550
    114          6           0       29.989562   -3.398354   -1.651856
    115          6           0       29.654074   -2.187582   -1.052309
    116          6           0       32.254838   -4.389613   -2.517974
    117          6           0       28.888154   -4.179197   -1.928077
    118          8           0       28.708471   -5.300889   -2.317420
    119          6           0       27.675048   -3.353795   -1.249940
    120          6           0       27.425773   -4.085677    0.067922
    121          8           0       28.076519   -3.954517    1.086700
    122          8           0       26.343116   -4.924744   -0.140849
    123          6           0       25.997574   -5.807428    0.968704
    124          1           0       27.049109    3.264376    0.868196
    125          1           0       33.407334    3.697822    1.278633
    126          1           0       33.824200   -2.198717   -1.552789
    127          1           0       25.672447   -1.010949   -0.952659
    128          1           0       25.594712    0.969286    1.133929
    129          1           0       25.696496    2.603758   -0.887235
    130          1           0       24.219067    1.753258   -0.836904
    131          1           0       25.406823    1.224907   -2.026954
    132          1           0       25.412802   -0.875152    1.929826
    133          1           0       26.266146   -2.265219    1.677663
    134          1           0       24.434936   -3.385274    1.089753
    135          1           0       24.024114   -2.284154   -0.227466
    136          1           0       27.233797    4.947134    1.938175
    137          1           0       28.265660    6.289849    1.444460
    138          1           0       28.282004    5.567611    3.074780
    139          1           0       33.359188    5.872804    1.070051
    140          1           0       33.416665    5.430890    2.871347
    141          1           0       33.143803    7.098608    2.193520
    142          1           0       35.513721    1.507735    0.955676
    143          1           0       35.313151    0.185800   -1.550026
    144          1           0       34.892723    3.646995   -0.542742
    145          1           0       35.949136    2.570526   -1.601282
    146          1           0       36.480489    3.139267   -0.086441
    147          1           0       35.341728   -1.169405    1.151583
    148          1           0       36.763103   -0.273911    0.711890
    149          1           0       37.376482   -2.346148   -0.178708
    150          1           0       36.556374   -1.778755   -1.622917
    151          1           0       35.751929   -2.867339   -0.410926
    152          1           0       31.682381   -5.192221   -2.983051
    153          1           0       32.989978   -4.784743   -1.818072
    154          1           0       32.824221   -3.910505   -3.314521
    155          1           0       26.832414   -3.251132   -1.934394
    156          1           0       26.806697   -6.519602    1.131498
    157          1           0       25.043165   -6.307357    0.807127
    158          1           0       25.934662   -5.225760    1.887949
 ---------------------------------------------------------------------

 SCF Done:  E(RCAM-B3LYP) =  -4069.80282270     A.U. after   19 cycles

 Excitation energies and oscillator strengths:

 Excited State   1:      Singlet-A      1.7684 eV  701.13 nm  f=0.3741  <S**2>=0.000
     310 -> 316        0.19166
     312 -> 314        0.68182
     310 <- 316        0.10600
 This state for optimization and/or second-order correction.
 Total Energy, E(TD-HF/TD-DFT) =  -4069.73783677
 Copying the excited state density for this state as the 1-particle RhoCI density.

 Excited State   2:      Singlet-A      1.8652 eV  664.72 nm  f=0.3725  <S**2>=0.000
     309 -> 315        0.14288
     311 -> 313        0.68808

 Excited State   3:      Singlet-A      2.2638 eV  547.68 nm  f=0.1279  <S**2>=0.000
     309 -> 313        0.64669
     311 -> 315       -0.24688
     311 -> 317       -0.10350

 Excited State   4:      Singlet-A      2.2757 eV  544.83 nm  f=0.0578  <S**2>=0.000
     310 -> 314        0.61594
     312 -> 316       -0.33784

 Excited State   5:      Singlet-A      3.1522 eV  393.32 nm  f=0.0000  <S**2>=0.000
     312 -> 313        0.70711

 The electronic state is 1-A.
 Alpha  occ. eigenvalues --  -46.89412 -46.87960 -19.24533 -19.23914 -19.20234
 Alpha  occ. eigenvalues --  -19.19938 -19.19887 -19.18341 -19.17731 -19.17653
 Alpha  occ. eigenvalues --  -14.42323 -14.42060 -14.41712 -14.41063 -14.40563
 Alpha  occ. eigenvalues --  -14.40004 -14.38752 -14.38500 -10.39102 -10.38256
 Alpha  occ. eigenvalues --  -10.37040 -10.35968 -10.33549 -10.33412 -10.33087
 Alpha  occ. eigenvalues --  -10.32429 -10.31732 -10.31160 -10.31092 -10.30831
 Alpha  occ. eigenvalues --  -10.30659 -10.30587 -10.30454 -10.30366 -10.30246
 Alpha  occ. eigenvalues --  -10.30138 -10.29815 -10.29807 -10.29176 -10.29034
 Alpha  occ. eigenvalues --  -10.28969 -10.28930 -10.28720 -10.28427 -10.28401
 Alpha  occ. eigenvalues --  -10.28356 -10.28313 -10.28075 -10.28070 -10.28066
 Alpha  occ. eigenvalues --  -10.27855 -10.27829 -10.27814 -10.27765 -10.27750
 Alpha  occ. eigenvalues --  -10.27596 -10.27562 -10.27529 -10.27492 -10.27432
 Alpha  occ. eigenvalues --  -10.27330 -10.27245 -10.27243 -10.27203 -10.27167
 Alpha  occ. eigenvalues --  -10.26966 -10.26949 -10.26929 -10.26868 -10.26793
 Alpha  occ. eigenvalues --  -10.26768 -10.26525 -10.26498 -10.26456 -10.26266
 Alpha  occ. eigenvalues --  -10.26043 -10.26040 -10.25956 -10.25903 -10.25812
 Alpha  occ. eigenvalues --  -10.25567 -10.25306 -10.25218 -10.25058 -10.24063
 Alpha  occ. eigenvalues --  -10.23113  -3.17851  -3.16815  -1.92734  -1.92312
 Alpha  occ. eigenvalues --   -1.92154  -1.91680  -1.91284  -1.91148  -1.15476
 Alpha  occ. eigenvalues --   -1.14844  -1.11531  -1.09814  -1.09156  -1.09004
 Alpha  occ. eigenvalues --   -1.07920  -1.05923  -1.05591  -1.04701  -1.04598
 Alpha  occ. eigenvalues --   -1.04115  -1.03852  -1.03205  -1.02998  -1.02560
 Alpha  occ. eigenvalues --   -0.92343  -0.91574  -0.89632  -0.89192  -0.88510
 Alpha  occ. eigenvalues --   -0.88423  -0.88027  -0.87981  -0.87962  -0.87470
 Alpha  occ. eigenvalues --   -0.87069  -0.86644  -0.86560  -0.85837  -0.84517
 Alpha  occ. eigenvalues --   -0.84376  -0.83645  -0.83588  -0.83219  -0.82713
 Alpha  occ. eigenvalues --   -0.82605  -0.82072  -0.81066  -0.80720  -0.80528
 Alpha  occ. eigenvalues --   -0.80233  -0.79027  -0.77655  -0.77467  -0.77173
 Alpha  occ. eigenvalues --   -0.76984  -0.76754  -0.75704  -0.75343  -0.75212
 Alpha  occ. eigenvalues --   -0.75154  -0.72644  -0.72405  -0.71707  -0.71689
 Alpha  occ. eigenvalues --   -0.69736  -0.69646  -0.69127  -0.69031  -0.68153
 Alpha  occ. eigenvalues --   -0.67918  -0.67368  -0.67319  -0.65627  -0.65491
 Alpha  occ. eigenvalues --   -0.65417  -0.64977  -0.64748  -0.64691  -0.64055
 Alpha  occ. eigenvalues --   -0.63764  -0.61717  -0.61715  -0.61120  -0.59983
 Alpha  occ. eigenvalues --   -0.59485  -0.59320  -0.59287  -0.59040  -0.58474
 Alpha  occ. eigenvalues --   -0.57931  -0.57855  -0.57804  -0.57553  -0.57403
 Alpha  occ. eigenvalues --   -0.56450  -0.56307  -0.55502  -0.55318  -0.55122
 Alpha  occ. eigenvalues --   -0.55054  -0.54674  -0.54421  -0.54196  -0.53936
 Alpha  occ. eigenvalues --   -0.53743  -0.53638  -0.53349  -0.53209  -0.53172
 Alpha  occ. eigenvalues --   -0.52728  -0.52627  -0.52622  -0.52441  -0.52299
 Alpha  occ. eigenvalues --   -0.52022  -0.51634  -0.51600  -0.51261  -0.51041
 Alpha  occ. eigenvalues --   -0.50816  -0.50613  -0.50542  -0.50465  -0.50234
 Alpha  occ. eigenvalues --   -0.50168  -0.50021  -0.49824  -0.49502  -0.49465
 Alpha  occ. eigenvalues --   -0.49336  -0.49095  -0.49041  -0.48780  -0.48719
 Alpha  occ. eigenvalues --   -0.48576  -0.48554  -0.48230  -0.48066  -0.48015
 Alpha  occ. eigenvalues --   -0.47787  -0.47595  -0.47377  -0.47189  -0.47172
 Alpha  occ. eigenvalues --   -0.46801  -0.46658  -0.46560  -0.46515  -0.46202
 Alpha  occ. eigenvalues --   -0.46145  -0.45972  -0.45711  -0.45485  -0.45253
 Alpha  occ. eigenvalues --   -0.45231  -0.45203  -0.45058  -0.44892  -0.44831
 Alpha  occ. eigenvalues --   -0.44679  -0.44513  -0.44290  -0.44119  -0.43957
 Alpha  occ. eigenvalues --   -0.43913  -0.43835  -0.43601  -0.43467  -0.43421
 Alpha  occ. eigenvalues --   -0.43177  -0.43096  -0.42912  -0.42849  -0.42718
 Alpha  occ. eigenvalues --   -0.42566  -0.42487  -0.42440  -0.42190  -0.42141
 Alpha  occ. eigenvalues --   -0.42051  -0.41848  -0.41616  -0.41576  -0.41253
 Alpha  occ. eigenvalues --   -0.41063  -0.40784  -0.40750  -0.40523  -0.40420
 Alpha  occ. eigenvalues --   -0.40167  -0.39877  -0.39591  -0.39282  -0.39209
 Alpha  occ. eigenvalues --   -0.38987  -0.38471  -0.38198  -0.38071  -0.37350
 Alpha  occ. eigenvalues --   -0.37005  -0.36498  -0.36451  -0.36340  -0.36276
 Alpha  occ. eigenvalues --   -0.35348  -0.35154  -0.34432  -0.34361  -0.34302
 Alpha  occ. eigenvalues --   -0.33281  -0.33091  -0.32943  -0.32497  -0.32452
 Alpha  occ. eigenvalues --   -0.31892  -0.31366  -0.30869  -0.30718  -0.30093
 Alpha  occ. eigenvalues --   -0.29714  -0.29672  -0.29113  -0.24079  -0.23815
 Alpha  occ. eigenvalues --   -0.21496  -0.20610
 Alpha virt. eigenvalues --   -0.08461  -0.07831  -0.01802  -0.01755   0.00104
 Alpha virt. eigenvalues --    0.00220   0.01793   0.01982   0.02275   0.03022
 Alpha virt. eigenvalues --    0.05021   0.05162   0.05822   0.06108   0.06372

 Mulliken charges:
               1
     1  Mg  11.999443
     2  C    5.971950
     3  C    6.014911
     4  C    6.028003
     5  C    5.991560
     6  N    6.989083
     7  C    6.038727
     8  C    5.984746
     9  C    6.012526
    10  C    5.964012
    11  C    6.003422
    12  C    5.996712
    13  C    5.998336
    14  H    1.004652
    15  N    7.009612
    16  C    5.959984
    17  C    5.979209
    18  C    5.982972
    19  C    5.962068
    20  C    6.002478
    21  C    5.986906
    22  O    7.973600
    23  C    6.006418
    24  N    7.005326
    25  C    5.962362
    26  C    6.008063
    27  C    5.993493
    28  C    6.028016
    29  C    6.000198
    30  C    5.990086
    31  C    5.994101
    32  N    6.998623
    33  C    6.036764
    34  C    6.031844
    35  C    6.004324
    36  C    6.027612
    37  C    5.995914
    38  C    6.015017
    39  O    8.034398
    40  C    6.002016
    41  C    6.004416
    42  O    8.007313
    43  O    8.000221
    44  C    5.996134
    45  H    0.987619
    46  H    0.995505
    47  H    1.013638
    48  H    1.001282
    49  H    0.998292
    50  H    0.999160
    51  H    0.999598
    52  H    0.985253
    53  H    1.010612
    54  H    0.994269
    55  H    1.003421
    56  H    0.995224
    57  H    0.980056
    58  H    0.983535
    59  H    0.986525
    60  H    0.994045
    61  H    0.994532
    62  H    0.984791
    63  H    1.002989
    64  H    1.001491
    65  H    1.003847
    66  H    0.988261
    67  H    0.998437
    68  H    1.012014
    69  H    0.995942
    70  H    1.014652
    71  H    1.006423
    72  H    0.994851
    73  H    1.021751
    74  H    1.018805
    75  H    1.017243
    76  H    1.006605
    77  H    1.003050
    78  H    1.001416
    79  H    1.007298
    80  Mg  12.000000
    81  C    6.000033
    82  C    6.000028
    83  C    6.000028
    84  C    6.000004
    85  N    6.999998
    86  C    6.000001
    87  C    5.999999
    88  C    5.999994
    89  C    5.999953
    90  C    6.000003
    91  C    5.999996
    92  C    5.999994
    93  H    1.000010
    94  N    6.999977
    95  C    5.999937
    96  C    5.999987
    97  C    5.999948
    98  C    5.999942
    99  C    6.000023
   100  C    5.999998
   101  O    7.999951
   102  C    6.000007
   103  N    7.000018
   104  C    5.999948
   105  C    6.000006
   106  C    6.000004
   107  C    6.000021
   108  C    6.000007
   109  C    5.999991
   110  C    5.999990
   111  N    7.000011
   112  C    6.000091
   113  C    6.000003
   114  C    6.000070
   115  C    6.000023
   116  C    5.999986
   117  C    5.999995
   118  O    8.000071
   119  C    5.999996
   120  C    6.000008
   121  O    8.000005
   122  O    8.000002
   123  C    5.999989
   124  H    0.999982
   125  H    0.999981
   126  H    1.000009
   127  H    1.000002
   128  H    0.999999
   129  H    0.999996
   130  H    0.999985
   131  H    0.999989
   132  H    1.000007
   133  H    0.999999
   134  H    1.000011
   135  H    1.000006
   136  H    0.999964
   137  H    0.999959
   138  H    0.999963
   139  H    0.999992
   140  H    0.999990
   141  H    0.999970
   142  H    0.999985
   143  H    0.999994
   144  H    1.000001
   145  H    0.999982
   146  H    0.999988
   147  H    1.000004
   148  H    1.000011
   149  H    1.000008
   150  H    1.000002
   151  H    0.999997
   152  H    1.000037
   153  H    1.000034
   154  H    1.000032
   155  H    1.000026
   156  H    1.000012
   157  H    1.000030
   158  H    1.000003
 Sum of Mulliken charges = 624.00000

 Dipole moment (field-independent basis, Debye):
    X=             -0.4394    Y=             10.3520    Z=              2.0544  Tot=             10.5630
 Quadrupole moment (field-independent basis, Debye-Ang):
   XX=             27.2136   YY=             -7.0451   ZZ=              2.2041
   XY=           -315.9168   XZ=            -63.4640   YZ=              1.8332

 Normal termination of Gaussian 16 at Tue Sep 21 17:55:18 2021.
