 Gaussian 16, Revision A.03,
 Gaussian 16:  ES64L-G16RevA.03 25-Dec-2016

 -----------------------------------
 #p cam-b3lyp/Def2SVP td=(nstates=5)
 -----------------------------------

 --------------------------------
 TDDFT excited states in gaussian
 --------------------------------
 Symbolic Z-matrix:
 Charge =  0 Multiplicity = 1

                         Standard orientation:
 ---------------------------------------------------------------------
 Center     Atomic      Atomic             Coordinates (Angstroms)
 Number     Number       Type             X           Y           Z
 ---------------------------------------------------------------------
      1         12           0       -9.985014    0.291994    0.132256
      2          6           0       -8.591103   -2.271876   -1.689131
      3          6           0       -8.564411   -0.852457    3.030449
      4          6           0      -11.254948    3.020122    1.925576
      5          6           0      -10.736808    1.982837   -2.783574
      6          7           0       -8.539896   -1.282917    0.496362
      7          6           0       -8.215292   -2.358191   -0.335207
      8          6           0       -7.272636   -3.341372    0.363384
      9          6           0       -7.490249   -2.899914    1.833002
     10          6           0       -8.183027   -1.521881    1.818530
     11          6           0       -8.180076   -3.980192    2.694527
     12          6           0       -5.816936   -3.201082   -0.124074
     13          6           0       -5.019512   -4.529666   -0.362238
     14          1           0       -3.561430   -4.467554   -0.123357
     15          7           0       -9.954850    0.927610    2.156554
     16          6           0       -9.400261    0.280649    3.207122
     17          6           0       -9.797223    0.824559    4.471240
     18          6           0      -10.691760    1.871395    4.194196
     19          6           0      -10.694711    1.972607    2.676080
     20          6           0       -9.424404    0.221714    5.827193
     21          6           0      -11.448896    2.772908    5.235478
     22          8           0      -11.190582    2.620744    6.456879
     23          6           0      -12.586488    3.810675    4.842345
     24          7           0      -10.601591    2.365154   -0.366373
     25          6           0      -11.198398    3.193626    0.524787
     26          6           0      -11.882732    4.366062   -0.129907
     27          6           0      -11.690935    4.087063   -1.636278
     28          6           0      -11.006849    2.717741   -1.617055
     29          6           0      -13.363116    4.594918    0.322343
     30          6           0      -10.928166    5.267328   -2.406880
     31          6           0      -11.827358    6.141415   -3.288784
     32          7           0       -9.787543   -0.059262   -1.844184
     33          6           0      -10.163259    0.695778   -2.977018
     34          6           0      -10.026098   -0.135703   -4.180085
     35          6           0       -9.487853   -1.316418   -3.687596
     36          6           0       -9.260733   -1.146219   -2.311975
     37          6           0      -10.338283    0.173629   -5.600470
     38          6           0       -9.005120   -2.645355   -4.089321
     39          8           0       -9.137320   -3.289808   -5.142817
     40          6           0       -8.438259   -3.345602   -2.789776
     41          6           0       -9.206879   -4.619570   -2.465531
     42          8           0      -10.431123   -4.782694   -2.466065
     43          8           0       -8.222496   -5.537310   -2.248203
     44          6           0       -8.647021   -6.917418   -2.083229
     45          1           0       -8.121913   -1.210680    3.962191
     46          1           0      -11.762828    3.878109    2.371088
     47          1           0      -10.958827    2.457327   -3.741530
     48          1           0       -7.592654   -4.363217    0.156927
     49          1           0       -6.474337   -2.782658    2.210068
     50          1           0       -8.149580   -5.022011    2.375566
     51          1           0       -9.240560   -3.729101    2.680309
     52          1           0       -7.809997   -3.988096    3.719481
     53          1           0       -5.222715   -2.536620    0.502626
     54          1           0       -5.883012   -2.594069   -1.027319
     55          1           0       -5.183068   -4.860521   -1.387816
     56          1           0       -5.382737   -5.279602    0.341835
     57          1           0      -10.371712    0.019394    6.326454
     58          1           0       -8.668428    0.841538    6.309447
     59          1           0       -8.999264   -0.751309    5.581217
     60          1           0      -12.071727    4.729481    4.563882
     61          1           0      -13.172794    3.972829    5.746507
     62          1           0      -13.249022    3.288366    4.151638
     63          1           0      -11.339122    5.268879    0.148800
     64          1           0      -12.587270    3.828187   -2.199413
     65          1           0      -14.018647    4.778129   -0.528573
     66          1           0      -13.467314    5.436761    1.006603
     67          1           0      -13.688185    3.742063    0.916789
     68          1           0      -10.176772    4.893349   -3.102207
     69          1           0      -10.360829    5.869977   -1.697708
     70          1           0      -11.513794    7.182822   -3.214197
     71          1           0      -12.862042    6.055906   -2.957492
     72          1           0      -11.817296    5.864271   -4.342753
     73          1           0      -10.820170    1.151101   -5.622233
     74          1           0      -10.812400   -0.686830   -6.073035
     75          1           0       -9.377094    0.352220   -6.083660
     76          1           0       -7.371241   -3.557380   -2.863472
     77          1           0       -9.510970   -7.039198   -1.428646
     78          1           0       -7.896974   -7.629324   -1.738726
     79          1           0       -8.925113   -7.333422   -3.051921
     80         12           0       10.180930    0.858242    0.091659
     81          6           0        8.883854   -2.303380    0.836424
     82          6           0        6.938451    2.048414    0.420013
     83          6           0       11.288494    3.708393   -1.013426
     84          6           0       13.341859   -0.660858   -0.402856
     85          7           0        8.033306   -0.116147    0.187234
     86          6           0        7.823238   -1.356261    0.640456
     87          6           0        6.359972   -1.506590    0.891261
     88          6           0        5.719106   -0.217135    0.321904
     89          6           0        6.950930    0.666270    0.325024
     90          6           0        5.004504   -0.254071   -1.030111
     91          6           0        6.044038   -1.690721    2.409530
     92          6           0        5.105083   -2.859112    2.852032
     93          1           0        3.989752   -3.349838    1.877032
     94          7           0        9.250272    2.711749   -0.113631
     95          6           0        7.944451    2.994394    0.264663
     96          6           0        7.767130    4.399390    0.091107
     97          6           0        9.004847    4.919236   -0.463294
     98          6           0        9.929596    3.798929   -0.550686
     99          6           0        6.439742    5.152423    0.327923
    100          6           0        9.348587    6.352166   -0.962373
    101          8           0       10.398624    6.671862   -1.422407
    102          6           0        8.267261    7.397841   -0.773474
    103          7           0       12.050541    1.402137   -0.584695
    104          6           0       12.241140    2.653822   -1.058339
    105          6           0       13.687840    2.926706   -1.554489
    106          6           0       14.392516    1.579856   -1.091514
    107          6           0       13.229479    0.706652   -0.635770
    108          6           0       13.699209    3.227959   -3.162516
    109          6           0       15.555624    1.797003   -0.073265
    110          6           0       15.253571    1.601982    1.401753
    111          7           0       11.042490   -1.083325    0.216024
    112          6           0       12.333296   -1.516835    0.076578
    113          6           0       12.365535   -2.992551    0.370761
    114          6           0       11.024284   -3.319887    0.672602
    115          6           0       10.220939   -2.140206    0.531184
    116          6           0       13.517620   -3.943366    0.190627
    117          6           0       10.120956   -4.404505    1.048983
    118          8           0       10.396850   -5.593781    1.230862
    119          6           0        8.772502   -3.742762    1.316984
    120          6           0        7.766379   -4.540246    0.537622
    121          8           0        7.581396   -4.455036   -0.662600
    122          8           0        7.297099   -5.447659    1.378102
    123          6           0        6.623020   -6.612662    0.826813
    124          1           0        5.906543    2.402109    0.380228
    125          1           0       11.722191    4.690305   -1.212390
    126          1           0       14.320743   -1.125360   -0.541059
    127          1           0        6.008145   -2.396092    0.369630
    128          1           0        4.940495    0.067406    1.029768
    129          1           0        4.942758   -1.226452   -1.519068
    130          1           0        5.480592    0.436417   -1.726853
    131          1           0        3.990704    0.099111   -0.842808
    132          1           0        5.711101   -0.775573    2.898737
    133          1           0        7.055057   -1.875726    2.772189
    134          1           0        4.628283   -2.470459    3.752756
    135          1           0        5.721406   -3.719699    3.110851
    136          1           0        6.124289    5.749094   -0.528039
    137          1           0        6.528001    5.912542    1.104306
    138          1           0        5.605422    4.515282    0.624252
    139          1           0        7.881550    7.428071    0.245762
    140          1           0        7.488599    7.212287   -1.513414
    141          1           0        8.626115    8.375695   -1.094553
    142          1           0       14.142867    3.787099   -1.064106
    143          1           0       14.907199    1.066576   -1.903638
    144          1           0       14.149079    2.336300   -3.599370
    145          1           0       14.388685    4.021671   -3.451024
    146          1           0       12.706763    3.304332   -3.608157
    147          1           0       15.772697    2.862275   -0.153083
    148          1           0       16.455225    1.243732   -0.342139
    149          1           0       14.291757    2.097315    1.540122
    150          1           0       16.091376    2.127656    1.859250
    151          1           0       15.084532    0.606260    1.810906
    152          1           0       14.435717   -3.572631   -0.265274
    153          1           0       13.198467   -4.776705   -0.435464
    154          1           0       13.687697   -4.369733    1.178753
    155          1           0        8.402824   -3.854943    2.336416
    156          1           0        6.599179   -6.771236   -0.250853
    157          1           0        5.583333   -6.435957    1.104069
    158          1           0        6.761472   -7.443035    1.519319
 ---------------------------------------------------------------------

 SCF Done:  E(RCAM-B3LYP) =  -4069.82536689     A.U. after   19 cycles

 Excitation energies and oscillator strengths:

 Excited State   1:      Singlet-A      1.7085 eV  725.71 nm  f=0.3592  <S**2>=0.000
     309 -> 315       -0.17454
     311 -> 313        0.68608
     309 <- 315       -0.10524
 This state for optimization and/or second-order correction.
 Total Energy, E(TD-HF/TD-DFT) =  -4069.76258226
 Copying the excited state density for this state as the 1-particle RhoCI density.

 Excited State   2:      Singlet-A      1.7291 eV  717.03 nm  f=0.3904  <S**2>=0.000
     310 -> 316       -0.18717
     312 -> 314        0.68373
     310 <- 316       -0.10975

 Excited State   3:      Singlet-A      2.2137 eV  560.07 nm  f=0.1025  <S**2>=0.000
     310 -> 314        0.64226
     312 -> 316        0.28212

 Excited State   4:      Singlet-A      2.2477 eV  551.60 nm  f=0.0927  <S**2>=0.000
     309 -> 313        0.62512
     311 -> 315        0.31562

 Excited State   5:      Singlet-A      2.9066 eV  426.57 nm  f=0.0000  <S**2>=0.000
     312 -> 313        0.70700

 The electronic state is 1-A.
 Alpha  occ. eigenvalues --  -46.89264 -46.88802 -19.26441 -19.26279 -19.20343
 Alpha  occ. eigenvalues --  -19.19770 -19.19660 -19.19426 -19.18634 -19.18527
 Alpha  occ. eigenvalues --  -14.42500 -14.42262 -14.41792 -14.41608 -14.40318
 Alpha  occ. eigenvalues --  -14.39325 -14.39197 -14.38748 -10.40035 -10.39169
 Alpha  occ. eigenvalues --  -10.36761 -10.35478 -10.34833 -10.34506 -10.32292
 Alpha  occ. eigenvalues --  -10.32124 -10.32080 -10.31679 -10.31276 -10.31269
 Alpha  occ. eigenvalues --  -10.31187 -10.31081 -10.30799 -10.30650 -10.30567
 Alpha  occ. eigenvalues --  -10.30489 -10.29763 -10.29748 -10.29571 -10.29518
 Alpha  occ. eigenvalues --  -10.29393 -10.29268 -10.28988 -10.28941 -10.28580
 Alpha  occ. eigenvalues --  -10.28567 -10.28438 -10.28383 -10.28296 -10.28238
 Alpha  occ. eigenvalues --  -10.28218 -10.28106 -10.28100 -10.28062 -10.28057
 Alpha  occ. eigenvalues --  -10.28020 -10.27829 -10.27816 -10.27704 -10.27571
 Alpha  occ. eigenvalues --  -10.27551 -10.27383 -10.27171 -10.27139 -10.27076
 Alpha  occ. eigenvalues --  -10.27024 -10.26992 -10.26809 -10.26704 -10.26698
 Alpha  occ. eigenvalues --  -10.26691 -10.26615 -10.26499 -10.26375 -10.26349
 Alpha  occ. eigenvalues --  -10.26316 -10.26154 -10.26045 -10.25952 -10.25915
 Alpha  occ. eigenvalues --  -10.25832 -10.25806 -10.25390 -10.25221 -10.25085
 Alpha  occ. eigenvalues --  -10.24673  -3.17797  -3.17258  -1.92663  -1.92239
 Alpha  occ. eigenvalues --   -1.92166  -1.92127  -1.91749  -1.91519  -1.18354
 Alpha  occ. eigenvalues --   -1.16916  -1.11376  -1.09625  -1.08703  -1.08688
 Alpha  occ. eigenvalues --   -1.08439  -1.07831  -1.05029  -1.04763  -1.04091
 Alpha  occ. eigenvalues --   -1.03786  -1.03608  -1.02612  -1.02245  -1.01873
 Alpha  occ. eigenvalues --   -0.93366  -0.91507  -0.88957  -0.88923  -0.88802
 Alpha  occ. eigenvalues --   -0.88730  -0.88634  -0.88034  -0.87365  -0.87108
 Alpha  occ. eigenvalues --   -0.87075  -0.86482  -0.86247  -0.85546  -0.84458
 Alpha  occ. eigenvalues --   -0.84406  -0.83976  -0.83743  -0.82630  -0.82596
 Alpha  occ. eigenvalues --   -0.81727  -0.81427  -0.81204  -0.80797  -0.80281
 Alpha  occ. eigenvalues --   -0.80037  -0.78019  -0.77922  -0.77562  -0.77357
 Alpha  occ. eigenvalues --   -0.77021  -0.76841  -0.76321  -0.75975  -0.75383
 Alpha  occ. eigenvalues --   -0.75126  -0.72793  -0.72688  -0.71813  -0.71720
 Alpha  occ. eigenvalues --   -0.69538  -0.69279  -0.69061  -0.68906  -0.68064
 Alpha  occ. eigenvalues --   -0.67987  -0.67342  -0.66211  -0.66115  -0.65284
 Alpha  occ. eigenvalues --   -0.65169  -0.65084  -0.64978  -0.64661  -0.64646
 Alpha  occ. eigenvalues --   -0.64352  -0.62825  -0.62771  -0.60033  -0.59864
 Alpha  occ. eigenvalues --   -0.59685  -0.59670  -0.59219  -0.59013  -0.58692
 Alpha  occ. eigenvalues --   -0.58474  -0.58117  -0.57812  -0.57322  -0.57320
 Alpha  occ. eigenvalues --   -0.56880  -0.56053  -0.56017  -0.55839  -0.55426
 Alpha  occ. eigenvalues --   -0.55102  -0.54974  -0.54804  -0.54690  -0.53848
 Alpha  occ. eigenvalues --   -0.53607  -0.53468  -0.53272  -0.53221  -0.52961
 Alpha  occ. eigenvalues --   -0.52878  -0.52682  -0.52533  -0.52093  -0.52036
 Alpha  occ. eigenvalues --   -0.51710  -0.51689  -0.51445  -0.51356  -0.51272
 Alpha  occ. eigenvalues --   -0.51250  -0.51189  -0.51058  -0.50952  -0.50144
 Alpha  occ. eigenvalues --   -0.50022  -0.49692  -0.49550  -0.49417  -0.49414
 Alpha  occ. eigenvalues --   -0.49209  -0.49139  -0.48857  -0.48682  -0.48594
 Alpha  occ. eigenvalues --   -0.48381  -0.48353  -0.48231  -0.48127  -0.47975
 Alpha  occ. eigenvalues --   -0.47941  -0.47773  -0.47553  -0.47312  -0.47262
 Alpha  occ. eigenvalues --   -0.46949  -0.46906  -0.46675  -0.46468  -0.46416
 Alpha  occ. eigenvalues --   -0.46091  -0.46029  -0.45912  -0.45875  -0.45669
 Alpha  occ. eigenvalues --   -0.45654  -0.45602  -0.45370  -0.45332  -0.45018
 Alpha  occ. eigenvalues --   -0.44857  -0.44833  -0.44528  -0.44466  -0.44211
 Alpha  occ. eigenvalues --   -0.43872  -0.43863  -0.43767  -0.43574  -0.43363
 Alpha  occ. eigenvalues --   -0.43342  -0.43267  -0.43077  -0.43030  -0.42959
 Alpha  occ. eigenvalues --   -0.42726  -0.42551  -0.42539  -0.42201  -0.42179
 Alpha  occ. eigenvalues --   -0.42046  -0.41766  -0.41678  -0.41665  -0.41238
 Alpha  occ. eigenvalues --   -0.41214  -0.41010  -0.40878  -0.40735  -0.40688
 Alpha  occ. eigenvalues --   -0.40288  -0.39804  -0.39637  -0.39447  -0.39300
 Alpha  occ. eigenvalues --   -0.38802  -0.38484  -0.38400  -0.38249  -0.37463
 Alpha  occ. eigenvalues --   -0.37175  -0.37117  -0.36945  -0.36732  -0.36505
 Alpha  occ. eigenvalues --   -0.36411  -0.36226  -0.34956  -0.34878  -0.34412
 Alpha  occ. eigenvalues --   -0.34069  -0.33161  -0.33120  -0.31669  -0.31418
 Alpha  occ. eigenvalues --   -0.31286  -0.30787  -0.30582  -0.30533  -0.30389
 Alpha  occ. eigenvalues --   -0.29930  -0.29920  -0.28959  -0.24289  -0.23798
 Alpha  occ. eigenvalues --   -0.21170  -0.21079
 Alpha virt. eigenvalues --   -0.08670  -0.08492  -0.02111  -0.01525   0.00084
 Alpha virt. eigenvalues --    0.00186   0.01555   0.01895   0.02810   0.02868
 Alpha virt. eigenvalues --    0.04904   0.04956   0.05035   0.05598   0.05886

 Mulliken charges:
               1
     1  Mg   0.836052
     2  C   -0.066012
     3  C   -0.099955
     4  C   -0.076343
     5  C   -0.074189
     6  N   -0.335345
     7  C   -0.053042
     8  C   -0.007726
     9  C   -0.038756
    10  C    0.100166
    11  C    0.060694
    12  C    0.062830
    13  C   -0.069978
    14  H    0.025074
    15  N   -0.347185
    16  C    0.138406
    17  C   -0.175871
    18  C   -0.042887
    19  C    0.173774
    20  C    0.164781
    21  C    0.001160
    22  O   -0.229653
    23  C    0.054743
    24  N   -0.257149
    25  C   -0.006503
    26  C   -0.021883
    27  C   -0.004495
    28  C    0.016292
    29  C    0.057121
    30  C    0.038537
    31  C   -0.002782
    32  N   -0.349152
    33  C    0.091956
    34  C   -0.191157
    35  C    0.001042
    36  C    0.118537
    37  C    0.151213
    38  C    0.079153
    39  O   -0.194295
    40  C    0.005610
    41  C    0.224978
    42  O   -0.216952
    43  O   -0.326246
    44  C    0.174450
    45  H   -0.017437
    46  H   -0.042418
    47  H   -0.036381
    48  H    0.000755
    49  H    0.004991
    50  H    0.014703
    51  H    0.013783
    52  H    0.016522
    53  H    0.006173
    54  H    0.005860
    55  H    0.043735
    56  H    0.028657
    57  H    0.042202
    58  H    0.047257
    59  H   -0.009989
    60  H    0.058717
    61  H    0.031799
    62  H    0.040172
    63  H    0.020085
    64  H    0.008973
    65  H    0.024748
    66  H    0.011838
    67  H    0.017637
    68  H    0.008225
    69  H    0.004551
    70  H    0.016535
    71  H    0.008816
    72  H    0.019719
    73  H   -0.000646
    74  H    0.052631
    75  H    0.027144
    76  H    0.034445
    77  H    0.037828
    78  H    0.033741
    79  H    0.035618
    80  Mg   0.807155
    81  C    0.010134
    82  C   -0.042639
    83  C   -0.040172
    84  C   -0.078397
    85  N   -0.216976
    86  C   -0.014067
    87  C   -0.051629
    88  C   -0.035721
    89  C   -0.041011
    90  C    0.091879
    91  C    0.029473
    92  C   -0.055068
    93  H    0.020472
    94  N   -0.403162
    95  C    0.176112
    96  C   -0.142573
    97  C   -0.065067
    98  C    0.100931
    99  C    0.112274
   100  C    0.006167
   101  O   -0.163591
   102  C    0.038888
   103  N   -0.314206
   104  C    0.051144
   105  C   -0.056857
   106  C   -0.004306
   107  C    0.059429
   108  C    0.060114
   109  C    0.013058
   110  C    0.020701
   111  N   -0.344760
   112  C    0.108659
   113  C   -0.166494
   114  C    0.012369
   115  C    0.108767
   116  C    0.113983
   117  C    0.067823
   118  O   -0.178378
   119  C   -0.028058
   120  C    0.157537
   121  O   -0.218583
   122  O   -0.295461
   123  C    0.187539
   124  H   -0.031050
   125  H   -0.001822
   126  H   -0.034031
   127  H    0.016172
   128  H   -0.005453
   129  H    0.024769
   130  H    0.019751
   131  H    0.008044
   132  H    0.014559
   133  H    0.002862
   134  H    0.029515
   135  H    0.038920
   136  H    0.016346
   137  H    0.018534
   138  H    0.011117
   139  H    0.037259
   140  H    0.030770
   141  H    0.013008
   142  H    0.024805
   143  H    0.004453
   144  H   -0.001441
   145  H    0.023664
   146  H    0.037638
   147  H   -0.001784
   148  H    0.004101
   149  H    0.009604
   150  H    0.020962
   151  H    0.019946
   152  H    0.016270
   153  H    0.039055
   154  H    0.036298
   155  H    0.044762
   156  H    0.067542
   157  H    0.009292
   158  H    0.038128
 Sum of Mulliken charges =  -0.00000

 Dipole moment (field-independent basis, Debye):
    X=             -1.8096    Y=              2.4267    Z=              3.5180  Tot=              4.6411
 Quadrupole moment (field-independent basis, Debye-Ang):
   XX=           -494.5667   YY=           -500.2776   ZZ=           -553.5915
   XY=            -37.1319   XZ=              0.0940   YZ=            -27.4380

 Normal termination of Gaussian 16 at Thu Sep 16 12:48:23 2021.
