 Gaussian 16, Revision A.03,
 Gaussian 16:  ES64L-G16RevA.03 25-Dec-2016

 -----------------------------------
 #p cam-b3lyp/Def2SVP td=(nstates=5)
 -----------------------------------

 --------------------------------
 TDDFT excited states in gaussian
 --------------------------------
 Symbolic Z-matrix:
 Charge =  0 Multiplicity = 1

                         Standard orientation:
 ---------------------------------------------------------------------
 Center     Atomic      Atomic             Coordinates (Angstroms)
 Number     Number       Type             X           Y           Z
 ---------------------------------------------------------------------
      1         12           0       20.362011   -0.052059   -0.649250
      2          6           0       17.786639    0.791322    1.721060
      3          6           0       20.874416   -2.895200    1.169495
      4          6           0       22.956479   -0.678239   -2.681023
      5          6           0       19.998018    3.045606   -1.999488
      6          7           0       19.340483   -0.987199    1.284566
      7          6           0       18.307064   -0.436248    1.985232
      8          6           0       17.859759   -1.447451    2.971500
      9          6           0       18.921409   -2.580239    2.907792
     10          6           0       19.856210   -2.166675    1.738353
     11          6           0       19.724280   -2.701410    4.242023
     12          6           0       16.447598   -1.950317    2.805123
     13          6           0       15.829928   -2.803457    3.901288
     14          1           0       14.493311   -2.411402    4.374232
     15          7           0       21.634762   -1.608169   -0.807216
     16          6           0       21.760837   -2.677035    0.122525
     17          6           0       22.755953   -3.607770   -0.442355
     18          6           0       23.385300   -2.914152   -1.472751
     19          6           0       22.689498   -1.627450   -1.655551
     20          6           0       23.050686   -4.938007    0.218781
     21          6           0       24.544879   -3.354870   -2.392027
     22          8           0       25.182768   -2.581441   -3.130692
     23          6           0       24.879732   -4.790545   -2.399511
     24          7           0       21.415059    1.053671   -2.118184
     25          6           0       22.428325    0.629595   -2.845206
     26          6           0       22.954519    1.690840   -3.850165
     27          6           0       21.839666    2.735785   -3.767141
     28          6           0       21.015745    2.237203   -2.602113
     29          6           0       24.350492    2.252501   -3.416381
     30          6           0       21.005795    2.946305   -5.010813
     31          6           0       20.675316    4.402924   -5.381840
     32          7           0       19.093111    1.527567   -0.288221
     33          6           0       19.070477    2.735130   -0.951203
     34          6           0       17.970097    3.611237   -0.447358
     35          6           0       17.516834    2.830944    0.597138
     36          6           0       18.227624    1.629444    0.704241
     37          6           0       17.442113    4.879447   -1.037168
     38          6           0       16.525930    2.825456    1.663230
     39          8           0       15.672012    3.673901    1.894898
     40          6           0       16.644310    1.500384    2.450644
     41          6           0       16.724879    1.858047    3.843882
     42          8           0       17.722085    2.322862    4.446917
     43          8           0       15.597100    1.464026    4.497586
     44          6           0       15.590628    1.481917    5.944078
     45          1           0       20.992784   -3.848072    1.689075
     46          1           0       23.892619   -0.801371   -3.229317
     47          1           0       20.120523    4.076451   -2.337756
     48          1           0       17.950918   -0.914837    3.917226
     49          1           0       18.476858   -3.556431    2.713309
     50          1           0       19.860734   -3.640621    4.779017
     51          1           0       19.199578   -2.034916    4.926365
     52          1           0       20.710463   -2.236480    4.231789
     53          1           0       16.364470   -2.614658    1.944816
     54          1           0       15.780224   -1.174391    2.431111
     55          1           0       16.460219   -2.804203    4.789314
     56          1           0       15.584550   -3.749872    3.420126
     57          1           0       24.112339   -5.156002    0.332958
     58          1           0       22.600013   -5.793126   -0.284568
     59          1           0       22.712187   -5.021965    1.251776
     60          1           0       23.963124   -5.356522   -2.566254
     61          1           0       25.247962   -4.945887   -1.386020
     62          1           0       25.511908   -4.952437   -3.271802
     63          1           0       22.990067    1.194972   -4.820795
     64          1           0       22.144409    3.739660   -3.472771
     65          1           0       24.286659    3.298001   -3.116248
     66          1           0       25.059190    2.234238   -4.244356
     67          1           0       24.653364    1.641747   -2.565746
     68          1           0       20.070264    2.389342   -4.970011
     69          1           0       21.497560    2.328710   -5.761675
     70          1           0       20.545181    4.427317   -6.463331
     71          1           0       21.387122    5.120723   -4.973000
     72          1           0       19.741092    4.547442   -4.839624
     73          1           0       16.530326    4.756363   -1.621927
     74          1           0       18.294088    5.336142   -1.540017
     75          1           0       17.318690    5.617330   -0.243481
     76          1           0       15.659586    1.042951    2.355282
     77          1           0       16.553808    1.711715    6.400462
     78          1           0       15.158438    0.562373    6.337783
     79          1           0       14.913660    2.239353    6.340046
     80         12           0      -20.540498    0.261028    0.118339
     81          6           0      -18.541054   -2.552016   -0.279337
     82          6           0      -17.707747    1.764834    1.707563
     83          6           0      -22.126811    3.140054    0.128363
     84          6           0      -22.874884   -1.179475   -2.080142
     85          7           0      -18.354691   -0.303195    0.529689
     86          6           0      -17.838507   -1.565300    0.338845
     87          6           0      -16.377914   -1.611644    0.795778
     88          6           0      -16.275173   -0.321553    1.655625
     89          6           0      -17.494270    0.469238    1.259698
     90          6           0      -16.209997   -0.465636    3.226855
     91          6           0      -15.380722   -1.649075   -0.373932
     92          6           0      -13.963725   -1.865495   -0.001867
     93          1           0      -13.006009   -2.430810   -1.119138
     94          7           0      -20.001186    2.225346    0.813806
     95          6           0      -18.817462    2.623922    1.454147
     96          6           0      -18.933630    4.019124    1.775112
     97          6           0      -20.173103    4.479220    1.195341
     98          6           0      -20.849289    3.234540    0.690441
     99          6           0      -17.796017    4.826325    2.459333
    100          6           0      -20.615551    5.945130    1.243706
    101          8           0      -20.015929    6.778375    1.902620
    102          6           0      -21.811353    6.359783    0.474545
    103          7           0      -22.372450    0.798791   -0.670725
    104          6           0      -22.818076    2.045857   -0.484397
    105          6           0      -24.143446    2.269421   -1.319362
    106          6           0      -24.397861    0.920269   -2.095419
    107          6           0      -23.073591    0.103580   -1.625028
    108          6           0      -25.383510    2.815619   -0.564008
    109          6           0      -24.404286    1.172799   -3.618307
    110          6           0      -25.279878    0.215071   -4.435492
    111          7           0      -20.751385   -1.504556   -0.998703
    112          6           0      -21.787033   -2.008982   -1.734309
    113          6           0      -21.477329   -3.402262   -2.076840
    114          6           0      -20.285518   -3.662734   -1.455456
    115          6           0      -19.837691   -2.498104   -0.874306
    116          6           0      -22.391983   -4.369762   -2.834935
    117          6           0      -19.283699   -4.667304   -1.260954
    118          8           0      -19.221278   -5.823977   -1.597989
    119          6           0      -18.112569   -3.989623   -0.474034
    120          6           0      -18.010504   -4.665929    0.848327
    121          8           0      -18.901443   -4.888696    1.620372
    122          8           0      -16.651874   -4.889249    1.131489
    123          6           0      -16.372333   -5.466438    2.415487
    124          1           0      -16.828704    2.100386    2.260932
    125          1           0      -22.777519    4.015671    0.071377
    126          1           0      -23.613010   -1.683801   -2.707462
    127          1           0      -16.304699   -2.466857    1.466238
    128          1           0      -15.451936    0.348997    1.411652
    129          1           0      -15.340542    0.128260    3.507897
    130          1           0      -16.408150   -1.447604    3.657316
    131          1           0      -17.052352    0.103288    3.620110
    132          1           0      -15.289131   -0.724617   -0.944744
    133          1           0      -15.683260   -2.410617   -1.092783
    134          1           0      -13.966470   -2.542591    0.852318
    135          1           0      -13.553099   -0.929778    0.377102
    136          1           0      -17.461481    5.362249    1.570519
    137          1           0      -16.918716    4.253974    2.761444
    138          1           0      -17.961510    5.518325    3.285280
    139          1           0      -21.649458    5.950994   -0.522835
    140          1           0      -21.805847    7.446690    0.391082
    141          1           0      -22.634713    5.900709    1.022300
    142          1           0      -23.903351    3.056148   -2.035123
    143          1           0      -25.288202    0.370748   -1.791430
    144          1           0      -25.520446    3.858212   -0.852732
    145          1           0      -25.243607    2.641715    0.502381
    146          1           0      -26.283546    2.321239   -0.929497
    147          1           0      -23.359250    1.093353   -3.916703
    148          1           0      -24.653245    2.196527   -3.898488
    149          1           0      -25.960977    0.891790   -4.952632
    150          1           0      -25.778120   -0.556988   -3.849029
    151          1           0      -24.685009   -0.276953   -5.205096
    152          1           0      -21.920118   -4.979917   -3.604389
    153          1           0      -23.142997   -3.691920   -3.241347
    154          1           0      -22.956845   -4.905734   -2.072036
    155          1           0      -17.214076   -4.145495   -1.071244
    156          1           0      -16.040596   -6.487445    2.226592
    157          1           0      -17.154031   -5.487639    3.175208
    158          1           0      -15.568387   -4.882844    2.863212
 ---------------------------------------------------------------------

 SCF Done:  E(RCAM-B3LYP) =  -4069.82455257     A.U. after   17 cycles

 Excitation energies and oscillator strengths:

 Excited State   1:      Singlet-A      1.7540 eV  706.88 nm  f=0.3583  <S**2>=0.000
     310 -> 316       -0.19873
     312 -> 314        0.68064
     310 <- 316       -0.11261
 This state for optimization and/or second-order correction.
 Total Energy, E(TD-HF/TD-DFT) =  -4069.76009515
 Copying the excited state density for this state as the 1-particle RhoCI density.

 Excited State   2:      Singlet-A      1.7656 eV  702.21 nm  f=0.4154  <S**2>=0.000
     309 -> 315        0.17223
     311 -> 313        0.68685
     309 <- 315        0.10334

 Excited State   3:      Singlet-A      2.2943 eV  540.40 nm  f=0.1181  <S**2>=0.000
     309 -> 313        0.63733
     311 -> 315       -0.29069

 Excited State   4:      Singlet-A      2.3187 eV  534.70 nm  f=0.0717  <S**2>=0.000
     310 -> 314        0.61702
     312 -> 316        0.33882

 Excited State   5:      Singlet-A      3.0051 eV  412.58 nm  f=0.0000  <S**2>=0.000
     312 -> 313        0.70710

 The electronic state is 1-A.
 Alpha  occ. eigenvalues --  -46.89661 -46.88517 -19.25181 -19.24947 -19.20499
 Alpha  occ. eigenvalues --  -19.19045 -19.18854 -19.18688 -19.18625 -19.18529
 Alpha  occ. eigenvalues --  -14.42657 -14.42344 -14.41923 -14.41119 -14.40226
 Alpha  occ. eigenvalues --  -14.39781 -14.39615 -14.39095 -10.39508 -10.39157
 Alpha  occ. eigenvalues --  -10.35264 -10.34857 -10.34468 -10.34155 -10.32361
 Alpha  occ. eigenvalues --  -10.31593 -10.31236 -10.31228 -10.31177 -10.31119
 Alpha  occ. eigenvalues --  -10.31076 -10.30766 -10.30623 -10.30576 -10.30562
 Alpha  occ. eigenvalues --  -10.30491 -10.30421 -10.30409 -10.30098 -10.29541
 Alpha  occ. eigenvalues --  -10.29233 -10.29051 -10.28618 -10.28588 -10.28418
 Alpha  occ. eigenvalues --  -10.28348 -10.28248 -10.28230 -10.28186 -10.28168
 Alpha  occ. eigenvalues --  -10.28136 -10.28028 -10.28007 -10.27969 -10.27903
 Alpha  occ. eigenvalues --  -10.27787 -10.27745 -10.27744 -10.27620 -10.27552
 Alpha  occ. eigenvalues --  -10.27524 -10.27412 -10.27342 -10.27239 -10.27095
 Alpha  occ. eigenvalues --  -10.26982 -10.26934 -10.26921 -10.26798 -10.26536
 Alpha  occ. eigenvalues --  -10.26495 -10.26404 -10.26301 -10.26241 -10.26232
 Alpha  occ. eigenvalues --  -10.26109 -10.26073 -10.26061 -10.26000 -10.25950
 Alpha  occ. eigenvalues --  -10.25936 -10.25781 -10.25711 -10.25627 -10.24621
 Alpha  occ. eigenvalues --  -10.23984  -3.18082  -3.17122  -1.92988  -1.92540
 Alpha  occ. eigenvalues --   -1.92369  -1.92031  -1.91569  -1.91435  -1.16621
 Alpha  occ. eigenvalues --   -1.16128  -1.10339  -1.10115  -1.09491  -1.09077
 Alpha  occ. eigenvalues --   -1.08832  -1.05975  -1.05783  -1.04595  -1.04594
 Alpha  occ. eigenvalues --   -1.03790  -1.03722  -1.03092  -1.02824  -1.02197
 Alpha  occ. eigenvalues --   -0.93266  -0.93180  -0.90108  -0.89415  -0.89332
 Alpha  occ. eigenvalues --   -0.89234  -0.88838  -0.88493  -0.88093  -0.87605
 Alpha  occ. eigenvalues --   -0.87096  -0.86640  -0.86459  -0.85948  -0.85213
 Alpha  occ. eigenvalues --   -0.84690  -0.84082  -0.84049  -0.83163  -0.82949
 Alpha  occ. eigenvalues --   -0.82621  -0.82587  -0.81301  -0.81258  -0.80894
 Alpha  occ. eigenvalues --   -0.80853  -0.78684  -0.77761  -0.77735  -0.77458
 Alpha  occ. eigenvalues --   -0.77353  -0.77111  -0.76590  -0.76207  -0.75527
 Alpha  occ. eigenvalues --   -0.75262  -0.73248  -0.73006  -0.72047  -0.71970
 Alpha  occ. eigenvalues --   -0.69560  -0.69337  -0.69278  -0.69073  -0.68101
 Alpha  occ. eigenvalues --   -0.67789  -0.66766  -0.66547  -0.66436  -0.66099
 Alpha  occ. eigenvalues --   -0.65581  -0.65426  -0.65124  -0.64980  -0.64616
 Alpha  occ. eigenvalues --   -0.64574  -0.62700  -0.62559  -0.60424  -0.60240
 Alpha  occ. eigenvalues --   -0.59920  -0.59899  -0.59505  -0.59314  -0.58857
 Alpha  occ. eigenvalues --   -0.58791  -0.58459  -0.58411  -0.57627  -0.57574
 Alpha  occ. eigenvalues --   -0.56505  -0.56482  -0.55905  -0.55766  -0.55532
 Alpha  occ. eigenvalues --   -0.55478  -0.54932  -0.54455  -0.54389  -0.54045
 Alpha  occ. eigenvalues --   -0.54028  -0.53907  -0.53573  -0.53502  -0.53319
 Alpha  occ. eigenvalues --   -0.53183  -0.53150  -0.52983  -0.52647  -0.51987
 Alpha  occ. eigenvalues --   -0.51908  -0.51895  -0.51725  -0.51703  -0.51657
 Alpha  occ. eigenvalues --   -0.51225  -0.50841  -0.50804  -0.50738  -0.50500
 Alpha  occ. eigenvalues --   -0.50367  -0.50308  -0.50288  -0.49946  -0.49879
 Alpha  occ. eigenvalues --   -0.49667  -0.49319  -0.49092  -0.49049  -0.48859
 Alpha  occ. eigenvalues --   -0.48656  -0.48397  -0.48356  -0.48298  -0.48103
 Alpha  occ. eigenvalues --   -0.47973  -0.47815  -0.47541  -0.47380  -0.47377
 Alpha  occ. eigenvalues --   -0.47248  -0.47156  -0.47097  -0.47019  -0.46554
 Alpha  occ. eigenvalues --   -0.46466  -0.46405  -0.46245  -0.46149  -0.46057
 Alpha  occ. eigenvalues --   -0.45809  -0.45586  -0.45327  -0.45155  -0.45133
 Alpha  occ. eigenvalues --   -0.45068  -0.44674  -0.44542  -0.44169  -0.43976
 Alpha  occ. eigenvalues --   -0.43914  -0.43876  -0.43722  -0.43694  -0.43432
 Alpha  occ. eigenvalues --   -0.43320  -0.43237  -0.43165  -0.42958  -0.42717
 Alpha  occ. eigenvalues --   -0.42514  -0.42449  -0.42385  -0.42296  -0.42057
 Alpha  occ. eigenvalues --   -0.42032  -0.41863  -0.41767  -0.41697  -0.41578
 Alpha  occ. eigenvalues --   -0.41541  -0.41249  -0.41082  -0.40882  -0.40610
 Alpha  occ. eigenvalues --   -0.40264  -0.40136  -0.39948  -0.39920  -0.39716
 Alpha  occ. eigenvalues --   -0.38829  -0.38819  -0.38047  -0.37926  -0.37676
 Alpha  occ. eigenvalues --   -0.37056  -0.36908  -0.36523  -0.36091  -0.36082
 Alpha  occ. eigenvalues --   -0.36017  -0.35659  -0.35251  -0.34247  -0.33828
 Alpha  occ. eigenvalues --   -0.33724  -0.33549  -0.33023  -0.31765  -0.31580
 Alpha  occ. eigenvalues --   -0.31059  -0.31034  -0.30658  -0.30604  -0.30556
 Alpha  occ. eigenvalues --   -0.30276  -0.30124  -0.29947  -0.24669  -0.24088
 Alpha  occ. eigenvalues --   -0.21663  -0.20926
 Alpha virt. eigenvalues --   -0.09032  -0.08163  -0.01940  -0.01806   0.00734
 Alpha virt. eigenvalues --    0.00918   0.02033   0.02506   0.02729   0.03005
 Alpha virt. eigenvalues --    0.04415   0.04542   0.05397   0.05508   0.05823

 Mulliken charges:
               1
     1  Mg   0.834425
     2  C    0.024632
     3  C   -0.055723
     4  C   -0.051633
     5  C   -0.106217
     6  N   -0.264134
     7  C   -0.113528
     8  C    0.060316
     9  C   -0.062130
    10  C    0.034822
    11  C    0.055109
    12  C    0.051957
    13  C   -0.062155
    14  H    0.017742
    15  N   -0.433220
    16  C    0.175019
    17  C   -0.115150
    18  C   -0.045470
    19  C    0.143483
    20  C    0.083554
    21  C    0.007302
    22  O   -0.223193
    23  C    0.070550
    24  N   -0.254198
    25  C   -0.037002
    26  C   -0.004025
    27  C   -0.057297
    28  C    0.011869
    29  C    0.079535
    30  C    0.047616
    31  C    0.022751
    32  N   -0.327798
    33  C    0.125508
    34  C   -0.201406
    35  C    0.044243
    36  C    0.113394
    37  C    0.151090
    38  C   -0.008652
    39  O   -0.172860
    40  C    0.036422
    41  C    0.195456
    42  O   -0.253661
    43  O   -0.318320
    44  C    0.171997
    45  H   -0.038305
    46  H    0.004208
    47  H   -0.019198
    48  H    0.008457
    49  H    0.010561
    50  H    0.018381
    51  H   -0.002285
    52  H    0.013814
    53  H   -0.010875
    54  H    0.002147
    55  H    0.034899
    56  H    0.034205
    57  H    0.018590
    58  H    0.030379
    59  H    0.016783
    60  H    0.031165
    61  H    0.040931
    62  H    0.035936
    63  H    0.017085
    64  H    0.006257
    65  H    0.011856
    66  H    0.025625
    67  H    0.033364
    68  H   -0.002029
    69  H   -0.015548
    70  H    0.028557
    71  H    0.017473
    72  H    0.021548
    73  H    0.054876
    74  H   -0.004386
    75  H    0.025629
    76  H    0.050954
    77  H    0.050000
    78  H    0.029556
    79  H    0.028372
    80  Mg   0.819422
    81  C    0.006851
    82  C   -0.063013
    83  C   -0.089690
    84  C   -0.063126
    85  N   -0.264019
    86  C   -0.106213
    87  C    0.076808
    88  C   -0.101761
    89  C    0.006184
    90  C    0.083460
    91  C    0.079419
    92  C   -0.054121
    93  H    0.025125
    94  N   -0.352387
    95  C    0.164035
    96  C   -0.119923
    97  C   -0.079704
    98  C    0.210314
    99  C    0.108897
   100  C   -0.024728
   101  O   -0.198796
   102  C    0.067343
   103  N   -0.318189
   104  C    0.038765
   105  C   -0.072141
   106  C   -0.046007
   107  C    0.073388
   108  C    0.071530
   109  C    0.009606
   110  C    0.015622
   111  N   -0.337707
   112  C    0.071509
   113  C   -0.219947
   114  C    0.070803
   115  C    0.099092
   116  C    0.148644
   117  C    0.009751
   118  O   -0.147693
   119  C   -0.000604
   120  C    0.189465
   121  O   -0.181748
   122  O   -0.348340
   123  C    0.164118
   124  H   -0.030979
   125  H   -0.042629
   126  H   -0.031369
   127  H   -0.002971
   128  H    0.005838
   129  H    0.021170
   130  H    0.026156
   131  H    0.008154
   132  H    0.004422
   133  H    0.011753
   134  H    0.014301
   135  H    0.018035
   136  H    0.035839
   137  H   -0.003306
   138  H    0.050506
   139  H    0.031105
   140  H    0.030893
   141  H    0.058538
   142  H    0.015114
   143  H    0.017510
   144  H    0.014332
   145  H    0.028267
   146  H    0.012867
   147  H    0.008932
   148  H    0.006509
   149  H    0.015379
   150  H    0.022914
   151  H    0.016379
   152  H    0.047889
   153  H   -0.016033
   154  H    0.035025
   155  H    0.042131
   156  H    0.038370
   157  H    0.044909
   158  H    0.023756
 Sum of Mulliken charges =  -0.00000

 Dipole moment (field-independent basis, Debye):
    X=             -0.5238    Y=             -1.6861    Z=             -1.1685  Tot=              2.1172
 Quadrupole moment (field-independent basis, Debye-Ang):
   XX=           -438.5882   YY=           -547.5509   ZZ=           -495.5461
   XY=           -133.0481   XZ=             -2.3886   YZ=            -47.6332

 Normal termination of Gaussian 16 at Thu Sep 16 01:48:47 2021.
