 Gaussian 16, Revision A.03,
 Gaussian 16:  ES64L-G16RevA.03 25-Dec-2016

 -----------------------------------
 #p cam-b3lyp/Def2SVP td=(nstates=5)
 -----------------------------------

 --------------------------------
 TDDFT excited states in gaussian
 --------------------------------
 Symbolic Z-matrix:
 Charge =  0 Multiplicity = 1

                         Standard orientation:
 ---------------------------------------------------------------------
 Center     Atomic      Atomic             Coordinates (Angstroms)
 Number     Number       Type             X           Y           Z
 ---------------------------------------------------------------------
      1         12           0      -30.724114   -0.072999   -0.216344
      2          6           0      -27.377855    0.528692   -0.041651
      3          6           0      -30.115512   -3.118877    1.326860
      4          6           0      -34.050915   -0.492231   -0.045357
      5          6           0      -31.293825    3.273014   -1.146612
      6          7           0      -28.955379   -1.049044    0.789085
      7          6           0      -27.695094   -0.587637    0.661967
      8          6           0      -26.708138   -1.416310    1.399935
      9          6           0      -27.582832   -2.814527    1.511292
     10          6           0      -29.009587   -2.323243    1.187971
     11          6           0      -27.045070   -3.940038    0.579074
     12          6           0      -26.430188   -0.794636    2.759356
     13          6           0      -27.651743   -0.495821    3.746396
     14          1           0      -27.515733   -0.754047    5.241795
     15          7           0      -31.920117   -1.577991    0.529358
     16          6           0      -31.479995   -2.836481    1.011823
     17          6           0      -32.636265   -3.657317    1.151169
     18          6           0      -33.784466   -2.946708    0.824036
     19          6           0      -33.321412   -1.624565    0.370055
     20          6           0      -32.443573   -5.083239    1.625938
     21          6           0      -35.218668   -3.395522    0.971879
     22          8           0      -35.381183   -4.552568    1.433453
     23          6           0      -36.373515   -2.572556    0.837372
     24          7           0      -32.422092    1.299311   -0.346292
     25          6           0      -33.705166    0.839133   -0.298730
     26          6           0      -34.720236    1.981095   -0.544204
     27          6           0      -33.790700    3.190605   -0.897804
     28          6           0      -32.409341    2.584006   -0.718120
     29          6           0      -35.749166    1.657110   -1.606227
     30          6           0      -34.085628    4.458829    0.067682
     31          6           0      -34.092549    5.808861   -0.658505
     32          7           0      -29.595823    1.663034   -0.566574
     33          6           0      -29.907942    2.863028   -1.120862
     34          6           0      -28.666644    3.492541   -1.481094
     35          6           0      -27.580685    2.618661   -1.128223
     36          6           0      -28.217275    1.532544   -0.550683
     37          6           0      -28.510634    4.918441   -1.885743
     38          6           0      -26.171814    2.413334   -1.023501
     39          8           0      -25.315917    3.203758   -1.440666
     40          6           0      -25.998365    1.059259   -0.360727
     41          6           0      -25.222599    0.183455   -1.272291
     42          8           0      -24.122421    0.541209   -1.644567
     43          8           0      -25.807864   -1.015935   -1.541562
     44          6           0      -25.040529   -1.898977   -2.422101
     45          1           0      -29.903862   -4.166714    1.549264
     46          1           0      -35.104835   -0.726855   -0.207582
     47          1           0      -31.380613    4.260244   -1.605892
     48          1           0      -25.729168   -1.575992    0.947917
     49          1           0      -27.439987   -3.285417    2.484767
     50          1           0      -26.777221   -4.815682    1.169219
     51          1           0      -26.133191   -3.558440    0.119004
     52          1           0      -27.723849   -4.229950   -0.224044
     53          1           0      -25.820129    0.091751    2.584225
     54          1           0      -25.671917   -1.464824    3.164115
     55          1           0      -28.577499   -1.028406    3.528210
     56          1           0      -27.752846    0.584392    3.645549
     57          1           0      -32.417544   -5.023740    2.714164
     58          1           0      -31.473504   -5.440769    1.282895
     59          1           0      -33.196371   -5.805718    1.309206
     60          1           0      -37.191662   -2.915528    1.471489
     61          1           0      -36.666409   -2.396577   -0.198488
     62          1           0      -36.096000   -1.631491    1.310281
     63          1           0      -35.178375    2.116201    0.436192
     64          1           0      -33.877955    3.414980   -1.960711
     65          1           0      -35.699443    0.632711   -1.974364
     66          1           0      -35.906034    2.313980   -2.461381
     67          1           0      -36.671976    1.603760   -1.027842
     68          1           0      -33.374699    4.564461    0.887214
     69          1           0      -35.023364    4.349289    0.612142
     70          1           0      -35.124582    6.153317   -0.718687
     71          1           0      -33.777541    5.641900   -1.688771
     72          1           0      -33.484131    6.563712   -0.160140
     73          1           0      -28.899825    5.211164   -2.860163
     74          1           0      -27.438777    5.112689   -1.831786
     75          1           0      -29.018838    5.597269   -1.200807
     76          1           0      -25.418340    1.238570    0.545017
     77          1           0      -24.067747   -2.066135   -1.958766
     78          1           0      -24.959156   -1.528778   -3.444201
     79          1           0      -25.588183   -2.821930   -2.612147
     80         12           0       30.661023    0.356595   -0.345416
     81          6           0       27.774029   -1.415374   -0.040130
     82          6           0       28.876449    3.268107    0.574847
     83          6           0       33.581407    1.799418    0.392014
     84          6           0       32.488881   -2.733152   -0.739139
     85          7           0       28.595311    0.813131    0.160530
     86          6           0       27.583233    0.015097    0.247486
     87          6           0       26.210284    0.765003    0.380846
     88          6           0       26.580635    2.293761    0.281289
     89          6           0       28.143646    2.176492    0.303813
     90          6           0       25.897060    3.088012   -0.832589
     91          6           0       25.387844    0.317821    1.730116
     92          6           0       26.164623   -0.271022    2.896581
     93          1           0       25.560546   -0.293533    4.300666
     94          7           0       31.145474    2.272113    0.392428
     95          6           0       30.308734    3.333720    0.639905
     96          6           0       31.052080    4.417504    1.117651
     97          6           0       32.446355    4.025828    1.123618
     98          6           0       32.450687    2.614919    0.655039
     99          6           0       30.398743    5.767242    1.351675
    100          6           0       33.600908    4.945035    1.561666
    101          8           0       33.312697    6.103223    1.938404
    102          6           0       34.991008    4.591892    1.580549
    103          7           0       32.795950   -0.424013   -0.035344
    104          6           0       33.745232    0.462587    0.064926
    105          6           0       35.166718   -0.146903   -0.098394
    106          6           0       34.825552   -1.594354   -0.514890
    107          6           0       33.245487   -1.658754   -0.464945
    108          6           0       36.015107    0.527743   -1.115152
    109          6           0       35.544156   -2.691276    0.403713
    110          6           0       36.676716   -3.551689   -0.293498
    111          7           0       30.288483   -1.664546   -0.506499
    112          6           0       31.077932   -2.805591   -0.696721
    113          6           0       30.178117   -3.996706   -0.796509
    114          6           0       28.911824   -3.472208   -0.501032
    115          6           0       29.018450   -2.064292   -0.297829
    116          6           0       30.516224   -5.382657   -1.059077
    117          6           0       27.600299   -3.888997   -0.299909
    118          8           0       27.027810   -4.986300   -0.372157
    119          6           0       26.784840   -2.582087   -0.086601
    120          6           0       25.670651   -2.529992   -1.158865
    121          8           0       24.473177   -2.387675   -0.979006
    122          8           0       26.171082   -2.661877   -2.436157
    123          6           0       25.210310   -2.667752   -3.545720
    124          1           0       28.249799    4.096953    0.910202
    125          1           0       34.570393    2.256755    0.461268
    126          1           0       33.035989   -3.632722   -1.028417
    127          1           0       25.668433    0.570017   -0.544999
    128          1           0       26.366167    2.829640    1.206439
    129          1           0       26.641599    3.418556   -1.556553
    130          1           0       25.403339    3.984761   -0.456393
    131          1           0       25.088841    2.573905   -1.352836
    132          1           0       24.642489   -0.356178    1.307232
    133          1           0       24.877046    1.126783    2.252829
    134          1           0       27.077097    0.324574    2.905293
    135          1           0       26.448792   -1.271961    2.571321
    136          1           0       30.779499    6.650898    0.838885
    137          1           0       30.346780    5.945550    2.425991
    138          1           0       29.352287    5.708398    1.053018
    139          1           0       35.461991    4.326866    0.634123
    140          1           0       35.137612    3.660701    2.126884
    141          1           0       35.616075    5.303071    2.119664
    142          1           0       35.833704   -0.155680    0.763571
    143          1           0       35.029973   -1.799443   -1.565792
    144          1           0       36.799813    1.166958   -0.710803
    145          1           0       35.439077    1.275888   -1.660909
    146          1           0       36.463510   -0.210178   -1.780164
    147          1           0       34.795623   -3.431807    0.688766
    148          1           0       36.074825   -2.282124    1.262350
    149          1           0       37.548599   -3.603558    0.357391
    150          1           0       37.025602   -2.999032   -1.165917
    151          1           0       36.250898   -4.551194   -0.383560
    152          1           0       31.395307   -5.327474   -1.701584
    153          1           0       29.706685   -5.881638   -1.592979
    154          1           0       30.621722   -5.859357   -0.084987
    155          1           0       26.114182   -2.629494    0.771035
    156          1           0       25.663121   -3.192295   -4.387314
    157          1           0       24.911893   -1.710759   -3.973443
    158          1           0       24.239639   -3.090868   -3.285462
 ---------------------------------------------------------------------

 SCF Done:  E(RCAM-B3LYP) =  -4069.77803212     A.U. after   19 cycles

 Excitation energies and oscillator strengths:

 Excited State   1:      Singlet-A      1.7059 eV  726.78 nm  f=0.4330  <S**2>=0.000
     309 -> 315       -0.16085
     311 -> 313        0.68878
     309 <- 315       -0.10272
 This state for optimization and/or second-order correction.
 Total Energy, E(TD-HF/TD-DFT) =  -4069.71534029
 Copying the excited state density for this state as the 1-particle RhoCI density.

 Excited State   2:      Singlet-A      1.7418 eV  711.81 nm  f=0.3926  <S**2>=0.000
     310 -> 316        0.17693
     312 -> 314        0.68527
     310 <- 316        0.10391

 Excited State   3:      Singlet-A      2.2176 eV  559.10 nm  f=0.1300  <S**2>=0.000
     310 -> 314        0.65047
     312 -> 316       -0.25334

 Excited State   4:      Singlet-A      2.2508 eV  550.84 nm  f=0.1193  <S**2>=0.000
     309 -> 313        0.64223
     311 -> 315        0.27237

 Excited State   5:      Singlet-A      3.1503 eV  393.56 nm  f=0.0000  <S**2>=0.000
     312 -> 313        0.70711

 The electronic state is 1-A.
 Alpha  occ. eigenvalues --  -46.90322 -46.89110 -19.26394 -19.24903 -19.20119
 Alpha  occ. eigenvalues --  -19.19479 -19.18977 -19.18279 -19.18164 -19.17430
 Alpha  occ. eigenvalues --  -14.43207 -14.42081 -14.42063 -14.41933 -14.40548
 Alpha  occ. eigenvalues --  -14.39830 -14.39791 -14.38607 -10.39728 -10.39468
 Alpha  occ. eigenvalues --  -10.34838 -10.34724 -10.34450 -10.34267 -10.33010
 Alpha  occ. eigenvalues --  -10.32744 -10.31781 -10.31681 -10.31513 -10.31277
 Alpha  occ. eigenvalues --  -10.31219 -10.31188 -10.30761 -10.30748 -10.30655
 Alpha  occ. eigenvalues --  -10.30521 -10.30389 -10.30386 -10.30213 -10.29643
 Alpha  occ. eigenvalues --  -10.29310 -10.29273 -10.29202 -10.29046 -10.29035
 Alpha  occ. eigenvalues --  -10.28814 -10.28561 -10.28479 -10.28460 -10.28428
 Alpha  occ. eigenvalues --  -10.28377 -10.28343 -10.28302 -10.28280 -10.28209
 Alpha  occ. eigenvalues --  -10.28023 -10.27733 -10.27732 -10.27571 -10.27401
 Alpha  occ. eigenvalues --  -10.27362 -10.27294 -10.27230 -10.27185 -10.27176
 Alpha  occ. eigenvalues --  -10.27101 -10.27076 -10.27048 -10.26997 -10.26914
 Alpha  occ. eigenvalues --  -10.26841 -10.26774 -10.26715 -10.26547 -10.26469
 Alpha  occ. eigenvalues --  -10.26410 -10.26341 -10.26166 -10.26016 -10.25659
 Alpha  occ. eigenvalues --  -10.25620 -10.25619 -10.25556 -10.24973 -10.24918
 Alpha  occ. eigenvalues --  -10.24553  -3.18729  -3.17563  -1.93608  -1.93218
 Alpha  occ. eigenvalues --   -1.92996  -1.92439  -1.92038  -1.91845  -1.17418
 Alpha  occ. eigenvalues --   -1.16147  -1.09063  -1.09054  -1.08400  -1.07994
 Alpha  occ. eigenvalues --   -1.07624  -1.07359  -1.05043  -1.04986  -1.04544
 Alpha  occ. eigenvalues --   -1.04519  -1.03650  -1.02733  -1.02258  -1.01517
 Alpha  occ. eigenvalues --   -0.94073  -0.93008  -0.89679  -0.89440  -0.89284
 Alpha  occ. eigenvalues --   -0.89048  -0.88997  -0.88752  -0.88333  -0.87809
 Alpha  occ. eigenvalues --   -0.87793  -0.86328  -0.85848  -0.85305  -0.85102
 Alpha  occ. eigenvalues --   -0.84657  -0.84204  -0.84132  -0.83354  -0.82960
 Alpha  occ. eigenvalues --   -0.82805  -0.82520  -0.81470  -0.81460  -0.80902
 Alpha  occ. eigenvalues --   -0.80278  -0.78627  -0.78491  -0.77995  -0.77404
 Alpha  occ. eigenvalues --   -0.77063  -0.76975  -0.76365  -0.76166  -0.75290
 Alpha  occ. eigenvalues --   -0.74961  -0.73409  -0.72516  -0.72128  -0.71963
 Alpha  occ. eigenvalues --   -0.70151  -0.69575  -0.69125  -0.68933  -0.68848
 Alpha  occ. eigenvalues --   -0.68418  -0.67133  -0.66849  -0.66563  -0.66045
 Alpha  occ. eigenvalues --   -0.65664  -0.65340  -0.65218  -0.64879  -0.64553
 Alpha  occ. eigenvalues --   -0.64393  -0.63829  -0.63344  -0.60911  -0.60245
 Alpha  occ. eigenvalues --   -0.59966  -0.59737  -0.59343  -0.58955  -0.58830
 Alpha  occ. eigenvalues --   -0.58532  -0.58390  -0.58033  -0.58025  -0.57262
 Alpha  occ. eigenvalues --   -0.56845  -0.56590  -0.56339  -0.55808  -0.55626
 Alpha  occ. eigenvalues --   -0.55611  -0.55162  -0.54822  -0.54554  -0.54522
 Alpha  occ. eigenvalues --   -0.54255  -0.53875  -0.53757  -0.53516  -0.53488
 Alpha  occ. eigenvalues --   -0.53261  -0.53077  -0.52886  -0.52605  -0.52488
 Alpha  occ. eigenvalues --   -0.52238  -0.51891  -0.51828  -0.51498  -0.51436
 Alpha  occ. eigenvalues --   -0.51258  -0.51083  -0.50945  -0.50923  -0.50695
 Alpha  occ. eigenvalues --   -0.50334  -0.50273  -0.49909  -0.49603  -0.49573
 Alpha  occ. eigenvalues --   -0.49473  -0.49233  -0.49120  -0.49004  -0.48828
 Alpha  occ. eigenvalues --   -0.48756  -0.48688  -0.48562  -0.48478  -0.48301
 Alpha  occ. eigenvalues --   -0.48162  -0.47663  -0.47631  -0.47416  -0.47191
 Alpha  occ. eigenvalues --   -0.47099  -0.46844  -0.46761  -0.46727  -0.46432
 Alpha  occ. eigenvalues --   -0.46409  -0.46193  -0.46056  -0.45891  -0.45739
 Alpha  occ. eigenvalues --   -0.45730  -0.45644  -0.45256  -0.45235  -0.45017
 Alpha  occ. eigenvalues --   -0.44874  -0.44862  -0.44660  -0.44623  -0.44605
 Alpha  occ. eigenvalues --   -0.44542  -0.44461  -0.43829  -0.43736  -0.43596
 Alpha  occ. eigenvalues --   -0.43550  -0.42815  -0.42699  -0.42673  -0.42442
 Alpha  occ. eigenvalues --   -0.42308  -0.42258  -0.42248  -0.42078  -0.42010
 Alpha  occ. eigenvalues --   -0.41908  -0.41787  -0.41492  -0.41277  -0.41153
 Alpha  occ. eigenvalues --   -0.40962  -0.40958  -0.40857  -0.40721  -0.40484
 Alpha  occ. eigenvalues --   -0.39991  -0.39841  -0.39531  -0.39197  -0.39075
 Alpha  occ. eigenvalues --   -0.38724  -0.38682  -0.38041  -0.37850  -0.37832
 Alpha  occ. eigenvalues --   -0.37695  -0.37521  -0.36890  -0.36864  -0.36528
 Alpha  occ. eigenvalues --   -0.36399  -0.35970  -0.34815  -0.34696  -0.34302
 Alpha  occ. eigenvalues --   -0.34044  -0.33995  -0.33107  -0.31782  -0.31612
 Alpha  occ. eigenvalues --   -0.31082  -0.30922  -0.30881  -0.30444  -0.30177
 Alpha  occ. eigenvalues --   -0.30102  -0.29023  -0.28989  -0.24942  -0.24299
 Alpha  occ. eigenvalues --   -0.21669  -0.21669
 Alpha virt. eigenvalues --   -0.09527  -0.09142  -0.01898  -0.01884  -0.00030
 Alpha virt. eigenvalues --    0.00148   0.00626   0.01342   0.02013   0.02210
 Alpha virt. eigenvalues --    0.04987   0.05009   0.05259   0.05436   0.05510

 Mulliken charges:
               1
     1  Mg   0.798072
     2  C    0.012031
     3  C   -0.057731
     4  C   -0.074874
     5  C   -0.069385
     6  N   -0.239869
     7  C   -0.031578
     8  C   -0.030185
     9  C   -0.077656
    10  C    0.066855
    11  C    0.065554
    12  C    0.047145
    13  C   -0.074962
    14  H    0.019481
    15  N   -0.433553
    16  C    0.129007
    17  C   -0.132424
    18  C   -0.006641
    19  C    0.148037
    20  C    0.133181
    21  C   -0.016221
    22  O   -0.242239
    23  C    0.084005
    24  N   -0.253725
    25  C    0.012186
    26  C   -0.005338
    27  C   -0.034256
    28  C    0.078938
    29  C    0.065254
    30  C    0.032756
    31  C   -0.000105
    32  N   -0.354096
    33  C    0.076907
    34  C   -0.160970
    35  C    0.052247
    36  C    0.082288
    37  C    0.092183
    38  C   -0.004221
    39  O   -0.166187
    40  C   -0.005029
    41  C    0.184401
    42  O   -0.197396
    43  O   -0.322815
    44  C    0.181843
    45  H   -0.028832
    46  H   -0.058558
    47  H   -0.033105
    48  H   -0.003171
    49  H    0.010755
    50  H    0.015794
    51  H    0.005782
    52  H    0.017969
    53  H    0.000155
    54  H    0.007567
    55  H    0.057192
    56  H    0.043831
    57  H    0.028984
    58  H    0.009142
    59  H    0.039458
    60  H    0.033967
    61  H    0.054619
    62  H    0.027248
    63  H    0.023320
    64  H    0.016277
    65  H    0.015915
    66  H    0.029063
    67  H    0.005115
    68  H    0.011793
    69  H    0.004197
    70  H    0.012586
    71  H    0.012479
    72  H    0.025006
    73  H    0.015362
    74  H    0.034402
    75  H    0.015784
    76  H    0.059746
    77  H    0.045683
    78  H    0.040605
    79  H    0.032954
    80  Mg   0.825792
    81  C    0.014984
    82  C   -0.064105
    83  C   -0.034137
    84  C   -0.085233
    85  N   -0.280178
    86  C   -0.033773
    87  C   -0.003271
    88  C   -0.057051
    89  C    0.024096
    90  C    0.073103
    91  C    0.009612
    92  C   -0.045397
    93  H    0.044627
    94  N   -0.376605
    95  C    0.139179
    96  C   -0.133928
    97  C   -0.051321
    98  C    0.178982
    99  C    0.140057
   100  C    0.018688
   101  O   -0.238766
   102  C    0.063180
   103  N   -0.229432
   104  C   -0.016356
   105  C   -0.028422
   106  C    0.002426
   107  C    0.020978
   108  C    0.047836
   109  C    0.001344
   110  C   -0.010168
   111  N   -0.376979
   112  C    0.118809
   113  C   -0.164088
   114  C    0.035766
   115  C    0.123874
   116  C    0.127106
   117  C    0.044582
   118  O   -0.184330
   119  C   -0.043161
   120  C    0.174919
   121  O   -0.212581
   122  O   -0.339387
   123  C    0.178549
   124  H   -0.011503
   125  H   -0.063604
   126  H   -0.026503
   127  H    0.025723
   128  H    0.012395
   129  H    0.017783
   130  H    0.012587
   131  H    0.020266
   132  H    0.032832
   133  H    0.016830
   134  H    0.030178
   135  H    0.016156
   136  H    0.036985
   137  H    0.022634
   138  H   -0.021577
   139  H    0.042193
   140  H    0.019893
   141  H    0.027705
   142  H    0.019224
   143  H    0.008134
   144  H    0.006269
   145  H    0.010281
   146  H    0.018319
   147  H    0.012630
   148  H    0.017223
   149  H    0.010716
   150  H    0.016208
   151  H    0.026516
   152  H    0.022302
   153  H    0.042583
   154  H    0.050596
   155  H    0.029780
   156  H    0.033941
   157  H    0.019743
   158  H    0.044746
 Sum of Mulliken charges =  -0.00000

 Dipole moment (field-independent basis, Debye):
    X=             -0.5154    Y=             -1.9200    Z=             -4.2523  Tot=              4.6941
 Quadrupole moment (field-independent basis, Debye-Ang):
   XX=            -33.4180   YY=           -558.5098   ZZ=           -506.4891
   XY=            -69.0079   XZ=            -61.6042   YZ=              5.6783

 Normal termination of Gaussian 16 at Wed Sep 15 17:11:07 2021.
