 Gaussian 16, Revision A.03,
 Gaussian 16:  ES64L-G16RevA.03 25-Dec-2016

 -----------------------------------
 #p cam-b3lyp/Def2SVP td=(nstates=5)
 -----------------------------------

 --------------------------------
 TDDFT excited states in gaussian
 --------------------------------
 Symbolic Z-matrix:
 Charge =  0 Multiplicity = 1

                         Standard orientation:
 ---------------------------------------------------------------------
 Center     Atomic      Atomic             Coordinates (Angstroms)
 Number     Number       Type             X           Y           Z
 ---------------------------------------------------------------------
      1         12           0      -21.347469   -0.873322   -0.238859
      2          6           0      -22.221196    2.536046    0.490078
      3          6           0      -18.139294    0.366770   -1.099477
      4          6           0      -20.326937   -4.091202   -1.133330
      5          6           0      -24.503513   -1.868941    0.217689
      6          7           0      -20.386590    1.335907   -0.476360
      7          6           0      -20.913060    2.487539   -0.007447
      8          6           0      -19.923206    3.677356   -0.277092
      9          6           0      -18.743982    2.913694   -0.979159
     10          6           0      -19.050253    1.411021   -0.783947
     11          6           0      -18.573510    3.331532   -2.481464
     12          6           0      -19.485110    4.402402    0.995169
     13          6           0      -19.466704    5.894461    0.931723
     14          1           0      -19.132376    6.684318    2.205398
     15          7           0      -19.492802   -1.785522   -0.797655
     16          6           0      -18.326213   -1.091677   -1.101435
     17          6           0      -17.301524   -2.060209   -1.437513
     18          6           0      -17.844545   -3.332154   -1.362314
     19          6           0      -19.316142   -3.110682   -1.160475
     20          6           0      -15.927685   -1.714011   -1.935332
     21          6           0      -17.209305   -4.755505   -1.641514
     22          8           0      -17.747594   -5.832260   -1.558102
     23          6           0      -15.718726   -4.845960   -1.886945
     24          7           0      -22.252654   -2.652072   -0.580562
     25          6           0      -21.707113   -3.859167   -0.932265
     26          6           0      -22.787863   -4.926335   -1.223785
     27          6           0      -24.084083   -4.296042   -0.557515
     28          6           0      -23.563835   -2.838897   -0.256310
     29          6           0      -22.912121   -5.271181   -2.742403
     30          6           0      -24.579819   -5.036685    0.721672
     31          6           0      -23.664961   -4.937770    1.940303
     32          7           0      -23.032729    0.050449    0.212233
     33          6           0      -24.322634   -0.500645    0.450422
     34          6           0      -25.270749    0.550059    0.814179
     35          6           0      -24.481760    1.711948    0.889095
     36          6           0      -23.146189    1.382467    0.536651
     37          6           0      -26.689349    0.367665    1.097585
     38          6           0      -24.583647    3.137175    1.185820
     39          8           0      -25.541597    3.781029    1.579858
     40          6           0      -23.127277    3.770400    0.853307
     41          6           0      -22.847995    4.478408    2.181245
     42          8           0      -22.558779    3.973001    3.280811
     43          8           0      -23.025277    5.777606    2.015567
     44          6           0      -22.540532    6.736563    3.089507
     45          1           0      -17.135075    0.750254   -1.290083
     46          1           0      -20.102562   -5.126627   -1.401204
     47          1           0      -25.495968   -2.275214    0.422233
     48          1           0      -20.511272    4.385266   -0.860198
     49          1           0      -17.794789    3.081725   -0.468572
     50          1           0      -17.583965    3.686650   -2.769199
     51          1           0      -19.366754    3.979184   -2.855321
     52          1           0      -18.611935    2.522992   -3.211801
     53          1           0      -18.405724    4.255160    0.954445
     54          1           0      -19.911364    3.973835    1.902891
     55          1           0      -20.319656    6.432726    0.515224
     56          1           0      -18.645630    6.097175    0.243998
     57          1           0      -15.728976   -0.646565   -1.843058
     58          1           0      -15.725934   -1.990660   -2.971327
     59          1           0      -15.100281   -2.163733   -1.386222
     60          1           0      -15.135772   -4.469160   -1.046607
     61          1           0      -15.617566   -4.273356   -2.808949
     62          1           0      -15.578061   -5.889513   -2.168625
     63          1           0      -22.383083   -5.831166   -0.769060
     64          1           0      -24.898487   -4.005211   -1.221407
     65          1           0      -22.568569   -6.279355   -2.973901
     66          1           0      -22.486197   -4.575764   -3.464800
     67          1           0      -23.989445   -5.183269   -2.884078
     68          1           0      -24.944587   -6.015558    0.410146
     69          1           0      -25.500384   -4.548008    1.040369
     70          1           0      -22.701767   -4.456383    1.775074
     71          1           0      -23.458470   -5.967244    2.231899
     72          1           0      -24.026765   -4.311602    2.755037
     73          1           0      -27.231590    1.280704    1.344251
     74          1           0      -26.720899   -0.328470    1.935645
     75          1           0      -27.134664   -0.127247    0.233368
     76          1           0      -23.183990    4.580217    0.125950
     77          1           0      -22.492909    7.714446    2.609857
     78          1           0      -21.523962    6.525019    3.419679
     79          1           0      -23.158647    6.731662    3.988040
     80         12           0       22.170151    0.381684    0.356705
     81          6           0       18.848206    1.519962    0.044331
     82          6           0       21.190483   -1.320638    3.140500
     83          6           0       25.140487   -1.303862    0.224459
     84          6           0       22.740522    1.837019   -2.845902
     85          7           0       20.165130    0.015244    1.399505
     86          6           0       18.980790    0.672207    1.225754
     87          6           0       17.880238    0.148308    2.164476
     88          6           0       18.851525   -0.437144    3.303058
     89          6           0       20.162132   -0.591821    2.572321
     90          6           0       19.011814    0.444460    4.570580
     91          6           0       16.964964   -0.998395    1.539398
     92          6           0       15.567437   -1.211638    2.100248
     93          1           0       15.190853   -2.468300    2.913581
     94          7           0       23.150240   -1.127486    1.533745
     95          6           0       22.600235   -1.564535    2.703660
     96          6           0       23.513857   -2.325257    3.435175
     97          6           0       24.716716   -2.334295    2.633160
     98          6           0       24.394317   -1.601806    1.375993
     99          6           0       23.240232   -2.952856    4.796665
    100          6           0       25.987483   -3.020434    3.080860
    101          8           0       26.018800   -3.602997    4.195469
    102          6           0       27.336534   -2.962375    2.281228
    103          7           0       23.653646    0.324950   -1.101235
    104          6           0       24.834300   -0.440476   -0.901252
    105          6           0       25.883570   -0.034255   -1.898406
    106          6           0       25.090401    0.652761   -3.031169
    107          6           0       23.776055    1.044130   -2.294843
    108          6           0       27.010533    0.935819   -1.477336
    109          6           0       24.761660   -0.357338   -4.252527
    110          6           0       25.818200   -0.565972   -5.326974
    111          7           0       21.058132    1.618406   -1.010224
    112          6           0       21.422166    2.131243   -2.246225
    113          6           0       20.373794    2.798202   -2.851576
    114          6           0       19.307430    2.639721   -1.949931
    115          6           0       19.776927    1.891102   -0.857495
    116          6           0       20.443996    3.500094   -4.171012
    117          6           0       18.020290    3.017392   -1.687138
    118          8           0       17.298492    3.800701   -2.272142
    119          6           0       17.599616    2.097711   -0.521530
    120          6           0       16.657106    1.105521   -1.134730
    121          8           0       16.940654    0.388070   -2.042992
    122          8           0       15.397557    1.206135   -0.541219
    123          6           0       14.425129    0.405443   -1.200195
    124          1           0       20.980145   -1.709622    4.139190
    125          1           0       26.176028   -1.651692    0.230130
    126          1           0       23.032118    2.370715   -3.752625
    127          1           0       17.325206    0.952768    2.645899
    128          1           0       18.400527   -1.370450    3.639021
    129          1           0       18.315731   -0.021127    5.268855
    130          1           0       18.692815    1.472982    4.402233
    131          1           0       20.020924    0.381926    4.978202
    132          1           0       17.436746   -1.972618    1.667857
    133          1           0       16.953170   -0.828286    0.462598
    134          1           0       14.923378   -1.159636    1.221220
    135          1           0       15.330672   -0.340126    2.710373
    136          1           0       24.036793   -2.999929    5.539970
    137          1           0       22.878798   -3.919405    4.446371
    138          1           0       22.500495   -2.361154    5.335946
    139          1           0       27.677974   -1.929303    2.221658
    140          1           0       27.054710   -3.399799    1.323652
    141          1           0       28.128240   -3.627987    2.624867
    142          1           0       26.301088   -0.959276   -2.294718
    143          1           0       25.609436    1.524247   -3.430355
    144          1           0       26.979426    1.916380   -1.952020
    145          1           0       27.951341    0.407417   -1.321758
    146          1           0       26.762609    1.185081   -0.445712
    147          1           0       23.874783    0.128399   -4.658980
    148          1           0       24.494061   -1.345161   -3.876955
    149          1           0       25.996214   -1.633985   -5.449580
    150          1           0       26.743992   -0.079053   -5.019255
    151          1           0       25.477003   -0.201041   -6.296089
    152          1           0       19.586769    3.145931   -4.742845
    153          1           0       21.324614    3.219905   -4.750352
    154          1           0       20.369336    4.583828   -4.079660
    155          1           0       17.081627    2.707800    0.217654
    156          1           0       13.915893    0.999417   -1.958633
    157          1           0       13.586365    0.126664   -0.561205
    158          1           0       14.861472   -0.471150   -1.675988
 ---------------------------------------------------------------------

 SCF Done:  E(RCAM-B3LYP) =  -4069.77057034     A.U. after   17 cycles

 Excitation energies and oscillator strengths:

 Excited State   1:      Singlet-A      1.6510 eV  750.98 nm  f=0.3746  <S**2>=0.000
     310 -> 316        0.18396
     312 -> 314        0.68515
     310 <- 316        0.11254
 This state for optimization and/or second-order correction.
 Total Energy, E(TD-HF/TD-DFT) =  -4069.70989847
 Copying the excited state density for this state as the 1-particle RhoCI density.

 Excited State   2:      Singlet-A      1.7067 eV  726.47 nm  f=0.3986  <S**2>=0.000
     309 -> 315        0.18535
     311 -> 313        0.68239
     309 <- 315        0.10819

 Excited State   3:      Singlet-A      2.1433 eV  578.46 nm  f=0.1304  <S**2>=0.000
     309 -> 313        0.65034
     311 -> 315       -0.26013

 Excited State   4:      Singlet-A      2.2173 eV  559.17 nm  f=0.0913  <S**2>=0.000
     310 -> 314        0.62582
     312 -> 316       -0.32033

 Excited State   5:      Singlet-A      2.8643 eV  432.86 nm  f=0.0000  <S**2>=0.000
     312 -> 313        0.70710

 The electronic state is 1-A.
 Alpha  occ. eigenvalues --  -46.90348 -46.88284 -19.25433 -19.24931 -19.20962
 Alpha  occ. eigenvalues --  -19.19506 -19.19354 -19.18131 -19.17990 -19.17918
 Alpha  occ. eigenvalues --  -14.43212 -14.42705 -14.42449 -14.41540 -14.40094
 Alpha  occ. eigenvalues --  -14.39856 -14.39669 -14.39241 -10.39738 -10.38455
 Alpha  occ. eigenvalues --  -10.35581 -10.35382 -10.35058 -10.33393 -10.32436
 Alpha  occ. eigenvalues --  -10.32362 -10.32194 -10.31670 -10.31394 -10.31361
 Alpha  occ. eigenvalues --  -10.31228 -10.31078 -10.31030 -10.31029 -10.30975
 Alpha  occ. eigenvalues --  -10.30751 -10.30618 -10.30263 -10.29992 -10.29982
 Alpha  occ. eigenvalues --  -10.29903 -10.29270 -10.29136 -10.28858 -10.28765
 Alpha  occ. eigenvalues --  -10.28732 -10.28587 -10.28404 -10.28402 -10.28359
 Alpha  occ. eigenvalues --  -10.28358 -10.28349 -10.28338 -10.28278 -10.28245
 Alpha  occ. eigenvalues --  -10.28129 -10.28097 -10.28088 -10.27993 -10.27899
 Alpha  occ. eigenvalues --  -10.27873 -10.27702 -10.27585 -10.27523 -10.27488
 Alpha  occ. eigenvalues --  -10.27446 -10.27375 -10.27276 -10.26880 -10.26825
 Alpha  occ. eigenvalues --  -10.26625 -10.26605 -10.26525 -10.26513 -10.26399
 Alpha  occ. eigenvalues --  -10.26211 -10.26119 -10.26085 -10.26061 -10.26009
 Alpha  occ. eigenvalues --  -10.25876 -10.25700 -10.25693 -10.25411 -10.25393
 Alpha  occ. eigenvalues --  -10.24201  -3.18640  -3.16974  -1.93539  -1.93088
 Alpha  occ. eigenvalues --   -1.92938  -1.91860  -1.91446  -1.91280  -1.17680
 Alpha  occ. eigenvalues --   -1.15933  -1.11445  -1.10086  -1.10026  -1.09546
 Alpha  occ. eigenvalues --   -1.07354  -1.05792  -1.05274  -1.04686  -1.03958
 Alpha  occ. eigenvalues --   -1.03779  -1.03117  -1.02207  -1.01951  -1.01692
 Alpha  occ. eigenvalues --   -0.94379  -0.90854  -0.89244  -0.89004  -0.88760
 Alpha  occ. eigenvalues --   -0.88740  -0.88717  -0.87986  -0.87602  -0.87345
 Alpha  occ. eigenvalues --   -0.87138  -0.86945  -0.86439  -0.85947  -0.84423
 Alpha  occ. eigenvalues --   -0.84111  -0.83674  -0.83573  -0.82954  -0.82356
 Alpha  occ. eigenvalues --   -0.81927  -0.81498  -0.81019  -0.80730  -0.80388
 Alpha  occ. eigenvalues --   -0.80156  -0.78124  -0.78110  -0.77427  -0.77295
 Alpha  occ. eigenvalues --   -0.76987  -0.76945  -0.76007  -0.75968  -0.75730
 Alpha  occ. eigenvalues --   -0.75116  -0.73651  -0.72584  -0.72294  -0.71638
 Alpha  occ. eigenvalues --   -0.70058  -0.69526  -0.68742  -0.68516  -0.68474
 Alpha  occ. eigenvalues --   -0.67526  -0.67204  -0.66352  -0.66268  -0.65470
 Alpha  occ. eigenvalues --   -0.65405  -0.65110  -0.64788  -0.64559  -0.64260
 Alpha  occ. eigenvalues --   -0.64048  -0.62856  -0.61769  -0.60565  -0.60193
 Alpha  occ. eigenvalues --   -0.59654  -0.59585  -0.59269  -0.59226  -0.59065
 Alpha  occ. eigenvalues --   -0.58930  -0.58102  -0.57694  -0.57354  -0.56543
 Alpha  occ. eigenvalues --   -0.56230  -0.55826  -0.55634  -0.55481  -0.55354
 Alpha  occ. eigenvalues --   -0.55121  -0.55016  -0.54657  -0.53955  -0.53887
 Alpha  occ. eigenvalues --   -0.53592  -0.53322  -0.53237  -0.53204  -0.52884
 Alpha  occ. eigenvalues --   -0.52835  -0.52709  -0.52644  -0.52417  -0.52317
 Alpha  occ. eigenvalues --   -0.52110  -0.51871  -0.51510  -0.51484  -0.51260
 Alpha  occ. eigenvalues --   -0.50957  -0.50884  -0.50859  -0.50646  -0.50191
 Alpha  occ. eigenvalues --   -0.50103  -0.49871  -0.49790  -0.49785  -0.49597
 Alpha  occ. eigenvalues --   -0.49392  -0.49278  -0.49218  -0.49036  -0.48943
 Alpha  occ. eigenvalues --   -0.48853  -0.48643  -0.48475  -0.48429  -0.48123
 Alpha  occ. eigenvalues --   -0.47981  -0.47512  -0.47443  -0.47385  -0.47266
 Alpha  occ. eigenvalues --   -0.47047  -0.46716  -0.46645  -0.46639  -0.46437
 Alpha  occ. eigenvalues --   -0.46385  -0.46331  -0.46175  -0.46061  -0.45822
 Alpha  occ. eigenvalues --   -0.45820  -0.45493  -0.45324  -0.45228  -0.45116
 Alpha  occ. eigenvalues --   -0.44902  -0.44758  -0.44633  -0.44403  -0.44151
 Alpha  occ. eigenvalues --   -0.43957  -0.43889  -0.43807  -0.43631  -0.43520
 Alpha  occ. eigenvalues --   -0.43373  -0.43291  -0.43146  -0.42981  -0.42981
 Alpha  occ. eigenvalues --   -0.42958  -0.42628  -0.42541  -0.42488  -0.42223
 Alpha  occ. eigenvalues --   -0.42136  -0.41805  -0.41586  -0.41399  -0.41361
 Alpha  occ. eigenvalues --   -0.41225  -0.41054  -0.40901  -0.40542  -0.40357
 Alpha  occ. eigenvalues --   -0.40342  -0.40178  -0.39571  -0.39437  -0.39190
 Alpha  occ. eigenvalues --   -0.38624  -0.38526  -0.38039  -0.37843  -0.37682
 Alpha  occ. eigenvalues --   -0.37510  -0.37177  -0.36994  -0.36621  -0.36613
 Alpha  occ. eigenvalues --   -0.36046  -0.35627  -0.35539  -0.35090  -0.33895
 Alpha  occ. eigenvalues --   -0.33447  -0.33116  -0.32718  -0.31481  -0.31429
 Alpha  occ. eigenvalues --   -0.30976  -0.30789  -0.30484  -0.30346  -0.30066
 Alpha  occ. eigenvalues --   -0.29972  -0.29959  -0.29552  -0.24357  -0.24098
 Alpha  occ. eigenvalues --   -0.22071  -0.20947
 Alpha virt. eigenvalues --   -0.09626  -0.08689  -0.02514  -0.02023  -0.00113
 Alpha virt. eigenvalues --    0.00665   0.01388   0.02401   0.02564   0.03418
 Alpha virt. eigenvalues --    0.04263   0.05116   0.05165   0.05276   0.05468

 Mulliken charges:
               1
     1  Mg   0.847212
     2  C    0.045345
     3  C   -0.060533
     4  C   -0.047720
     5  C   -0.098776
     6  N   -0.248849
     7  C   -0.052970
     8  C   -0.041262
     9  C   -0.032689
    10  C    0.025027
    11  C    0.061891
    12  C    0.091686
    13  C   -0.097207
    14  H    0.015894
    15  N   -0.370679
    16  C    0.163337
    17  C   -0.136137
    18  C   -0.047604
    19  C    0.113935
    20  C    0.100989
    21  C    0.008300
    22  O   -0.184757
    23  C    0.055709
    24  N   -0.324655
    25  C    0.018140
    26  C   -0.032835
    27  C   -0.028947
    28  C    0.038278
    29  C    0.074277
    30  C    0.042205
    31  C    0.003863
    32  N   -0.436329
    33  C    0.150820
    34  C   -0.152957
    35  C    0.006760
    36  C    0.125967
    37  C    0.128414
    38  C    0.055360
    39  O   -0.163324
    40  C   -0.066573
    41  C    0.185904
    42  O   -0.258981
    43  O   -0.310136
    44  C    0.186773
    45  H   -0.026626
    46  H   -0.004535
    47  H   -0.031271
    48  H    0.015149
    49  H    0.010161
    50  H    0.011145
    51  H    0.016500
    52  H    0.004601
    53  H   -0.000455
    54  H    0.045801
    55  H    0.027000
    56  H    0.015955
    57  H   -0.001685
    58  H    0.033574
    59  H    0.015868
    60  H    0.054917
    61  H    0.014248
    62  H    0.026509
    63  H    0.013897
    64  H    0.017088
    65  H    0.026036
    66  H    0.025186
    67  H    0.002873
    68  H    0.013552
    69  H   -0.002124
    70  H    0.021593
    71  H    0.022754
    72  H    0.019884
    73  H    0.040178
    74  H    0.029336
    75  H    0.021993
    76  H    0.037320
    77  H    0.039498
    78  H    0.037714
    79  H    0.054195
    80  Mg   0.815293
    81  C    0.014443
    82  C   -0.065269
    83  C   -0.076247
    84  C   -0.071968
    85  N   -0.233147
    86  C   -0.080898
    87  C    0.006778
    88  C   -0.104044
    89  C    0.065313
    90  C    0.076815
    91  C    0.039651
    92  C   -0.043141
    93  H    0.028198
    94  N   -0.343553
    95  C    0.106420
    96  C   -0.141757
    97  C   -0.040951
    98  C    0.143958
    99  C    0.134038
   100  C   -0.011062
   101  O   -0.242966
   102  C    0.048389
   103  N   -0.357487
   104  C    0.064230
   105  C   -0.039295
   106  C   -0.064040
   107  C    0.055453
   108  C    0.104243
   109  C    0.008800
   110  C    0.034455
   111  N   -0.298983
   112  C    0.103982
   113  C   -0.159989
   114  C    0.083453
   115  C    0.089621
   116  C    0.137616
   117  C   -0.048561
   118  O   -0.168422
   119  C   -0.001930
   120  C    0.189497
   121  O   -0.180558
   122  O   -0.329023
   123  C    0.162264
   124  H   -0.027397
   125  H   -0.039838
   126  H   -0.015038
   127  H    0.002572
   128  H    0.015784
   129  H    0.016358
   130  H    0.021276
   131  H    0.022348
   132  H    0.019981
   133  H    0.022630
   134  H    0.026555
   135  H    0.021089
   136  H    0.045672
   137  H    0.041301
   138  H    0.008737
   139  H    0.046357
   140  H    0.030951
   141  H    0.024864
   142  H    0.004671
   143  H    0.002865
   144  H    0.027603
   145  H    0.021433
   146  H   -0.005817
   147  H    0.000837
   148  H    0.012710
   149  H    0.013767
   150  H    0.012297
   151  H    0.020657
   152  H    0.032730
   153  H    0.002697
   154  H    0.040526
   155  H    0.015272
   156  H    0.028702
   157  H    0.030523
   158  H    0.044708
 Sum of Mulliken charges =  -0.00000

 Dipole moment (field-independent basis, Debye):
    X=              4.3282    Y=              0.2374    Z=             -3.0717  Tot=              5.3127
 Quadrupole moment (field-independent basis, Debye-Ang):
   XX=           -533.6209   YY=           -526.8155   ZZ=           -520.1029
   XY=             68.1579   XZ=             31.6147   YZ=              9.9361

 Normal termination of Gaussian 16 at Wed Sep 15 09:29:30 2021.
