 Gaussian 16, Revision A.03,
 Gaussian 16:  ES64L-G16RevA.03 25-Dec-2016

 ----------------------------------------------------------
 #p cam-b3lyp/Def2SVP td=(nstates=5) density=(transition=1)
 ----------------------------------------------------------

 --------------------------------
 TDDFT excited states in gaussian
 --------------------------------
 Symbolic Z-matrix:
 Charge =  0 Multiplicity = 1

                         Standard orientation:
 ---------------------------------------------------------------------
 Center     Atomic      Atomic             Coordinates (Angstroms)
 Number     Number       Type             X           Y           Z
 ---------------------------------------------------------------------
      1         12           0       25.312723   -0.286469   -0.603413
      2          6           0       23.978543    1.690789    1.876107
      3          6           0       25.476522   -2.905703    1.714209
      4          6           0       26.712794   -2.267762   -2.950468
      5          6           0       25.472102    2.390789   -2.682869
      6          7           0       25.015645   -0.465360    1.651292
      7          6           0       24.230154    0.440661    2.374751
      8          6           0       23.724628   -0.161292    3.700762
      9          6           0       24.343911   -1.605039    3.618704
     10          6           0       24.955648   -1.733230    2.240179
     11          6           0       25.350753   -1.887392    4.726626
     12          6           0       22.183951   -0.193062    3.999706
     13          6           0       21.645966    0.742974    5.213004
     14          1           0       20.958330   -0.093766    6.296295
     15          7           0       26.083533   -2.229349   -0.605873
     16          6           0       25.932274   -3.183131    0.413619
     17          6           0       26.287763   -4.526610   -0.055074
     18          6           0       26.759270   -4.385327   -1.470053
     19          6           0       26.478588   -2.927857   -1.785396
     20          6           0       26.206850   -5.756974    0.821408
     21          6           0       27.308057   -5.356230   -2.405614
     22          8           0       27.725439   -4.978152   -3.510206
     23          6           0       27.465005   -6.829862   -2.073817
     24          7           0       26.037105    0.064706   -2.440267
     25          6           0       26.468441   -0.937926   -3.328451
     26          6           0       26.723042   -0.452417   -4.812536
     27          6           0       26.323040    1.103031   -4.641933
     28          6           0       25.899514    1.182601   -3.157769
     29          6           0       28.225802   -0.674049   -5.339638
     30          6           0       25.184558    1.521389   -5.634757
     31          6           0       25.252936    2.885702   -6.246262
     32          7           0       24.907092    1.707679   -0.386202
     33          6           0       24.972120    2.699934   -1.368613
     34          6           0       24.387853    3.912404   -0.906483
     35          6           0       23.877957    3.519500    0.386043
     36          6           0       24.303273    2.209642    0.641270
     37          6           0       24.191534    5.210911   -1.569319
     38          6           0       23.253605    4.027054    1.567512
     39          8           0       22.738227    5.102751    1.891335
     40          6           0       23.433881    2.868105    2.649786
     41          6           0       24.297548    3.372031    3.750267
     42          8           0       25.438315    3.190491    3.922888
     43          8           0       23.526826    4.041275    4.698074
     44          6           0       24.083347    4.065049    6.034808
     45          1           0       25.441739   -3.741040    2.416717
     46          1           0       27.097861   -2.816286   -3.812541
     47          1           0       25.382924    3.213572   -3.395228
     48          1           0       24.207560    0.362509    4.524989
     49          1           0       23.592210   -2.376877    3.786289
     50          1           0       26.336692   -2.011153    4.279418
     51          1           0       24.999756   -2.836665    5.129522
     52          1           0       25.360188   -1.176662    5.552718
     53          1           0       21.908230   -1.225649    4.215270
     54          1           0       21.607124    0.146399    3.139280
     55          1           0       20.878119    1.336901    4.716943
     56          1           0       22.464538    1.324316    5.636780
     57          1           0       27.035451   -5.689956    1.527498
     58          1           0       26.332254   -6.631198    0.184428
     59          1           0       25.317660   -5.783982    1.451628
     60          1           0       28.176891   -7.216838   -2.803194
     61          1           0       26.528124   -7.387672   -2.090981
     62          1           0       27.997615   -7.082263   -1.157122
     63          1           0       25.976514   -0.887807   -5.475997
     64          1           0       27.120961    1.810405   -4.869016
     65          1           0       28.510202    0.191600   -5.938224
     66          1           0       28.380604   -1.482083   -6.053597
     67          1           0       28.943907   -0.819148   -4.532317
     68          1           0       24.179228    1.395067   -5.233276
     69          1           0       25.177100    0.914230   -6.539762
     70          1           0       24.405879    3.419771   -5.816019
     71          1           0       25.026190    3.030700   -7.302516
     72          1           0       26.191028    3.367387   -5.968533
     73          1           0       24.129428    5.040774   -2.644519
     74          1           0       25.107452    5.759240   -1.349356
     75          1           0       23.380133    5.738535   -1.067620
     76          1           0       22.465168    2.591519    3.065202
     77          1           0       24.864789    4.821996    5.977186
     78          1           0       24.521651    3.078733    6.186187
     79          1           0       23.338616    4.359907    6.774644
     80         12           0      -25.544704    0.410733    0.073827
     81          6           0      -23.511439   -2.273380    0.649357
     82          6           0      -22.606699    2.414723   -0.047746
     83          6           0      -27.472234    3.008578   -0.886247
     84          6           0      -28.154066   -1.767814   -0.689254
     85          7           0      -23.192090   -0.002310   -0.085650
     86          6           0      -22.666109   -1.151005    0.424800
     87          6           0      -21.165555   -1.057728    0.449032
     88          6           0      -20.860949    0.481263    0.187751
     89          6           0      -22.296553    1.069038    0.009566
     90          6           0      -19.785872    1.092049    1.010351
     91          6           0      -20.289272   -2.074992   -0.424285
     92          6           0      -20.861531   -2.572996   -1.718302
     93          1           0      -19.959536   -2.510762   -2.942975
     94          7           0      -25.123169    2.456795   -0.161534
     95          6           0      -23.912295    3.076790   -0.149463
     96          6           0      -24.023931    4.483428   -0.399525
     97          6           0      -25.491610    4.700119   -0.534694
     98          6           0      -26.103385    3.353317   -0.524958
     99          6           0      -22.969389    5.482657   -0.458325
    100          6           0      -26.254540    6.010427   -0.666544
    101          8           0      -25.677618    7.026983   -0.826160
    102          6           0      -27.748361    6.173882   -0.717551
    103          7           0      -27.449475    0.571232   -0.788720
    104          6           0      -28.057882    1.761170   -0.908040
    105          6           0      -29.504699    1.595321   -1.612458
    106          6           0      -29.808336    0.081565   -1.169961
    107          6           0      -28.395548   -0.393110   -0.926455
    108          6           0      -30.581110    2.589460   -1.167809
    109          6           0      -30.664960   -0.680362   -2.197238
    110          6           0      -31.883172   -1.497384   -1.750841
    111          7           0      -25.774253   -1.621348   -0.116601
    112          6           0      -26.889691   -2.402909   -0.390893
    113          6           0      -26.626813   -3.774000   -0.184516
    114          6           0      -25.323451   -3.815377    0.282491
    115          6           0      -24.823152   -2.465530    0.312912
    116          6           0      -27.570797   -4.925201   -0.346111
    117          6           0      -24.257950   -4.573865    0.791691
    118          8           0      -24.223601   -5.792005    0.953656
    119          6           0      -22.994673   -3.671944    0.889308
    120          6           0      -22.495459   -3.930160    2.303316
    121          8           0      -21.323689   -4.260389    2.583808
    122          8           0      -23.511305   -3.594472    3.167006
    123          6           0      -23.297352   -3.486901    4.630949
    124          1           0      -21.665146    2.947266   -0.196760
    125          1           0      -28.027299    3.805998   -1.384483
    126          1           0      -28.998180   -2.438195   -0.861874
    127          1           0      -20.820035   -1.346513    1.442340
    128          1           0      -20.488226    0.540588   -0.834416
    129          1           0      -20.072548    2.040743    1.463954
    130          1           0      -18.836949    1.144137    0.476536
    131          1           0      -19.590832    0.456923    1.874507
    132          1           0      -20.040125   -3.005964    0.085078
    133          1           0      -19.388727   -1.568271   -0.772612
    134          1           0      -21.874014   -2.231764   -1.931449
    135          1           0      -20.937450   -3.657307   -1.630588
    136          1           0      -22.163849    5.180058    0.210006
    137          1           0      -23.292516    6.487568   -0.189210
    138          1           0      -22.607361    5.493402   -1.487024
    139          1           0      -27.958973    5.325515   -0.065948
    140          1           0      -28.159572    6.013613   -1.713716
    141          1           0      -28.160553    7.109646   -0.339642
    142          1           0      -29.310935    1.602244   -2.685505
    143          1           0      -30.297136   -0.094652   -0.212092
    144          1           0      -31.268873    2.041888   -0.522833
    145          1           0      -30.976606    3.129887   -2.027329
    146          1           0      -30.188958    3.398861   -0.552745
    147          1           0      -29.989593   -1.356944   -2.721576
    148          1           0      -30.950438    0.023774   -2.978917
    149          1           0      -32.829041   -1.352386   -2.272988
    150          1           0      -32.048148   -1.461281   -0.673207
    151          1           0      -31.510705   -2.517177   -1.842341
    152          1           0      -27.419126   -5.742034    0.359908
    153          1           0      -27.466072   -5.316216   -1.358425
    154          1           0      -28.614650   -4.652453   -0.185519
    155          1           0      -22.348703   -4.081344    0.113593
    156          1           0      -23.845092   -2.655579    5.074436
    157          1           0      -22.230758   -3.346486    4.807083
    158          1           0      -23.547488   -4.315612    5.292166
 ---------------------------------------------------------------------

 SCF Done:  E(RCAM-B3LYP) =  -4069.74638990     A.U. after   19 cycles

 Excitation energies and oscillator strengths:

 Excited State   1:      Singlet-A      1.6347 eV  758.44 nm  f=0.3807  <S**2>=0.000
     309 -> 316        0.16911
     311 -> 313        0.68877
     309 <- 316        0.10872
 This state for optimization and/or second-order correction.
 Total Energy, E(TD-HF/TD-DFT) =  -4069.68631487
 Copying the excited state density for this state as the 1-particle RhoCI density.

 Excited State   2:      Singlet-A      1.6721 eV  741.50 nm  f=0.4142  <S**2>=0.000
     310 -> 315        0.15725
     312 -> 314        0.68848

 Excited State   3:      Singlet-A      2.1488 eV  576.98 nm  f=0.1479  <S**2>=0.000
     309 -> 313        0.65218
     311 -> 316       -0.25539

 Excited State   4:      Singlet-A      2.1913 eV  565.81 nm  f=0.1265  <S**2>=0.000
     310 -> 314        0.64538
     312 -> 315       -0.25769

 Excited State   5:      Singlet-A      3.0199 eV  410.56 nm  f=0.0000  <S**2>=0.000
     312 -> 313        0.70711

 The electronic state is 1-A.
 Alpha  occ. eigenvalues --  -46.89972 -46.87931 -19.26248 -19.22173 -19.20350
 Alpha  occ. eigenvalues --  -19.19589 -19.18860 -19.18502 -19.17955 -19.17261
 Alpha  occ. eigenvalues --  -14.42605 -14.42563 -14.42059 -14.41999 -14.40274
 Alpha  occ. eigenvalues --  -14.40077 -14.39683 -14.38586 -10.40502 -10.38111
 Alpha  occ. eigenvalues --  -10.35336 -10.34301 -10.34207 -10.33599 -10.32847
 Alpha  occ. eigenvalues --  -10.32116 -10.31832 -10.31629 -10.31290 -10.31052
 Alpha  occ. eigenvalues --  -10.31035 -10.31035 -10.30949 -10.30783 -10.30763
 Alpha  occ. eigenvalues --  -10.30720 -10.30622 -10.30471 -10.30282 -10.30201
 Alpha  occ. eigenvalues --  -10.29532 -10.29413 -10.29291 -10.29241 -10.28919
 Alpha  occ. eigenvalues --  -10.28879 -10.28561 -10.28487 -10.28458 -10.28318
 Alpha  occ. eigenvalues --  -10.28257 -10.28253 -10.28223 -10.27994 -10.27985
 Alpha  occ. eigenvalues --  -10.27863 -10.27827 -10.27755 -10.27716 -10.27613
 Alpha  occ. eigenvalues --  -10.27542 -10.27534 -10.27472 -10.27313 -10.27254
 Alpha  occ. eigenvalues --  -10.27165 -10.26814 -10.26802 -10.26756 -10.26715
 Alpha  occ. eigenvalues --  -10.26541 -10.26493 -10.26485 -10.26462 -10.26367
 Alpha  occ. eigenvalues --  -10.26245 -10.26189 -10.26091 -10.25984 -10.25882
 Alpha  occ. eigenvalues --  -10.25826 -10.25538 -10.25327 -10.25186 -10.25104
 Alpha  occ. eigenvalues --  -10.24491  -3.18444  -3.16692  -1.93302  -1.92936
 Alpha  occ. eigenvalues --   -1.92719  -1.91562  -1.91158  -1.91010  -1.16780
 Alpha  occ. eigenvalues --   -1.15707  -1.11438  -1.09565  -1.09382  -1.08120
 Alpha  occ. eigenvalues --   -1.07721  -1.07279  -1.05194  -1.04637  -1.04390
 Alpha  occ. eigenvalues --   -1.03437  -1.02963  -1.02182  -1.02069  -1.00630
 Alpha  occ. eigenvalues --   -0.93719  -0.92594  -0.89868  -0.89191  -0.88765
 Alpha  occ. eigenvalues --   -0.88623  -0.88505  -0.88431  -0.87969  -0.87354
 Alpha  occ. eigenvalues --   -0.87280  -0.87206  -0.86680  -0.85914  -0.84580
 Alpha  occ. eigenvalues --   -0.84229  -0.84024  -0.83468  -0.83129  -0.82411
 Alpha  occ. eigenvalues --   -0.82205  -0.81897  -0.81012  -0.80872  -0.80618
 Alpha  occ. eigenvalues --   -0.80230  -0.78782  -0.78545  -0.77836  -0.77409
 Alpha  occ. eigenvalues --   -0.77022  -0.76725  -0.76698  -0.75506  -0.75266
 Alpha  occ. eigenvalues --   -0.75238  -0.73616  -0.73072  -0.71784  -0.71694
 Alpha  occ. eigenvalues --   -0.70060  -0.69420  -0.69334  -0.68696  -0.68435
 Alpha  occ. eigenvalues --   -0.67950  -0.67556  -0.66598  -0.66302  -0.65676
 Alpha  occ. eigenvalues --   -0.65523  -0.65309  -0.65002  -0.64745  -0.64432
 Alpha  occ. eigenvalues --   -0.63892  -0.63626  -0.60863  -0.60311  -0.60193
 Alpha  occ. eigenvalues --   -0.59425  -0.59407  -0.59005  -0.58918  -0.58465
 Alpha  occ. eigenvalues --   -0.58300  -0.58094  -0.57701  -0.57654  -0.57250
 Alpha  occ. eigenvalues --   -0.56561  -0.56510  -0.55829  -0.55580  -0.55359
 Alpha  occ. eigenvalues --   -0.55291  -0.55142  -0.54495  -0.54003  -0.53932
 Alpha  occ. eigenvalues --   -0.53633  -0.53305  -0.53270  -0.53213  -0.53000
 Alpha  occ. eigenvalues --   -0.52676  -0.52540  -0.52285  -0.52158  -0.52108
 Alpha  occ. eigenvalues --   -0.51875  -0.51835  -0.51608  -0.51381  -0.51369
 Alpha  occ. eigenvalues --   -0.51193  -0.51110  -0.50760  -0.50723  -0.50623
 Alpha  occ. eigenvalues --   -0.50563  -0.50132  -0.50011  -0.50010  -0.49794
 Alpha  occ. eigenvalues --   -0.49744  -0.49629  -0.49493  -0.49214  -0.49027
 Alpha  occ. eigenvalues --   -0.48972  -0.48593  -0.48541  -0.48259  -0.48083
 Alpha  occ. eigenvalues --   -0.48024  -0.47901  -0.47590  -0.47336  -0.47284
 Alpha  occ. eigenvalues --   -0.47253  -0.47113  -0.46955  -0.46930  -0.46837
 Alpha  occ. eigenvalues --   -0.46494  -0.46443  -0.46172  -0.46147  -0.45999
 Alpha  occ. eigenvalues --   -0.45646  -0.45560  -0.45407  -0.45348  -0.45280
 Alpha  occ. eigenvalues --   -0.45050  -0.44979  -0.44914  -0.44640  -0.44184
 Alpha  occ. eigenvalues --   -0.44163  -0.44029  -0.43668  -0.43519  -0.43412
 Alpha  occ. eigenvalues --   -0.43338  -0.43100  -0.43064  -0.42914  -0.42738
 Alpha  occ. eigenvalues --   -0.42666  -0.42514  -0.42404  -0.42106  -0.41987
 Alpha  occ. eigenvalues --   -0.41972  -0.41757  -0.41656  -0.41513  -0.41423
 Alpha  occ. eigenvalues --   -0.41316  -0.41181  -0.41028  -0.40639  -0.40592
 Alpha  occ. eigenvalues --   -0.40259  -0.40137  -0.39895  -0.39068  -0.39062
 Alpha  occ. eigenvalues --   -0.38713  -0.38705  -0.38015  -0.37824  -0.37690
 Alpha  occ. eigenvalues --   -0.37396  -0.37077  -0.36911  -0.36179  -0.36124
 Alpha  occ. eigenvalues --   -0.35632  -0.34923  -0.34812  -0.34461  -0.34088
 Alpha  occ. eigenvalues --   -0.33892  -0.33188  -0.33111  -0.31597  -0.31550
 Alpha  occ. eigenvalues --   -0.31437  -0.30923  -0.30534  -0.30034  -0.29781
 Alpha  occ. eigenvalues --   -0.29573  -0.29277  -0.28377  -0.24488  -0.24382
 Alpha  occ. eigenvalues --   -0.21746  -0.21468
 Alpha virt. eigenvalues --   -0.09692  -0.09288  -0.02177  -0.01985  -0.00241
 Alpha virt. eigenvalues --    0.00118   0.00975   0.01938   0.02413   0.02667
 Alpha virt. eigenvalues --    0.04542   0.04887   0.05117   0.05349   0.05884

 Mulliken charges:
               1
     1  Mg  11.999985
     2  C    6.000137
     3  C    5.999855
     4  C    5.999838
     5  C    6.000118
     6  N    7.000045
     7  C    5.999781
     8  C    6.000098
     9  C    5.999917
    10  C    6.000215
    11  C    5.999978
    12  C    6.000012
    13  C    6.000031
    14  H    0.999944
    15  N    7.000005
    16  C    6.000307
    17  C    6.000232
    18  C    6.000131
    19  C    6.000280
    20  C    5.999930
    21  C    6.000101
    22  O    8.000241
    23  C    5.999916
    24  N    6.999964
    25  C    6.000275
    26  C    5.999885
    27  C    6.000101
    28  C    5.999768
    29  C    5.999970
    30  C    6.000056
    31  C    6.000011
    32  N    6.999965
    33  C    5.999663
    34  C    5.999750
    35  C    5.999926
    36  C    5.999756
    37  C    6.000070
    38  C    5.999862
    39  O    7.999690
    40  C    6.000020
    41  C    5.999995
    42  O    7.999941
    43  O    7.999996
    44  C    6.000027
    45  H    1.000100
    46  H    1.000072
    47  H    0.999892
    48  H    0.999966
    49  H    1.000025
    50  H    0.999981
    51  H    1.000027
    52  H    1.000106
    53  H    0.999941
    54  H    1.000017
    55  H    1.000004
    56  H    1.000006
    57  H    1.000187
    58  H    1.000159
    59  H    1.000192
    60  H    1.000134
    61  H    1.000106
    62  H    1.000076
    63  H    1.000043
    64  H    0.999963
    65  H    1.000088
    66  H    1.000005
    67  H    0.999996
    68  H    0.999992
    69  H    0.999906
    70  H    1.000023
    71  H    0.999944
    72  H    0.999993
    73  H    0.999827
    74  H    0.999819
    75  H    0.999848
    76  H    0.999894
    77  H    0.999970
    78  H    0.999967
    79  H    0.999941
    80  Mg  12.003247
    81  C    6.005333
    82  C    5.977404
    83  C    5.977444
    84  C    6.020792
    85  N    6.992745
    86  C    5.972227
    87  C    6.010542
    88  C    5.984620
    89  C    6.039514
    90  C    5.998853
    91  C    6.000809
    92  C    6.003183
    93  H    0.988619
    94  N    6.993012
    95  C    6.050506
    96  C    6.023832
    97  C    6.007208
    98  C    6.047470
    99  C    5.993731
   100  C    6.010851
   101  O    8.020520
   102  C    6.000170
   103  N    7.003985
   104  C    6.030922
   105  C    5.989645
   106  C    6.012984
   107  C    5.960468
   108  C    5.999534
   109  C    6.001931
   110  C    5.998642
   111  N    7.004348
   112  C    5.959656
   113  C    5.976585
   114  C    5.990614
   115  C    5.970996
   116  C    6.003697
   117  C    5.984478
   118  O    7.964075
   119  C    6.000948
   120  C    5.993975
   121  O    7.988621
   122  O    8.005397
   123  C    6.005697
   124  H    1.008808
   125  H    1.006700
   126  H    0.992377
   127  H    1.001504
   128  H    1.005790
   129  H    0.994054
   130  H    1.004241
   131  H    1.009611
   132  H    1.002974
   133  H    0.989896
   134  H    1.004519
   135  H    1.003910
   136  H    1.020249
   137  H    1.016899
   138  H    1.023601
   139  H    1.004800
   140  H    1.012524
   141  H    1.013563
   142  H    1.004534
   143  H    0.995860
   144  H    1.008547
   145  H    1.001194
   146  H    0.992963
   147  H    1.003122
   148  H    0.989339
   149  H    0.994996
   150  H    0.998889
   151  H    1.005122
   152  H    0.985529
   153  H    0.980802
   154  H    0.980732
   155  H    0.991350
   156  H    0.992519
   157  H    0.992985
   158  H    0.995666
 Sum of Mulliken charges = 624.00000

 Dipole moment (field-independent basis, Debye):
    X=              1.2787    Y=             10.9748    Z=             -0.8669  Tot=             11.0830
 Quadrupole moment (field-independent basis, Debye-Ang):
   XX=            -63.3753   YY=              8.7924   ZZ=             -2.0709
   XY=           -280.6582   XZ=             19.6138   YZ=             -1.2329

 Normal termination of Gaussian 16 at Thu Sep 23 08:19:04 2021.
