 Gaussian 16, Revision A.03,
 Gaussian 16:  ES64L-G16RevA.03 25-Dec-2016

 -----------------------------------
 #p cam-b3lyp/Def2SVP td=(nstates=5)
 -----------------------------------

 --------------------------------
 TDDFT excited states in gaussian
 --------------------------------
 Symbolic Z-matrix:
 Charge =  0 Multiplicity = 1

                         Standard orientation:
 ---------------------------------------------------------------------
 Center     Atomic      Atomic             Coordinates (Angstroms)
 Number     Number       Type             X           Y           Z
 ---------------------------------------------------------------------
      1         12           0      -13.290093   -0.431068    0.315282
      2          6           0      -13.254706    2.686691   -1.115837
      3          6           0      -11.624290    0.860729    3.019683
      4          6           0      -13.216145   -3.597740    1.727682
      5          6           0      -14.570031   -1.766147   -2.617240
      6          7           0      -12.456440    1.568520    0.899779
      7          6           0      -12.671145    2.691286    0.152300
      8          6           0      -12.131855    3.867351    0.810941
      9          6           0      -11.405903    3.346545    2.041297
     10          6           0      -11.802219    1.805839    2.010841
     11          6           0       -9.857157    3.563619    2.151764
     12          6           0      -13.250589    4.916014    1.132301
     13          6           0      -12.844051    6.429399    1.083693
     14          1           0      -11.375103    6.774500    1.397913
     15          7           0      -12.612840   -1.204658    2.191944
     16          6           0      -11.962501   -0.472735    3.170599
     17          6           0      -11.637327   -1.368187    4.299275
     18          6           0      -12.111006   -2.701457    3.933467
     19          6           0      -12.697455   -2.549687    2.590498
     20          6           0      -10.905917   -0.938992    5.560682
     21          6           0      -12.127498   -3.942142    4.795579
     22          8           0      -12.644736   -4.980938    4.348578
     23          6           0      -11.533437   -4.037765    6.150941
     24          7           0      -13.741774   -2.423255   -0.364196
     25          6           0      -13.676067   -3.502953    0.420079
     26          6           0      -14.280414   -4.727798   -0.286490
     27          6           0      -14.974460   -4.123239   -1.625720
     28          6           0      -14.459859   -2.647146   -1.487511
     29          6           0      -13.201515   -5.823868   -0.546443
     30          6           0      -16.526999   -4.165313   -1.651532
     31          6           0      -17.150137   -5.122705   -2.678414
     32          7           0      -13.762770    0.259978   -1.556430
     33          6           0      -14.267934   -0.399928   -2.679090
     34          6           0      -14.473370    0.561127   -3.785395
     35          6           0      -14.058734    1.769303   -3.176947
     36          6           0      -13.632883    1.532723   -1.842510
     37          6           0      -15.020916    0.315975   -5.104334
     38          6           0      -13.994210    3.230412   -3.387056
     39          8           0      -14.332926    3.920468   -4.311629
     40          6           0      -13.428425    3.864248   -2.066519
     41          6           0      -12.259753    4.689788   -2.410697
     42          8           0      -11.193660    4.154196   -2.754374
     43          8           0      -12.413608    6.023576   -2.185964
     44          6           0      -11.247569    6.893456   -2.303519
     45          1           0      -11.095147    1.303587    3.866060
     46          1           0      -13.150163   -4.592507    2.173806
     47          1           0      -15.090521   -2.207861   -3.469433
     48          1           0      -11.407909    4.325189    0.135978
     49          1           0      -11.895404    3.674124    2.959196
     50          1           0       -9.295078    4.101332    1.387507
     51          1           0       -9.390126    2.584644    2.256607
     52          1           0       -9.550218    4.033644    3.086416
     53          1           0      -13.725612    4.664683    2.080684
     54          1           0      -14.113699    4.712117    0.498885
     55          1           0      -13.472498    7.006186    1.762862
     56          1           0      -12.921892    6.857727    0.084843
     57          1           0      -10.749273    0.137273    5.624161
     58          1           0       -9.907911   -1.376080    5.603474
     59          1           0      -11.539812   -1.099229    6.432623
     60          1           0      -11.792648   -5.026152    6.529215
     61          1           0      -11.887173   -3.267405    6.837403
     62          1           0      -10.462389   -3.843478    6.091766
     63          1           0      -15.113029   -5.067068    0.329885
     64          1           0      -14.562580   -4.551772   -2.539335
     65          1           0      -13.507072   -6.819415   -0.224265
     66          1           0      -12.278457   -5.593463   -0.013787
     67          1           0      -13.007182   -5.751353   -1.616790
     68          1           0      -16.981020   -3.193768   -1.843028
     69          1           0      -16.941669   -4.445790   -0.683048
     70          1           0      -16.463341   -5.947650   -2.868176
     71          1           0      -17.289089   -4.572184   -3.608321
     72          1           0      -18.136420   -5.385867   -2.298419
     73          1           0      -15.377780    1.224415   -5.589097
     74          1           0      -15.838462   -0.404673   -5.104719
     75          1           0      -14.191177    0.054024   -5.761014
     76          1           0      -14.289007    4.445732   -1.734060
     77          1           0      -10.847903    6.973647   -3.314797
     78          1           0      -10.482775    6.621944   -1.575933
     79          1           0      -11.533420    7.916868   -2.061087
     80         12           0       12.597811   -0.854091   -0.372829
     81          6           0       14.843394    1.865144   -0.045534
     82          6           0       10.178378    1.297797    0.944108
     83          6           0       10.358101   -3.230821   -0.711045
     84          6           0       15.296615   -2.988442   -0.873759
     85          7           0       12.560217    1.324300    0.315811
     86          6           0       13.536573    2.269344    0.222268
     87          6           0       13.162988    3.675660    0.721378
     88          6           0       11.639634    3.361082    1.144702
     89          6           0       11.485269    1.912453    0.787163
     90          6           0       11.334921    3.568426    2.681035
     91          6           0       13.272746    4.768875   -0.391033
     92          6           0       14.298551    5.895583   -0.397288
     93          1           0       13.950465    7.278629   -0.931629
     94          7           0       10.522957   -0.961017   -0.022696
     95          6           0        9.713578    0.006031    0.590732
     96          6           0        8.403958   -0.579432    0.771537
     97          6           0        8.381233   -1.829110    0.157195
     98          6           0        9.777098   -2.034257   -0.276182
     99          6           0        7.313556    0.275578    1.321033
    100          6           0        7.272781   -2.873171    0.026981
    101          8           0        7.403007   -3.970672   -0.523654
    102          6           0        5.920069   -2.474404    0.469266
    103          7           0       12.768016   -2.858873   -0.637767
    104          6           0       11.697265   -3.643119   -0.966707
    105          6           0       12.162878   -4.983162   -1.630708
    106          6           0       13.681578   -4.889268   -1.561484
    107          6           0       13.960879   -3.505565   -0.911651
    108          6           0       11.524919   -6.256189   -0.984487
    109          6           0       14.273050   -5.037325   -2.971584
    110          6           0       15.463160   -5.908022   -3.150888
    111          7           0       14.664658   -0.688858   -0.355080
    112          6           0       15.638018   -1.623833   -0.601450
    113          6           0       16.945238   -1.039384   -0.565580
    114          6           0       16.733952    0.420710   -0.442561
    115          6           0       15.294019    0.549791   -0.325463
    116          6           0       18.275747   -1.800012   -0.697985
    117          6           0       17.351432    1.768813   -0.368003
    118          8           0       18.527610    2.123757   -0.555045
    119          6           0       16.127742    2.742111   -0.113423
    120          6           0       16.552763    3.356876    1.183413
    121          8           0       16.363848    2.944343    2.321349
    122          8           0       17.086150    4.531453    0.986610
    123          6           0       17.725533    5.247931    2.116852
    124          1           0        9.503904    2.112678    1.214020
    125          1           0        9.731290   -4.117066   -0.827147
    126          1           0       16.124780   -3.661525   -1.103602
    127          1           0       13.767501    3.883095    1.605236
    128          1           0       10.838474    3.867603    0.605591
    129          1           0       12.190481    3.638999    3.352146
    130          1           0       10.740109    2.735934    3.055240
    131          1           0       10.745932    4.478944    2.792758
    132          1           0       12.310084    5.279969   -0.411737
    133          1           0       13.441332    4.303162   -1.361175
    134          1           0       15.004437    5.510978   -1.133575
    135          1           0       14.629558    5.895216    0.641286
    136          1           0        6.500937    0.406807    0.607850
    137          1           0        7.685413    1.266485    1.582883
    138          1           0        6.852325   -0.137647    2.217522
    139          1           0        5.663914   -1.510144    0.030118
    140          1           0        5.882563   -2.236008    1.532312
    141          1           0        5.127717   -3.158953    0.168178
    142          1           0       11.768803   -4.872075   -2.640756
    143          1           0       14.102335   -5.723139   -0.999836
    144          1           0       10.725536   -6.045291   -0.274279
    145          1           0       12.235734   -6.875823   -0.439029
    146          1           0       11.219388   -6.951212   -1.766458
    147          1           0       14.534036   -4.010074   -3.222816
    148          1           0       13.585105   -5.441340   -3.713874
    149          1           0       16.202606   -5.263929   -3.626192
    150          1           0       15.190069   -6.813249   -3.693097
    151          1           0       15.955286   -6.209858   -2.226078
    152          1           0       18.617117   -2.091224    0.294690
    153          1           0       18.990503   -1.150208   -1.202713
    154          1           0       18.165465   -2.728351   -1.258879
    155          1           0       16.143182    3.478287   -0.916902
    156          1           0       17.047408    5.474527    2.938863
    157          1           0       18.229336    6.171260    1.831613
    158          1           0       18.560719    4.747777    2.606215
 ---------------------------------------------------------------------

 SCF Done:  E(RCAM-B3LYP) =  -4069.84402499     A.U. after   18 cycles

 Excitation energies and oscillator strengths:

 Excited State   1:      Singlet-A      1.7298 eV  716.77 nm  f=0.3984  <S**2>=0.000
     309 -> 316        0.18826
     312 -> 314        0.68116
     309 <- 316        0.10867
 This state for optimization and/or second-order correction.
 Total Energy, E(TD-HF/TD-DFT) =  -4069.78045776
 Copying the excited state density for this state as the 1-particle RhoCI density.

 Excited State   2:      Singlet-A      1.7574 eV  705.51 nm  f=0.3752  <S**2>=0.000
     310 -> 315        0.18312
     311 -> 313        0.68249
     310 <- 315        0.10455

 Excited State   3:      Singlet-A      2.2202 eV  558.44 nm  f=0.1029  <S**2>=0.000
     310 -> 313        0.63623
     311 -> 315       -0.29383

 Excited State   4:      Singlet-A      2.2551 eV  549.79 nm  f=0.0861  <S**2>=0.000
     309 -> 314        0.62544
     312 -> 316       -0.31652

 Excited State   5:      Singlet-A      2.9898 eV  414.69 nm  f=0.0000  <S**2>=0.000
     312 -> 313        0.70703

 The electronic state is 1-A.
 Alpha  occ. eigenvalues --  -46.88965 -46.88523 -19.26061 -19.25307 -19.19574
 Alpha  occ. eigenvalues --  -19.19388 -19.19123 -19.18870 -19.18441 -19.18190
 Alpha  occ. eigenvalues --  -14.42581 -14.41906 -14.41899 -14.41802 -14.39819
 Alpha  occ. eigenvalues --  -14.39569 -14.39324 -14.38983 -10.39646 -10.38648
 Alpha  occ. eigenvalues --  -10.35967 -10.35440 -10.35036 -10.34931 -10.32410
 Alpha  occ. eigenvalues --  -10.31949 -10.31631 -10.31403 -10.31109 -10.30990
 Alpha  occ. eigenvalues --  -10.30908 -10.30739 -10.30730 -10.30686 -10.30523
 Alpha  occ. eigenvalues --  -10.30497 -10.30181 -10.30095 -10.29998 -10.29423
 Alpha  occ. eigenvalues --  -10.29393 -10.29231 -10.29037 -10.28856 -10.28774
 Alpha  occ. eigenvalues --  -10.28765 -10.28737 -10.28622 -10.28474 -10.28400
 Alpha  occ. eigenvalues --  -10.28371 -10.28083 -10.28035 -10.28026 -10.27970
 Alpha  occ. eigenvalues --  -10.27944 -10.27876 -10.27847 -10.27708 -10.27604
 Alpha  occ. eigenvalues --  -10.27543 -10.27520 -10.27463 -10.27459 -10.27306
 Alpha  occ. eigenvalues --  -10.27065 -10.27054 -10.26976 -10.26565 -10.26529
 Alpha  occ. eigenvalues --  -10.26500 -10.26396 -10.26178 -10.26170 -10.26140
 Alpha  occ. eigenvalues --  -10.26093 -10.26073 -10.25846 -10.25820 -10.25686
 Alpha  occ. eigenvalues --  -10.25638 -10.25576 -10.25413 -10.25330 -10.25215
 Alpha  occ. eigenvalues --  -10.24853  -3.17388  -3.17120  -1.92309  -1.92021
 Alpha  occ. eigenvalues --   -1.91827  -1.91695  -1.91577  -1.91424  -1.17799
 Alpha  occ. eigenvalues --   -1.16526  -1.11026  -1.10075  -1.08994  -1.08387
 Alpha  occ. eigenvalues --   -1.07213  -1.06490  -1.05472  -1.05202  -1.04129
 Alpha  occ. eigenvalues --   -1.04005  -1.03453  -1.02774  -1.01358  -1.01035
 Alpha  occ. eigenvalues --   -0.92567  -0.91844  -0.89572  -0.89212  -0.89040
 Alpha  occ. eigenvalues --   -0.88792  -0.88352  -0.87781  -0.87717  -0.87270
 Alpha  occ. eigenvalues --   -0.86813  -0.86755  -0.86337  -0.85107  -0.84336
 Alpha  occ. eigenvalues --   -0.84028  -0.83640  -0.83477  -0.82875  -0.82691
 Alpha  occ. eigenvalues --   -0.82405  -0.81950  -0.81297  -0.80827  -0.80628
 Alpha  occ. eigenvalues --   -0.80514  -0.78774  -0.78514  -0.77640  -0.77494
 Alpha  occ. eigenvalues --   -0.77387  -0.76876  -0.76317  -0.76189  -0.75157
 Alpha  occ. eigenvalues --   -0.74968  -0.72674  -0.72226  -0.71814  -0.71587
 Alpha  occ. eigenvalues --   -0.69325  -0.69223  -0.68421  -0.68196  -0.68108
 Alpha  occ. eigenvalues --   -0.67610  -0.66997  -0.66926  -0.65920  -0.65873
 Alpha  occ. eigenvalues --   -0.65514  -0.65279  -0.65108  -0.64862  -0.64406
 Alpha  occ. eigenvalues --   -0.64200  -0.62807  -0.62403  -0.60944  -0.59931
 Alpha  occ. eigenvalues --   -0.59664  -0.59510  -0.59299  -0.58980  -0.58831
 Alpha  occ. eigenvalues --   -0.58495  -0.58301  -0.57848  -0.57639  -0.57363
 Alpha  occ. eigenvalues --   -0.56695  -0.56129  -0.56051  -0.55639  -0.55419
 Alpha  occ. eigenvalues --   -0.54972  -0.54805  -0.54304  -0.54180  -0.54061
 Alpha  occ. eigenvalues --   -0.53839  -0.53552  -0.53521  -0.52997  -0.52916
 Alpha  occ. eigenvalues --   -0.52863  -0.52639  -0.52564  -0.52492  -0.52295
 Alpha  occ. eigenvalues --   -0.52135  -0.51727  -0.51575  -0.51420  -0.51357
 Alpha  occ. eigenvalues --   -0.51250  -0.50574  -0.50444  -0.50276  -0.50037
 Alpha  occ. eigenvalues --   -0.50023  -0.49921  -0.49879  -0.49737  -0.49449
 Alpha  occ. eigenvalues --   -0.49412  -0.49070  -0.49060  -0.48709  -0.48616
 Alpha  occ. eigenvalues --   -0.48559  -0.48497  -0.48196  -0.48191  -0.48030
 Alpha  occ. eigenvalues --   -0.48020  -0.47803  -0.47548  -0.47431  -0.47274
 Alpha  occ. eigenvalues --   -0.47185  -0.46781  -0.46633  -0.46356  -0.46316
 Alpha  occ. eigenvalues --   -0.46083  -0.45946  -0.45835  -0.45785  -0.45591
 Alpha  occ. eigenvalues --   -0.45580  -0.45450  -0.45278  -0.45171  -0.45024
 Alpha  occ. eigenvalues --   -0.44995  -0.44652  -0.44607  -0.44400  -0.44357
 Alpha  occ. eigenvalues --   -0.44255  -0.44014  -0.43877  -0.43673  -0.43561
 Alpha  occ. eigenvalues --   -0.43242  -0.43193  -0.43087  -0.43058  -0.42812
 Alpha  occ. eigenvalues --   -0.42705  -0.42418  -0.42228  -0.41927  -0.41897
 Alpha  occ. eigenvalues --   -0.41643  -0.41553  -0.41403  -0.41236  -0.41234
 Alpha  occ. eigenvalues --   -0.40986  -0.40825  -0.40763  -0.40414  -0.40403
 Alpha  occ. eigenvalues --   -0.40073  -0.40072  -0.39838  -0.39603  -0.39513
 Alpha  occ. eigenvalues --   -0.38441  -0.38255  -0.37921  -0.37553  -0.37302
 Alpha  occ. eigenvalues --   -0.37236  -0.36799  -0.36701  -0.36625  -0.36385
 Alpha  occ. eigenvalues --   -0.36101  -0.35847  -0.34449  -0.34115  -0.34056
 Alpha  occ. eigenvalues --   -0.33444  -0.33191  -0.33090  -0.31915  -0.31775
 Alpha  occ. eigenvalues --   -0.31207  -0.30968  -0.30771  -0.30602  -0.30312
 Alpha  occ. eigenvalues --   -0.30140  -0.29581  -0.28714  -0.23958  -0.23913
 Alpha  occ. eigenvalues --   -0.21178  -0.20879
 Alpha virt. eigenvalues --   -0.08519  -0.08366  -0.01861  -0.01797  -0.00190
 Alpha virt. eigenvalues --    0.00468   0.02078   0.02471   0.02698   0.03019
 Alpha virt. eigenvalues --    0.04383   0.05146   0.05239   0.05767   0.05923

 Mulliken charges:
               1
     1  Mg   0.814833
     2  C   -0.017231
     3  C   -0.070541
     4  C   -0.046960
     5  C   -0.073532
     6  N   -0.243892
     7  C   -0.051413
     8  C   -0.008523
     9  C    0.010486
    10  C   -0.041629
    11  C    0.066269
    12  C    0.061557
    13  C   -0.064166
    14  H    0.001346
    15  N   -0.381023
    16  C    0.179992
    17  C   -0.151850
    18  C   -0.018603
    19  C    0.094763
    20  C    0.107354
    21  C   -0.005710
    22  O   -0.232111
    23  C    0.074372
    24  N   -0.261041
    25  C    0.046001
    26  C   -0.044094
    27  C   -0.048499
    28  C    0.017415
    29  C    0.079020
    30  C    0.027404
    31  C    0.003017
    32  N   -0.356664
    33  C    0.120863
    34  C   -0.149950
    35  C   -0.006767
    36  C    0.104771
    37  C    0.121483
    38  C    0.014273
    39  O   -0.146012
    40  C    0.025483
    41  C    0.218368
    42  O   -0.249054
    43  O   -0.321454
    44  C    0.184561
    45  H   -0.049353
    46  H    0.001221
    47  H   -0.028600
    48  H    0.022717
    49  H    0.008073
    50  H    0.027138
    51  H    0.010218
    52  H    0.004806
    53  H   -0.006347
    54  H    0.001776
    55  H    0.031500
    56  H    0.046838
    57  H    0.001921
    58  H    0.041393
    59  H    0.030040
    60  H    0.037886
    61  H    0.020650
    62  H    0.031015
    63  H    0.014440
    64  H    0.014718
    65  H    0.025832
    66  H    0.024914
    67  H    0.008116
    68  H    0.007554
    69  H    0.001768
    70  H    0.019730
    71  H    0.010890
    72  H    0.018722
    73  H    0.025165
    74  H    0.026481
    75  H    0.033641
    76  H    0.036883
    77  H    0.048232
    78  H    0.034969
    79  H    0.032140
    80  Mg   0.832145
    81  C    0.053274
    82  C   -0.082128
    83  C   -0.070416
    84  C   -0.080597
    85  N   -0.209684
    86  C   -0.071915
    87  C    0.011102
    88  C   -0.072271
    89  C   -0.024588
    90  C    0.046731
    91  C    0.028493
    92  C   -0.068363
    93  H    0.028026
    94  N   -0.362219
    95  C    0.170318
    96  C   -0.116500
    97  C   -0.037923
    98  C    0.148194
    99  C    0.098594
   100  C    0.036645
   101  O   -0.200789
   102  C    0.053932
   103  N   -0.348541
   104  C   -0.000990
   105  C   -0.010934
   106  C   -0.014563
   107  C    0.090603
   108  C    0.058936
   109  C    0.000413
   110  C    0.009596
   111  N   -0.370126
   112  C    0.134142
   113  C   -0.185252
   114  C   -0.007971
   115  C    0.094288
   116  C    0.119445
   117  C    0.044304
   118  O   -0.191202
   119  C   -0.048594
   120  C    0.168021
   121  O   -0.239990
   122  O   -0.278999
   123  C    0.189703
   124  H   -0.020232
   125  H   -0.008599
   126  H   -0.032233
   127  H    0.036414
   128  H    0.020269
   129  H    0.030063
   130  H    0.017428
   131  H    0.014614
   132  H    0.014790
   133  H    0.008522
   134  H    0.040778
   135  H    0.029998
   136  H    0.032520
   137  H    0.010714
   138  H    0.024741
   139  H    0.019579
   140  H    0.028072
   141  H    0.034631
   142  H    0.027756
   143  H    0.006904
   144  H    0.037028
   145  H    0.003317
   146  H    0.012783
   147  H    0.013027
   148  H    0.007253
   149  H    0.015199
   150  H    0.020931
   151  H    0.005575
   152  H    0.033342
   153  H    0.038396
   154  H    0.005138
   155  H    0.046528
   156  H    0.033246
   157  H    0.033828
   158  H    0.035329
 Sum of Mulliken charges =  -0.00000

 Dipole moment (field-independent basis, Debye):
    X=             -4.9605    Y=              2.4749    Z=              3.5287  Tot=              6.5714
 Quadrupole moment (field-independent basis, Debye-Ang):
   XX=           -633.4542   YY=           -486.8754   ZZ=           -508.5425
   XY=             -8.9833   XZ=            -41.2282   YZ=             39.9130

 Normal termination of Gaussian 16 at Thu Sep  2 07:25:08 2021.
