 Gaussian 16, Revision A.03,
 Gaussian 16:  ES64L-G16RevA.03 25-Dec-2016

 ---------------------------------------------------
 #p cam-b3lyp/Def2SVP td=(nstates=5) density=(CIS=1)
 ---------------------------------------------------

 --------------------------------
 TDDFT excited states in gaussian
 --------------------------------
 Symbolic Z-matrix:
 Charge =  0 Multiplicity = 1

                         Standard orientation:
 ---------------------------------------------------------------------
 Center     Atomic      Atomic             Coordinates (Angstroms)
 Number     Number       Type             X           Y           Z
 ---------------------------------------------------------------------
      1         12           0       -0.781863    0.070045    0.075375
      2          6           0        2.635631    0.031111    0.109302
      3          6           0       -0.897352   -3.253391   -0.133779
      4          6           0       -4.020842    0.335246   -0.172062
      5          6           0       -0.517543    3.603664   -0.307020
      6          7           0        0.728035   -1.468016   -0.178889
      7          6           0        2.029740   -1.251742    0.135447
      8          6           0        2.747345   -2.531860    0.465621
      9          6           0        1.639511   -3.597351    0.093837
     10          6           0        0.420809   -2.741196   -0.174378
     11          6           0        2.026008   -4.556428   -1.057577
     12          6           0        3.360202   -2.592843    1.994698
     13          6           0        4.806427   -3.074064    2.187323
     14          1           0        5.399131   -3.994048    1.074116
     15          7           0       -2.203847   -1.221705    0.053367
     16          6           0       -2.119352   -2.574560   -0.037962
     17          6           0       -3.402570   -3.216210   -0.189182
     18          6           0       -4.312672   -2.221016    0.002772
     19          6           0       -3.518372   -0.963144   -0.154338
     20          6           0       -3.402533   -4.697045   -0.521893
     21          6           0       -5.846928   -2.322519    0.114017
     22          8           0       -6.582840   -1.369568    0.223738
     23          6           0       -6.369929   -3.726491    0.037127
     24          7           0       -2.048251    1.757712   -0.375746
     25          6           0       -3.375684    1.559532   -0.285144
     26          6           0       -4.134390    2.887169   -0.377307
     27          6           0       -3.016027    3.948322   -0.099837
     28          6           0       -1.763422    3.069834   -0.296025
     29          6           0       -4.970288    3.189960   -1.693104
     30          6           0       -2.992860    4.579736    1.343043
     31          6           0       -2.842612    3.753275    2.593095
     32          7           0        0.688650    1.607675    0.007780
     33          6           0        0.683129    2.984169   -0.239968
     34          6           0        2.043031    3.538257   -0.245444
     35          6           0        2.853698    2.402482   -0.100282
     36          6           0        1.961495    1.294268    0.048175
     37          6           0        2.464238    4.983269   -0.323214
     38          6           0        4.161131    1.931813   -0.034541
     39          8           0        5.249966    2.474423   -0.139960
     40          6           0        4.087229    0.428331    0.337798
     41          6           0        5.042677   -0.183547   -0.613947
     42          8           0        4.807495   -0.442436   -1.796694
     43          8           0        6.276858   -0.327761   -0.049406
     44          6           0        7.429422   -0.631770   -0.903387
     45          1           0       -0.901594   -4.338021   -0.005472
     46          1           0       -5.098563    0.504412   -0.201672
     47          1           0       -0.589090    4.691107   -0.386450
     48          1           0        3.554879   -2.713464   -0.243693
     49          1           0        1.394974   -4.174960    0.985015
     50          1           0        1.510120   -4.243018   -1.965092
     51          1           0        1.684810   -5.559182   -0.800296
     52          1           0        3.107190   -4.480055   -1.173584
     53          1           0        2.686625   -3.259238    2.533643
     54          1           0        3.354018   -1.601918    2.447611
     55          1           0        4.876443   -3.711459    3.068356
     56          1           0        5.453067   -2.222573    2.398930
     57          1           0       -2.921295   -4.960577   -1.463862
     58          1           0       -4.333397   -5.208878   -0.765330
     59          1           0       -2.953114   -5.109086    0.381647
     60          1           0       -5.908548   -4.351403    0.801427
     61          1           0       -6.173758   -3.978785   -1.004764
     62          1           0       -7.423595   -3.907145    0.246832
     63          1           0       -4.861722    2.778523    0.428023
     64          1           0       -3.026205    4.683714   -0.904628
     65          1           0       -4.884723    2.347142   -2.378565
     66          1           0       -4.522383    4.008810   -2.254849
     67          1           0       -6.020301    3.451408   -1.553299
     68          1           0       -3.950308    5.100975    1.324097
     69          1           0       -2.199890    5.318299    1.456220
     70          1           0       -2.920340    2.694770    2.341431
     71          1           0       -3.651229    3.967151    3.291855
     72          1           0       -1.885815    3.823613    3.110101
     73          1           0        2.901609    5.237368   -1.287722
     74          1           0        3.175133    5.202902    0.473517
     75          1           0        1.515134    5.516530   -0.263523
     76          1           0        4.311210    0.258531    1.391096
     77          1           0        8.368124   -0.291030   -0.464945
     78          1           0        7.259602   -0.337481   -1.937950
     79          1           0        7.562147   -1.701973   -1.060915
 ---------------------------------------------------------------------

 SCF Done:  E(RCAM-B3LYP) =  -2034.89823114     A.U. after   19 cycles

 Excitation energies and oscillator strengths:

 Excited State   1:      Singlet-A      1.7683 eV  701.14 nm  f=0.0000  <S**2>=0.000
     155 ->158        -0.19181
     156 ->157         0.68180
     155 <-158        -0.10604
 This state for optimization and/or second-order correction.
 Total Energy, E(TD-HF/TD-DFT) =  -2034.83324654
 Copying the excited state density for this state as the 1-particle RhoCI density.

 Excited State   2:      Singlet-A      2.2757 eV  544.83 nm  f=0.0000  <S**2>=0.000
     155 ->157         0.61590
     156 ->158         0.33785

 Excited State   3:      Singlet-A      3.4172 eV  362.83 nm  f=0.0000  <S**2>=0.000
     154 ->157        -0.11607
     155 ->157        -0.32085
     156 ->158         0.59931
     155 <-157         0.10584

 Excited State   4:      Singlet-A      3.5808 eV  346.25 nm  f=0.0000  <S**2>=0.000
     152 ->157         0.12012
     153 ->157         0.54066
     153 ->159         0.27079
     153 ->160        -0.21986
     153 ->161         0.11844
     156 ->158         0.11376

 Excited State   5:      Singlet-A      3.7344 eV  332.01 nm  f=0.0000  <S**2>=0.000
     151 ->157        -0.10407
     152 ->157        -0.15489
     154 ->157         0.49395
     156 ->159         0.40769
     156 ->161         0.11352

 The electronic state is 1-A.
 Alpha  occ. eigenvalues --  -46.87964 -19.23917 -19.19943 -19.18345 -19.17657
 Alpha  occ. eigenvalues --  -14.41716 -14.41067 -14.40008 -14.38757 -10.38260
 Alpha  occ. eigenvalues --  -10.35972 -10.33553 -10.30835 -10.30662 -10.30591
 Alpha  occ. eigenvalues --  -10.30458 -10.30250 -10.30142 -10.29038 -10.28973
 Alpha  occ. eigenvalues --  -10.28934 -10.28724 -10.28070 -10.27859 -10.27833
 Alpha  occ. eigenvalues --  -10.27818 -10.27769 -10.27754 -10.27600 -10.27566
 Alpha  occ. eigenvalues --  -10.27496 -10.27333 -10.27247 -10.26530 -10.26502
 Alpha  occ. eigenvalues --  -10.26270 -10.26047 -10.26044 -10.25907 -10.25571
 Alpha  occ. eigenvalues --  -10.25223 -10.25062 -10.24067  -3.16819  -1.91684
 Alpha  occ. eigenvalues --   -1.91288  -1.91152  -1.14848  -1.11536  -1.09008
 Alpha  occ. eigenvalues --   -1.05927  -1.05595  -1.04705  -1.04120  -1.03002
 Alpha  occ. eigenvalues --   -0.92347  -0.89636  -0.88428  -0.88031  -0.87966
 Alpha  occ. eigenvalues --   -0.87474  -0.86564  -0.84380  -0.83592  -0.82718
 Alpha  occ. eigenvalues --   -0.82610  -0.81070  -0.80532  -0.79031  -0.77471
 Alpha  occ. eigenvalues --   -0.76988  -0.75708  -0.75216  -0.72648  -0.71693
 Alpha  occ. eigenvalues --   -0.69650  -0.69035  -0.68157  -0.67323  -0.65421
 Alpha  occ. eigenvalues --   -0.64981  -0.64752  -0.63768  -0.61719  -0.61124
 Alpha  occ. eigenvalues --   -0.59325  -0.59291  -0.57934  -0.57808  -0.57557
 Alpha  occ. eigenvalues --   -0.56312  -0.55322  -0.55126  -0.54678  -0.54425
 Alpha  occ. eigenvalues --   -0.53642  -0.53213  -0.52631  -0.52627  -0.52445
 Alpha  occ. eigenvalues --   -0.52303  -0.51638  -0.51265  -0.50617  -0.50469
 Alpha  occ. eigenvalues --   -0.50238  -0.49507  -0.49340  -0.49099  -0.48784
 Alpha  occ. eigenvalues --   -0.48580  -0.48070  -0.48019  -0.47791  -0.47176
 Alpha  occ. eigenvalues --   -0.46805  -0.46662  -0.46519  -0.45715  -0.45489
 Alpha  occ. eigenvalues --   -0.45257  -0.44835  -0.44517  -0.44122  -0.43917
 Alpha  occ. eigenvalues --   -0.43839  -0.43471  -0.43181  -0.42916  -0.42853
 Alpha  occ. eigenvalues --   -0.42444  -0.42145  -0.41852  -0.41580  -0.41257
 Alpha  occ. eigenvalues --   -0.41067  -0.40754  -0.40527  -0.39595  -0.39213
 Alpha  occ. eigenvalues --   -0.38475  -0.38202  -0.37009  -0.36455  -0.36280
 Alpha  occ. eigenvalues --   -0.35158  -0.34365  -0.33284  -0.32946  -0.32502
 Alpha  occ. eigenvalues --   -0.31370  -0.30723  -0.30097  -0.29718  -0.23819
 Alpha  occ. eigenvalues --   -0.20614
 Alpha virt. eigenvalues --   -0.07835  -0.01759   0.00216   0.02270   0.03017
 Alpha virt. eigenvalues --    0.05017   0.06104   0.06479   0.06946   0.08113
 Alpha virt. eigenvalues --    0.08777   0.09372   0.09571   0.10220   0.10824

 Mulliken charges:
               1
     1  Mg   0.842467
     2  C   -0.036537
     3  C   -0.149632
     4  C   -0.115246
     5  C   -0.126896
     6  N   -0.309050
     7  C    0.007342
     8  C    0.000711
     9  C   -0.099780
    10  C    0.076757
    11  C    0.096055
    12  C    0.052797
    13  C   -0.072106
    14  H    0.013118
    15  N   -0.423063
    16  C    0.163546
    17  C   -0.145698
    18  C   -0.122612
    19  C    0.189938
    20  C    0.094118
    21  C    0.014476
    22  O   -0.179948
    23  C    0.036095
    24  N   -0.304133
    25  C    0.044053
    26  C   -0.035920
    27  C    0.004667
    28  C    0.044700
    29  C    0.073339
    30  C    0.039086
    31  C    0.009187
    32  N   -0.315946
    33  C    0.211103
    34  C   -0.181597
    35  C    0.081690
    36  C    0.114938
    37  C    0.144908
    38  C   -0.033930
    39  O   -0.184818
    40  C    0.003564
    41  C    0.194832
    42  O   -0.239676
    43  O   -0.323521
    44  C    0.190551
    45  H   -0.033361
    46  H   -0.010944
    47  H   -0.034595
    48  H    0.025421
    49  H    0.007555
    50  H    0.023294
    51  H    0.016671
    52  H    0.025104
    53  H    0.009341
    54  H    0.018356
    55  H    0.026028
    56  H    0.040058
    57  H    0.035371
    58  H    0.007406
    59  H    0.044184
    60  H    0.040493
    61  H    0.048817
    62  H    0.021160
    63  H    0.010172
    64  H    0.004556
    65  H    0.016710
    66  H    0.004977
    67  H    0.028279
    68  H    0.007622
    69  H    0.007843
    70  H    0.009811
    71  H    0.017891
    72  H    0.021295
    73  H    0.036704
    74  H    0.041712
    75  H   -0.001597
    76  H    0.044551
    77  H    0.042898
    78  H    0.040273
    79  H    0.012016
 Sum of Mulliken charges =  -0.00000

 Dipole moment (field-independent basis, Debye):
    X=             -1.1242    Y=             -0.7001    Z=              2.3599  Tot=              2.7061
 Quadrupole moment (field-independent basis, Debye-Ang):
   XX=           -282.9109   YY=           -222.5457   ZZ=           -255.5721
   XY=            -18.5723   XZ=             10.8592   YZ=             -1.3533

 Normal termination of Gaussian 16 at Fri Oct  8 18:02:43 2021.
