 Gaussian 16, Revision A.03,
 Gaussian 16:  ES64L-G16RevA.03 25-Dec-2016

 -----------------------------------------------------------
 #p cam-b3lyp/Def2SVP td=(nstates=5, root=1) density=current
 -----------------------------------------------------------

 --------------------------------
 TDDFT excited states in gaussian
 --------------------------------
 Symbolic Z-matrix:
 Charge =  0 Multiplicity = 1

                         Standard orientation:
 ---------------------------------------------------------------------
 Center     Atomic      Atomic             Coordinates (Angstroms)
 Number     Number       Type             X           Y           Z
 ---------------------------------------------------------------------
      1         12           0       -0.714159    0.251769    0.021574
      2          6           0        2.803975    0.285946    0.257656
      3          6           0       -0.583187   -3.173416   -0.228166
      4          6           0       -4.056551    0.138705   -0.288512
      5          6           0       -0.750421    3.735701   -0.301056
      6          7           0        0.937024   -1.175130    0.158814
      7          6           0        2.256807   -1.043144    0.256490
      8          6           0        3.078639   -2.348052    0.305241
      9          6           0        1.899260   -3.335541   -0.153172
     10          6           0        0.653244   -2.484812   -0.116321
     11          6           0        2.118007   -3.952677   -1.513182
     12          6           0        3.670465   -2.713139    1.776982
     13          6           0        4.936791   -3.572502    1.718989
     14          1           0        6.185394   -2.905498    2.351417
     15          7           0       -2.187168   -1.322027   -0.064103
     16          6           0       -1.880226   -2.697686   -0.208806
     17          6           0       -3.117785   -3.421073   -0.022020
     18          6           0       -4.148500   -2.485588   -0.012598
     19          6           0       -3.503512   -1.138175   -0.103500
     20          6           0       -3.231727   -4.932495   -0.085757
     21          6           0       -5.644730   -2.642745    0.133544
     22          8           0       -6.340756   -1.671591    0.194655
     23          6           0       -6.292639   -3.983188    0.281751
     24          7           0       -2.181047    1.683238   -0.451945
     25          6           0       -3.517314    1.407362   -0.453246
     26          6           0       -4.244240    2.769988   -0.625251
     27          6           0       -3.301624    3.823751   -0.072091
     28          6           0       -1.959413    3.087151   -0.292686
     29          6           0       -4.479881    3.033148   -2.111878
     30          6           0       -3.564942    4.216056    1.334596
     31          6           0       -3.795171    3.139176    2.365814
     32          7           0        0.689945    1.758793    0.011607
     33          6           0        0.559810    3.126978   -0.135415
     34          6           0        1.893664    3.741575   -0.050454
     35          6           0        2.775954    2.661743    0.127323
     36          6           0        2.020916    1.521145    0.157882
     37          6           0        2.205777    5.169444   -0.183571
     38          6           0        4.130110    2.283947    0.431341
     39          8           0        5.165554    2.989015    0.614928
     40          6           0        4.160982    0.687466    0.555229
     41          6           0        5.102389    0.196790   -0.514030
     42          8           0        5.051731    0.574374   -1.646975
     43          8           0        6.028792   -0.800263   -0.104652
     44          6           0        6.729243   -1.511163   -1.217222
     45          1           0       -0.559488   -4.256503   -0.361031
     46          1           0       -5.129824    0.143644   -0.491593
     47          1           0       -0.702271    4.823850   -0.219817
     48          1           0        3.944960   -2.268311   -0.352625
     49          1           0        1.897109   -4.110467    0.614364
     50          1           0        2.534654   -4.943265   -1.331570
     51          1           0        2.708485   -3.319657   -2.175882
     52          1           0        1.108687   -4.155144   -1.871338
     53          1           0        2.925426   -3.268363    2.347688
     54          1           0        3.852246   -1.805741    2.353257
     55          1           0        5.020875   -3.759517    0.648251
     56          1           0        4.782282   -4.561310    2.150407
     57          1           0       -2.214781   -5.283685    0.084984
     58          1           0       -3.473952   -5.110280   -1.133139
     59          1           0       -3.901421   -5.332566    0.675799
     60          1           0       -5.967309   -4.225504    1.293600
     61          1           0       -5.919692   -4.746294   -0.400854
     62          1           0       -7.376242   -3.891776    0.199743
     63          1           0       -5.232050    2.830857   -0.169808
     64          1           0       -3.317276    4.781876   -0.590503
     65          1           0       -3.831858    3.726362   -2.648280
     66          1           0       -5.505213    3.387024   -2.218929
     67          1           0       -4.436658    2.075603   -2.632107
     68          1           0       -4.385777    4.929533    1.411019
     69          1           0       -2.664959    4.757479    1.625536
     70          1           0       -2.927518    3.174534    3.025249
     71          1           0       -3.929197    2.085220    2.120468
     72          1           0       -4.649084    3.433976    2.975547
     73          1           0        2.045166    5.455255   -1.223044
     74          1           0        3.238744    5.240096    0.156956
     75          1           0        1.522752    5.784269    0.404116
     76          1           0        4.463638    0.501044    1.585806
     77          1           0        7.527575   -0.888182   -1.620414
     78          1           0        6.061975   -1.798425   -2.031109
     79          1           0        7.275646   -2.411815   -0.938739
 ---------------------------------------------------------------------

 SCF Done:  E(RCAM-B3LYP) =  -2034.89963285     A.U. after   17 cycles

 Excitation energies and oscillator strengths:

 Excited State   1:      Singlet-A      1.6958 eV  731.13 nm  f=0.3696  <S**2>=0.000
     155 ->158        -0.17420
     156 ->157         0.68768
     155 <-158        -0.10612
 This state for optimization and/or second-order correction.
 Total Energy, E(TD-HF/TD-DFT) =  -2034.83731414
 Copying the excited state density for this state as the 1-particle RhoCI density.

 Excited State   2:      Singlet-A      2.1842 eV  567.65 nm  f=0.1188  <S**2>=0.000
     155 ->157         0.64718
     156 ->158         0.27029

 Excited State   3:      Singlet-A      3.3553 eV  369.51 nm  f=0.0163  <S**2>=0.000
     150 ->157         0.10607
     153 ->157         0.48977
     154 ->157        -0.44983
     156 ->158        -0.12227

 Excited State   4:      Singlet-A      3.4396 eV  360.46 nm  f=0.0306  <S**2>=0.000
     150 ->157         0.11418
     152 ->157         0.51163
     152 ->159         0.22359
     152 ->160        -0.17759
     153 ->159        -0.10176
     154 ->157         0.19957
     156 ->158        -0.23853

 Excited State   5:      Singlet-A      3.4502 eV  359.36 nm  f=0.0177  <S**2>=0.000
     150 ->157         0.15482
     152 ->157        -0.23178
     152 ->159        -0.17705
     152 ->160         0.12782
     153 ->157         0.30270
     154 ->157         0.45115
     156 ->158        -0.23351

 The electronic state is 1-A.
 Alpha  occ. eigenvalues --  -46.88632 -19.24506 -19.20051 -19.19091 -19.18249
 Alpha  occ. eigenvalues --  -14.43423 -14.41348 -14.39715 -14.39064 -10.39406
 Alpha  occ. eigenvalues --  -10.35196 -10.34749 -10.31859 -10.31691 -10.31280
 Alpha  occ. eigenvalues --  -10.31129 -10.30957 -10.30617 -10.30527 -10.29446
 Alpha  occ. eigenvalues --  -10.29397 -10.28865 -10.28813 -10.28395 -10.28375
 Alpha  occ. eigenvalues --  -10.28318 -10.28251 -10.28208 -10.28136 -10.27537
 Alpha  occ. eigenvalues --  -10.27233 -10.27134 -10.27127 -10.26702 -10.26659
 Alpha  occ. eigenvalues --  -10.26598 -10.26425 -10.25629 -10.25405 -10.25124
 Alpha  occ. eigenvalues --  -10.25114 -10.24470 -10.24434  -3.17126  -1.92049
 Alpha  occ. eigenvalues --   -1.91558  -1.91443  -1.15622  -1.12126  -1.07389
 Alpha  occ. eigenvalues --   -1.06662  -1.05306  -1.03547  -1.02944  -1.01777
 Alpha  occ. eigenvalues --   -0.92960  -0.90057  -0.89448  -0.88842  -0.87857
 Alpha  occ. eigenvalues --   -0.86944  -0.86229  -0.84716  -0.83581  -0.82639
 Alpha  occ. eigenvalues --   -0.82482  -0.81122  -0.79931  -0.78921  -0.77356
 Alpha  occ. eigenvalues --   -0.77116  -0.76294  -0.74998  -0.72467  -0.71342
 Alpha  occ. eigenvalues --   -0.69713  -0.68859  -0.67852  -0.67133  -0.65839
 Alpha  occ. eigenvalues --   -0.64949  -0.64213  -0.63418  -0.61778  -0.60393
 Alpha  occ. eigenvalues --   -0.59949  -0.59155  -0.58991  -0.58618  -0.57603
 Alpha  occ. eigenvalues --   -0.56405  -0.55771  -0.54795  -0.54551  -0.54099
 Alpha  occ. eigenvalues --   -0.53990  -0.53728  -0.53625  -0.53054  -0.52445
 Alpha  occ. eigenvalues --   -0.51891  -0.51643  -0.51538  -0.50851  -0.50742
 Alpha  occ. eigenvalues --   -0.50213  -0.50020  -0.49702  -0.49596  -0.49218
 Alpha  occ. eigenvalues --   -0.49085  -0.48311  -0.48231  -0.47744  -0.47660
 Alpha  occ. eigenvalues --   -0.47185  -0.46719  -0.46365  -0.45888  -0.45567
 Alpha  occ. eigenvalues --   -0.45415  -0.45229  -0.44967  -0.44330  -0.44180
 Alpha  occ. eigenvalues --   -0.43742  -0.43513  -0.43166  -0.43117  -0.42861
 Alpha  occ. eigenvalues --   -0.42535  -0.42475  -0.41833  -0.41568  -0.41053
 Alpha  occ. eigenvalues --   -0.40940  -0.40389  -0.40282  -0.39757  -0.39533
 Alpha  occ. eigenvalues --   -0.38354  -0.37726  -0.37295  -0.37139  -0.36440
 Alpha  occ. eigenvalues --   -0.36203  -0.34693  -0.34529  -0.33216  -0.31723
 Alpha  occ. eigenvalues --   -0.31379  -0.30324  -0.30020  -0.29339  -0.24153
 Alpha  occ. eigenvalues --   -0.21397
 Alpha virt. eigenvalues --   -0.08971  -0.01748   0.00427   0.02163   0.03251
 Alpha virt. eigenvalues --    0.04643   0.05290   0.05608   0.06123   0.07812
 Alpha virt. eigenvalues --    0.08159   0.08814   0.09163   0.09433   0.10018

 Mulliken charges:
               1
     1  Mg   0.803254
     2  C   -0.058927
     3  C   -0.107456
     4  C   -0.060052
     5  C   -0.075223
     6  N   -0.265508
     7  C   -0.020859
     8  C   -0.048419
     9  C   -0.089038
    10  C    0.109349
    11  C    0.105399
    12  C    0.047347
    13  C   -0.047899
    14  H    0.046899
    15  N   -0.365358
    16  C    0.128578
    17  C   -0.171617
    18  C   -0.010905
    19  C    0.114088
    20  C    0.119284
    21  C   -0.033244
    22  O   -0.184999
    23  C    0.054587
    24  N   -0.348879
    25  C    0.066414
    26  C   -0.037479
    27  C   -0.003391
    28  C    0.112361
    29  C    0.079696
    30  C    0.052332
    31  C   -0.014510
    32  N   -0.354636
    33  C    0.079682
    34  C   -0.184269
    35  C    0.045750
    36  C    0.115394
    37  C    0.125930
    38  C    0.020149
    39  O   -0.216806
    40  C    0.042028
    41  C    0.192946
    42  O   -0.182880
    43  O   -0.373137
    44  C    0.178439
    45  H   -0.018686
    46  H   -0.008982
    47  H   -0.026604
    48  H    0.025008
    49  H    0.013498
    50  H    0.008593
    51  H    0.033688
    52  H    0.005302
    53  H    0.006392
    54  H    0.021266
    55  H    0.009082
    56  H    0.022457
    57  H    0.004300
    58  H    0.048241
    59  H    0.033672
    60  H    0.035958
    61  H    0.028816
    62  H    0.031605
    63  H   -0.001155
    64  H   -0.006672
    65  H    0.021617
    66  H    0.010559
    67  H    0.012464
    68  H    0.008893
    69  H   -0.007918
    70  H    0.007699
    71  H    0.041909
    72  H    0.007778
    73  H    0.034864
    74  H    0.045932
    75  H    0.016923
    76  H    0.044480
    77  H    0.037992
    78  H    0.033089
    79  H    0.033521
 Sum of Mulliken charges =  -0.00000

 Dipole moment (field-independent basis, Debye):
    X=             -2.3066    Y=             -4.5909    Z=              0.5137  Tot=              5.1633
 Quadrupole moment (field-independent basis, Debye-Ang):
   XX=           -285.5788   YY=           -223.7584   ZZ=           -258.4102
   XY=            -29.0570   XZ=             -1.1701   YZ=              1.7455

 Normal termination of Gaussian 16 at Tue Oct 12 13:00:15 2021.
