 Gaussian 16, Revision A.03,
 Gaussian 16:  ES64L-G16RevA.03 25-Dec-2016

 -----------------------------------
 #p cam-b3lyp/Def2SVP td=(nstates=5)
 -----------------------------------

 --------------------------------
 TDDFT excited states in gaussian
 --------------------------------
 Symbolic Z-matrix:
 Charge =  0 Multiplicity = 1

                         Standard orientation:
 ---------------------------------------------------------------------
 Center     Atomic      Atomic             Coordinates (Angstroms)
 Number     Number       Type             X           Y           Z
 ---------------------------------------------------------------------
      1         12           0      -21.228322    0.031276   -0.433643
      2          6           0      -17.823273   -0.440427   -0.098126
      3          6           0      -21.676455   -3.259037    0.473742
      4          6           0      -24.599259    0.640746   -0.179606
      5          6           0      -20.702054    3.340419   -1.223454
      6          7           0      -19.932860   -1.582244    0.310641
      7          6           0      -18.552780   -1.540004    0.284540
      8          6           0      -17.934792   -2.868579    0.712079
      9          6           0      -19.164942   -3.838319    0.555672
     10          6           0      -20.315157   -2.844177    0.490285
     11          6           0      -19.109046   -4.908961   -0.626203
     12          6           0      -17.237877   -2.892843    2.109815
     13          6           0      -15.888983   -3.578778    2.160227
     14          1           0      -15.938320   -4.884166    2.938900
     15          7           0      -22.854116   -1.152702    0.088848
     16          6           0      -22.840458   -2.454942    0.394909
     17          6           0      -24.191212   -2.954078    0.586086
     18          6           0      -25.108614   -1.928485    0.429580
     19          6           0      -24.217003   -0.722582    0.148211
     20          6           0      -24.498747   -4.465836    1.019767
     21          6           0      -26.670059   -2.043346    0.464029
     22          8           0      -27.188729   -3.161131    0.743577
     23          6           0      -27.547929   -0.874107    0.229836
     24          7           0      -22.516130    1.858881   -0.434228
     25          6           0      -23.827603    1.815635   -0.484698
     26          6           0      -24.439124    3.103789   -0.994732
     27          6           0      -23.248676    4.082634   -1.274509
     28          6           0      -22.046631    3.046264   -1.046273
     29          6           0      -25.601611    3.058035   -2.037199
     30          6           0      -23.069026    5.373151   -0.423534
     31          6           0      -22.154668    6.389423   -1.075860
     32          7           0      -19.567593    1.247075   -0.617848
     33          6           0      -19.489072    2.594790   -1.038754
     34          6           0      -18.098748    2.931535   -1.180377
     35          6           0      -17.371651    1.760568   -0.854980
     36          6           0      -18.332786    0.821389   -0.491470
     37          6           0      -17.531954    4.193834   -1.812970
     38          6           0      -16.088183    1.263611   -0.785290
     39          8           0      -14.983898    1.724048   -0.888347
     40          6           0      -16.297233   -0.199185   -0.130071
     41          6           0      -15.924108    0.000414    1.338087
     42          8           0      -16.642437    0.479855    2.194079
     43          8           0      -14.621328   -0.448592    1.482736
     44          6           0      -14.020466   -0.248431    2.797476
     45          1           0      -21.878638   -4.328670    0.558224
     46          1           0      -25.681046    0.760438   -0.094489
     47          1           0      -20.383791    4.315906   -1.597034
     48          1           0      -17.216572   -3.155024   -0.055625
     49          1           0      -19.329447   -4.289903    1.534669
     50          1           0      -20.168004   -5.110837   -0.786937
     51          1           0      -18.717113   -5.882520   -0.330756
     52          1           0      -18.599068   -4.606530   -1.540737
     53          1           0      -17.954155   -3.428837    2.732847
     54          1           0      -17.212527   -1.955892    2.665833
     55          1           0      -15.188511   -2.880354    2.618665
     56          1           0      -15.513139   -3.834512    1.169353
     57          1           0      -23.619498   -5.087472    1.194043
     58          1           0      -25.116343   -4.960709    0.269506
     59          1           0      -24.973534   -4.542056    1.996981
     60          1           0      -27.358259   -0.470341   -0.764197
     61          1           0      -27.508976   -0.169458    1.060635
     62          1           0      -28.533624   -1.313940    0.083166
     63          1           0      -24.932931    3.719495   -0.242676
     64          1           0      -23.094625    4.258837   -2.339346
     65          1           0      -25.938030    2.020636   -2.062288
     66          1           0      -25.342801    3.487155   -3.005858
     67          1           0      -26.483550    3.630450   -1.749394
     68          1           0      -22.730756    5.040436    0.557686
     69          1           0      -24.085289    5.738179   -0.275347
     70          1           0      -22.496852    7.379237   -0.772700
     71          1           0      -22.141233    6.373427   -2.166304
     72          1           0      -21.159826    6.302572   -0.638924
     73          1           0      -16.458947    4.150485   -1.999944
     74          1           0      -17.784750    5.029714   -1.161954
     75          1           0      -18.007342    4.403682   -2.771197
     76          1           0      -15.755637   -0.965062   -0.686087
     77          1           0      -13.913500    0.819414    2.988886
     78          1           0      -13.071731   -0.775192    2.894200
     79          1           0      -14.701254   -0.613449    3.565979
     80         12           0       20.882072    0.690639   -0.287212
     81          6           0       19.836817   -2.670695   -0.335378
     82          6           0       17.585292    1.507152    0.460017
     83          6           0       21.818163    3.845462    0.225026
     84          6           0       24.156490   -0.446114   -0.115812
     85          7           0       18.985519   -0.535870    0.179812
     86          6           0       18.726997   -1.878561   -0.015737
     87          6           0       17.261866   -2.253529   -0.092040
     88          6           0       16.538841   -0.905389    0.140307
     89          6           0       17.728911    0.098392    0.288239
     90          6           0       15.532507   -0.497493   -1.010983
     91          6           0       16.754707   -3.356181    0.940962
     92          6           0       17.440140   -3.425862    2.315345
     93          1           0       16.682547   -2.851149    3.548770
     94          7           0       19.861182    2.394102    0.245414
     95          6           0       18.518577    2.542270    0.448361
     96          6           0       18.198020    3.960289    0.663871
     97          6           0       19.435702    4.670271    0.594740
     98          6           0       20.455843    3.604530    0.351694
     99          6           0       16.783279    4.481622    0.886332
    100          6           0       19.449452    6.217111    0.886663
    101          8           0       18.393964    6.750292    1.199254
    102          6           0       20.815732    7.023181    0.862719
    103          7           0       22.686038    1.528380    0.130256
    104          6           0       22.867633    2.909367    0.148685
    105          6           0       24.455221    3.280215    0.215526
    106          6           0       25.101503    1.791290    0.256111
    107          6           0       23.902096    0.918353    0.071882
    108          6           0       24.921792    4.141870   -0.994605
    109          6           0       25.889982    1.429735    1.587209
    110          6           0       27.319666    0.877256    1.478702
    111          7           0       21.870172   -1.174274   -0.356947
    112          6           0       23.195153   -1.516546   -0.267912
    113          6           0       23.303460   -2.989920   -0.316780
    114          6           0       21.969662   -3.456283   -0.464814
    115          6           0       21.152989   -2.291572   -0.431149
    116          6           0       24.549592   -3.824734   -0.211559
    117          6           0       21.172068   -4.695368   -0.530764
    118          8           0       21.480516   -5.890774   -0.643570
    119          6           0       19.743791   -4.184973   -0.650451
    120          6           0       19.138721   -4.516335   -1.896362
    121          8           0       19.380636   -3.869695   -2.948331
    122          8           0       18.246151   -5.598742   -1.765731
    123          6           0       17.422585   -5.957956   -2.915721
    124          1           0       16.547852    1.840737    0.525181
    125          1           0       22.147577    4.886171    0.229991
    126          1           0       25.213906   -0.717100   -0.117106
    127          1           0       17.167912   -2.627469   -1.110867
    128          1           0       16.119006   -0.970052    1.143478
    129          1           0       14.510717   -0.553227   -0.635667
    130          1           0       15.695873   -1.212887   -1.817421
    131          1           0       15.708132    0.523919   -1.350217
    132          1           0       17.004371   -4.273382    0.406061
    133          1           0       15.670940   -3.283937    1.035062
    134          1           0       18.415167   -2.938535    2.283072
    135          1           0       17.688610   -4.467255    2.515649
    136          1           0       16.545657    4.731418    1.920396
    137          1           0       16.050879    3.859882    0.371272
    138          1           0       16.617483    5.399493    0.322579
    139          1           0       21.331537    6.740104   -0.055154
    140          1           0       21.379967    6.731517    1.748136
    141          1           0       20.705159    8.089188    1.061470
    142          1           0       24.570927    3.933025    1.080202
    143          1           0       25.730145    1.695916   -0.629511
    144          1           0       25.322025    3.459838   -1.744480
    145          1           0       25.611462    4.935910   -0.708091
    146          1           0       24.128370    4.730917   -1.454315
    147          1           0       25.250902    0.748624    2.150055
    148          1           0       25.938329    2.402688    2.076198
    149          1           0       27.625247    0.350829    2.383330
    150          1           0       27.905818    1.784499    1.334032
    151          1           0       27.281699    0.211426    0.616280
    152          1           0       25.237113   -3.200063    0.358067
    153          1           0       24.890825   -3.860023   -1.246151
    154          1           0       24.399169   -4.844564    0.143810
    155          1           0       19.262884   -4.702049    0.179594
    156          1           0       17.934847   -6.331740   -3.802312
    157          1           0       16.816561   -5.104109   -3.220096
    158          1           0       16.652101   -6.632047   -2.541123
 ---------------------------------------------------------------------

 SCF Done:  E(RCAM-B3LYP) =  -4069.80137065     A.U. after   19 cycles

 Excitation energies and oscillator strengths:

 Excited State   1:      Singlet-A      1.7180 eV  721.67 nm  f=0.3747  <S**2>=0.000
     309 -> 316        0.18148
     312 -> 314        0.68506
     309 <- 316        0.10790
 This state for optimization and/or second-order correction.
 Total Energy, E(TD-HF/TD-DFT) =  -4069.73823502
 Copying the excited state density for this state as the 1-particle RhoCI density.

 Excited State   2:      Singlet-A      1.8652 eV  664.71 nm  f=0.3733  <S**2>=0.000
     310 -> 315        0.14281
     311 -> 313        0.68807

 Excited State   3:      Singlet-A      2.2638 eV  547.68 nm  f=0.1281  <S**2>=0.000
     310 -> 313        0.64676
     311 -> 315       -0.24682
     311 -> 317       -0.10323

 Excited State   4:      Singlet-A      2.3104 eV  536.63 nm  f=0.0713  <S**2>=0.000
     309 -> 314        0.61632
     312 -> 316       -0.33583

 Excited State   5:      Singlet-A      3.1393 eV  394.94 nm  f=0.0000  <S**2>=0.000
     312 -> 313        0.70710

 The electronic state is 1-A.
 Alpha  occ. eigenvalues --  -46.89409 -46.88904 -19.25770 -19.24531 -19.20232
 Alpha  occ. eigenvalues --  -19.20214 -19.19885 -19.19591 -19.19171 -19.17729
 Alpha  occ. eigenvalues --  -14.42615 -14.42320 -14.42061 -14.42058 -14.40560
 Alpha  occ. eigenvalues --  -14.39936 -14.39293 -14.38498 -10.40001 -10.39100
 Alpha  occ. eigenvalues --  -10.37038 -10.36470 -10.35329 -10.33410 -10.33084
 Alpha  occ. eigenvalues --  -10.32426 -10.32093 -10.31858 -10.31730 -10.31326
 Alpha  occ. eigenvalues --  -10.31157 -10.31089 -10.30914 -10.30616 -10.30562
 Alpha  occ. eigenvalues --  -10.30363 -10.30066 -10.29817 -10.29812 -10.29804
 Alpha  occ. eigenvalues --  -10.29279 -10.29173 -10.28976 -10.28439 -10.28424
 Alpha  occ. eigenvalues --  -10.28399 -10.28353 -10.28347 -10.28309 -10.28286
 Alpha  occ. eigenvalues --  -10.28284 -10.28280 -10.28072 -10.28067 -10.28009
 Alpha  occ. eigenvalues --  -10.27739 -10.27719 -10.27526 -10.27446 -10.27430
 Alpha  occ. eigenvalues --  -10.27366 -10.27242 -10.27201 -10.27164 -10.27130
 Alpha  occ. eigenvalues --  -10.27117 -10.26963 -10.26946 -10.26926 -10.26865
 Alpha  occ. eigenvalues --  -10.26790 -10.26768 -10.26765 -10.26709 -10.26637
 Alpha  occ. eigenvalues --  -10.26565 -10.26551 -10.26454 -10.26038 -10.25953
 Alpha  occ. eigenvalues --  -10.25840 -10.25809 -10.25431 -10.25304 -10.25152
 Alpha  occ. eigenvalues --  -10.23111  -3.17848  -3.17530  -1.92732  -1.92389
 Alpha  occ. eigenvalues --   -1.92309  -1.92152  -1.92002  -1.91835  -1.15473
 Alpha  occ. eigenvalues --   -1.14950  -1.10391  -1.09811  -1.09153  -1.09035
 Alpha  occ. eigenvalues --   -1.07918  -1.07000  -1.04595  -1.04124  -1.03850
 Alpha  occ. eigenvalues --   -1.03525  -1.03202  -1.02591  -1.02558  -1.01857
 Alpha  occ. eigenvalues --   -0.93111  -0.91572  -0.89189  -0.89144  -0.88823
 Alpha  occ. eigenvalues --   -0.88507  -0.88028  -0.87978  -0.87066  -0.86784
 Alpha  occ. eigenvalues --   -0.86641  -0.86058  -0.85834  -0.85538  -0.84514
 Alpha  occ. eigenvalues --   -0.84501  -0.83893  -0.83643  -0.83216  -0.82778
 Alpha  occ. eigenvalues --   -0.82069  -0.81639  -0.80986  -0.80718  -0.80230
 Alpha  occ. eigenvalues --   -0.80061  -0.78147  -0.77652  -0.77195  -0.77170
 Alpha  occ. eigenvalues --   -0.76751  -0.76746  -0.76499  -0.75341  -0.75152
 Alpha  occ. eigenvalues --   -0.74880  -0.72403  -0.72310  -0.71727  -0.71704
 Alpha  occ. eigenvalues --   -0.69733  -0.69270  -0.69124  -0.68889  -0.68413
 Alpha  occ. eigenvalues --   -0.67916  -0.67365  -0.66788  -0.65759  -0.65624
 Alpha  occ. eigenvalues --   -0.65488  -0.65164  -0.64688  -0.64555  -0.64178
 Alpha  occ. eigenvalues --   -0.64052  -0.62419  -0.61714  -0.60210  -0.59980
 Alpha  occ. eigenvalues --   -0.59601  -0.59483  -0.59043  -0.59037  -0.58630
 Alpha  occ. eigenvalues --   -0.58472  -0.57852  -0.57717  -0.57400  -0.57161
 Alpha  occ. eigenvalues --   -0.56447  -0.56119  -0.55581  -0.55500  -0.55051
 Alpha  occ. eigenvalues --   -0.54923  -0.54409  -0.54194  -0.54170  -0.53933
 Alpha  occ. eigenvalues --   -0.53742  -0.53740  -0.53346  -0.53170  -0.53063
 Alpha  occ. eigenvalues --   -0.52725  -0.52596  -0.52319  -0.52103  -0.52019
 Alpha  occ. eigenvalues --   -0.51597  -0.51538  -0.51164  -0.51039  -0.50924
 Alpha  occ. eigenvalues --   -0.50814  -0.50686  -0.50539  -0.50278  -0.50165
 Alpha  occ. eigenvalues --   -0.50018  -0.49956  -0.49821  -0.49462  -0.49334
 Alpha  occ. eigenvalues --   -0.49328  -0.49232  -0.49038  -0.48941  -0.48716
 Alpha  occ. eigenvalues --   -0.48551  -0.48550  -0.48320  -0.48227  -0.48114
 Alpha  occ. eigenvalues --   -0.47592  -0.47374  -0.47344  -0.47186  -0.47176
 Alpha  occ. eigenvalues --   -0.46589  -0.46557  -0.46424  -0.46216  -0.46199
 Alpha  occ. eigenvalues --   -0.46142  -0.46136  -0.45970  -0.45745  -0.45356
 Alpha  occ. eigenvalues --   -0.45228  -0.45201  -0.45055  -0.44943  -0.44889
 Alpha  occ. eigenvalues --   -0.44764  -0.44676  -0.44588  -0.44532  -0.44287
 Alpha  occ. eigenvalues --   -0.44156  -0.43954  -0.43899  -0.43598  -0.43419
 Alpha  occ. eigenvalues --   -0.43202  -0.43093  -0.43007  -0.42903  -0.42716
 Alpha  occ. eigenvalues --   -0.42650  -0.42564  -0.42484  -0.42367  -0.42235
 Alpha  occ. eigenvalues --   -0.42188  -0.42072  -0.42048  -0.41613  -0.41537
 Alpha  occ. eigenvalues --   -0.41038  -0.40782  -0.40581  -0.40418  -0.40249
 Alpha  occ. eigenvalues --   -0.40164  -0.39874  -0.39834  -0.39672  -0.39279
 Alpha  occ. eigenvalues --   -0.38985  -0.38876  -0.38068  -0.37617  -0.37485
 Alpha  occ. eigenvalues --   -0.37347  -0.37052  -0.36985  -0.36600  -0.36496
 Alpha  occ. eigenvalues --   -0.36337  -0.35345  -0.34730  -0.34429  -0.34382
 Alpha  occ. eigenvalues --   -0.34299  -0.33170  -0.33088  -0.32449  -0.31889
 Alpha  occ. eigenvalues --   -0.31384  -0.31174  -0.30951  -0.30866  -0.30235
 Alpha  occ. eigenvalues --   -0.29670  -0.29575  -0.29110  -0.24113  -0.24076
 Alpha  occ. eigenvalues --   -0.21494  -0.20802
 Alpha virt. eigenvalues --   -0.08458  -0.08156  -0.01799  -0.01778   0.00107
 Alpha virt. eigenvalues --    0.00306   0.01679   0.01798   0.01985   0.02082
 Alpha virt. eigenvalues --    0.03466   0.05065   0.05165   0.05251   0.05824

 Mulliken charges:
               1
     1  Mg   0.828941
     2  C   -0.030239
     3  C   -0.118207
     4  C   -0.095987
     5  C   -0.030504
     6  N   -0.261069
     7  C   -0.046131
     8  C   -0.037667
     9  C   -0.022702
    10  C    0.032237
    11  C    0.082824
    12  C    0.069544
    13  C   -0.053105
    14  H    0.008471
    15  N   -0.381655
    16  C    0.167555
    17  C   -0.137031
    18  C   -0.024664
    19  C    0.115517
    20  C    0.116996
    21  C    0.007372
    22  O   -0.226551
    23  C    0.070458
    24  N   -0.264363
    25  C    0.101571
    26  C   -0.027372
    27  C   -0.054113
    28  C    0.007711
    29  C    0.065015
    30  C    0.060300
    31  C    0.025631
    32  N   -0.347638
    33  C    0.034482
    34  C   -0.140318
    35  C    0.052343
    36  C    0.114923
    37  C    0.104368
    38  C   -0.012332
    39  O   -0.157346
    40  C   -0.046282
    41  C    0.232173
    42  O   -0.211934
    43  O   -0.335441
    44  C    0.185507
    45  H   -0.025996
    46  H   -0.042716
    47  H   -0.041109
    48  H   -0.000734
    49  H    0.006116
    50  H    0.004938
    51  H    0.021623
    52  H    0.031769
    53  H   -0.004010
    54  H    0.028911
    55  H    0.025646
    56  H    0.027206
    57  H   -0.002843
    58  H    0.041089
    59  H    0.035891
    60  H    0.040803
    61  H    0.068744
    62  H    0.028212
    63  H    0.010241
    64  H    0.006685
    65  H    0.011350
    66  H    0.019371
    67  H    0.006943
    68  H    0.016837
    69  H    0.001357
    70  H    0.007791
    71  H    0.022105
    72  H    0.031324
    73  H    0.034182
    74  H    0.016142
    75  H    0.019407
    76  H    0.024828
    77  H    0.038235
    78  H    0.041646
    79  H    0.026731
    80  Mg   0.851628
    81  C   -0.100115
    82  C   -0.078315
    83  C   -0.099250
    84  C   -0.088992
    85  N   -0.279403
    86  C   -0.081224
    87  C   -0.019279
    88  C   -0.002834
    89  C   -0.000074
    90  C    0.073877
    91  C    0.027053
    92  C   -0.064891
    93  H    0.020914
    94  N   -0.362126
    95  C    0.140222
    96  C   -0.140656
    97  C   -0.078379
    98  C    0.187259
    99  C    0.142619
   100  C    0.026525
   101  O   -0.197093
   102  C    0.035347
   103  N   -0.347420
   104  C    0.055863
   105  C   -0.054218
   106  C   -0.028381
   107  C    0.061099
   108  C    0.055238
   109  C    0.021403
   110  C    0.018569
   111  N   -0.317892
   112  C    0.107205
   113  C   -0.195315
   114  C   -0.057893
   115  C    0.233648
   116  C    0.136018
   117  C    0.071803
   118  O   -0.182118
   119  C    0.008134
   120  C    0.252100
   121  O   -0.249967
   122  O   -0.351337
   123  C    0.193043
   124  H   -0.033131
   125  H   -0.057992
   126  H   -0.041278
   127  H    0.023642
   128  H    0.018873
   129  H    0.021352
   130  H    0.018766
   131  H    0.026176
   132  H    0.015702
   133  H    0.023028
   134  H    0.041878
   135  H    0.033101
   136  H    0.040437
   137  H    0.001853
   138  H    0.020877
   139  H    0.054651
   140  H    0.038681
   141  H    0.026075
   142  H    0.018350
   143  H    0.011681
   144  H    0.016632
   145  H    0.015979
   146  H    0.011113
   147  H    0.024249
   148  H    0.000192
   149  H    0.028334
   150  H    0.019625
   151  H    0.018971
   152  H    0.013641
   153  H    0.031421
   154  H    0.042833
   155  H    0.030563
   156  H    0.050899
   157  H    0.016659
   158  H    0.033772
 Sum of Mulliken charges =  -0.00000

 Dipole moment (field-independent basis, Debye):
    X=             -3.5330    Y=              2.4101    Z=             -1.9367  Tot=              4.6948
 Quadrupole moment (field-independent basis, Debye-Ang):
   XX=           -316.7337   YY=           -521.3901   ZZ=           -515.1695
   XY=             47.8064   XZ=             46.6406   YZ=             -8.0075

 Normal termination of Gaussian 16 at Wed Sep  1 18:32:24 2021.
