 Gaussian 16, Revision A.03,
 Gaussian 16:  ES64L-G16RevA.03 25-Dec-2016

 -----------------------------------
 #p cam-b3lyp/Def2SVP td=(nstates=5)
 -----------------------------------

 --------------------------------
 TDDFT excited states in gaussian
 --------------------------------
 Symbolic Z-matrix:
 Charge =  0 Multiplicity = 1

                         Standard orientation:
 ---------------------------------------------------------------------
 Center     Atomic      Atomic             Coordinates (Angstroms)
 Number     Number       Type             X           Y           Z
 ---------------------------------------------------------------------
      1         12           0       16.650020   -0.567836    0.270197
      2          6           0       15.512875    2.424670   -1.331059
      3          6           0       18.808102    1.383507    2.052893
      4          6           0       17.982274   -3.229723    1.363851
      5          6           0       15.255602   -2.342704   -2.385195
      6          7           0       17.018559    1.615010    0.272896
      7          6           0       16.473742    2.658468   -0.344793
      8          6           0       16.965525    4.029573    0.208012
      9          6           0       18.361501    3.566699    0.823639
     10          6           0       18.034054    2.109848    1.099839
     11          6           0       19.516812    3.630584   -0.170181
     12          6           0       16.013856    4.601314    1.312173
     13          6           0       16.237754    6.073604    1.669364
     14          1           0       15.085274    6.895535    2.006362
     15          7           0       17.806909   -0.868939    1.843027
     16          6           0       18.605786    0.043201    2.447247
     17          6           0       19.259772   -0.666443    3.567690
     18          6           0       18.921538   -2.112074    3.450033
     19          6           0       18.236111   -2.132211    2.183083
     20          6           0       20.060236    0.028079    4.626295
     21          6           0       19.184887   -3.290365    4.333440
     22          8           0       19.009004   -4.492272    3.934617
     23          6           0       19.745677   -3.000391    5.665533
     24          7           0       16.821517   -2.495376   -0.512627
     25          6           0       17.395044   -3.477523    0.191246
     26          6           0       17.153298   -4.815810   -0.441593
     27          6           0       16.083348   -4.569721   -1.601076
     28          6           0       15.951285   -3.031663   -1.477765
     29          6           0       18.389405   -5.512267   -1.027255
     30          6           0       14.793044   -5.426401   -1.560637
     31          6           0       13.959858   -5.042847   -0.358229
     32          7           0       15.419992   -0.096482   -1.454883
     33          6           0       14.975028   -0.987739   -2.441970
     34          6           0       14.268691   -0.187880   -3.459508
     35          6           0       14.366820    1.123680   -2.999045
     36          6           0       15.111324    1.145026   -1.785146
     37          6           0       13.693768   -0.687950   -4.661101
     38          6           0       14.037080    2.514906   -3.262898
     39          8           0       13.340759    3.098299   -4.094934
     40          6           0       14.870050    3.426639   -2.257546
     41          6           0       13.920522    4.428821   -1.659770
     42          8           0       13.002626    4.064429   -0.896847
     43          8           0       14.382031    5.668334   -1.885957
     44          6           0       13.501320    6.709870   -1.292910
     45          1           0       19.684445    1.861255    2.495296
     46          1           0       18.330029   -4.185348    1.761702
     47          1           0       14.721718   -2.837708   -3.198454
     48          1           0       17.128916    4.793842   -0.552001
     49          1           0       18.588550    4.087016    1.753930
     50          1           0       19.165102    3.861294   -1.175664
     51          1           0       19.977175    2.642690   -0.145223
     52          1           0       20.283205    4.327006    0.171014
     53          1           0       16.255543    4.139350    2.269376
     54          1           0       14.969369    4.452066    1.036315
     55          1           0       16.859559    6.573881    0.926403
     56          1           0       16.824347    6.117014    2.587092
     57          1           0       20.271365    1.061746    4.355181
     58          1           0       21.038604   -0.451365    4.651585
     59          1           0       19.591024   -0.042008    5.607753
     60          1           0       20.693243   -2.473728    5.550226
     61          1           0       19.784150   -3.954592    6.189813
     62          1           0       19.076713   -2.316770    6.189077
     63          1           0       16.742476   -5.521008    0.279758
     64          1           0       16.499996   -4.763068   -2.589861
     65          1           0       18.569404   -6.505111   -0.614259
     66          1           0       19.249085   -4.861513   -0.869901
     67          1           0       18.387569   -5.610283   -2.112523
     68          1           0       15.041803   -6.481819   -1.455013
     69          1           0       14.176755   -5.318641   -2.453288
     70          1           0       14.407548   -5.627478    0.444649
     71          1           0       12.917684   -5.324662   -0.512063
     72          1           0       14.087371   -3.990193   -0.104960
     73          1           0       12.724555   -0.199627   -4.761779
     74          1           0       13.589572   -1.772251   -4.628867
     75          1           0       14.434577   -0.361153   -5.390664
     76          1           0       15.653982    3.904697   -2.844090
     77          1           0       13.219584    7.388478   -2.098113
     78          1           0       14.043887    7.128393   -0.445051
     79          1           0       12.520532    6.375367   -0.953057
     80         12           0      -16.032885   -0.863530   -0.028798
     81          6           0      -18.018556    1.864916    1.046702
     82          6           0      -13.720574    1.541618   -1.071428
     83          6           0      -14.016894   -3.273394   -0.981620
     84          6           0      -18.777170   -2.968278    0.330179
     85          7           0      -15.916748    1.417505    0.037640
     86          6           0      -16.756968    2.300779    0.645084
     87          6           0      -16.352091    3.782479    0.561176
     88          6           0      -14.981178    3.589218   -0.264667
     89          6           0      -14.903320    2.101539   -0.440558
     90          6           0      -14.967066    4.296497   -1.677366
     91          6           0      -16.131149    4.436750    1.963937
     92          6           0      -17.018868    5.521771    2.560988
     93          1           0      -16.436951    6.632185    3.425772
     94          7           0      -14.089097   -0.901061   -0.840787
     95          6           0      -13.325256    0.194563   -1.268251
     96          6           0      -12.141674   -0.329893   -1.912179
     97          6           0      -12.121770   -1.713925   -1.758285
     98          6           0      -13.417786   -2.016284   -1.120114
     99          6           0      -11.102211    0.631176   -2.378899
    100          6           0      -11.118303   -2.769660   -2.221062
    101          8           0      -11.245099   -3.984894   -2.042751
    102          6           0       -9.846974   -2.281029   -2.795019
    103          7           0      -16.344901   -2.834206   -0.399467
    104          6           0      -15.313225   -3.711894   -0.586707
    105          6           0      -15.768713   -5.184657   -0.309385
    106          6           0      -17.254253   -5.032222   -0.009394
    107          6           0      -17.518141   -3.503244   -0.096083
    108          6           0      -15.400187   -6.180111   -1.457624
    109          6           0      -17.567112   -5.633299    1.369361
    110          6           0      -18.778521   -6.481047    1.512318
    111          7           0      -18.035788   -0.646756    0.461979
    112          6           0      -19.028914   -1.583481    0.598187
    113          6           0      -20.253071   -0.986645    1.041941
    114          6           0      -19.926843    0.422579    1.357080
    115          6           0      -18.532878    0.545077    0.975457
    116          6           0      -21.599784   -1.711225    1.208336
    117          6           0      -20.410395    1.732259    1.862194
    118          8           0      -21.485412    2.034225    2.407648
    119          6           0      -19.170959    2.701102    1.675979
    120          6           0      -19.780898    3.729975    0.776113
    121          8           0      -19.862332    3.722408   -0.446213
    122          8           0      -20.145986    4.782278    1.455991
    123          6           0      -20.922004    5.856118    0.789463
    124          1           0      -13.035478    2.381376   -1.202768
    125          1           0      -13.470331   -4.163022   -1.300421
    126          1           0      -19.606042   -3.656986    0.504470
    127          1           0      -17.095785    4.293171   -0.051836
    128          1           0      -14.043177    3.861514    0.220173
    129          1           0      -15.927102    4.613127   -2.084095
    130          1           0      -14.543277    3.624373   -2.422703
    131          1           0      -14.324621    5.174905   -1.613347
    132          1           0      -15.137624    4.884632    1.937958
    133          1           0      -16.149946    3.674629    2.741948
    134          1           0      -17.599866    4.929541    3.268109
    135          1           0      -17.546952    5.882110    1.678104
    136          1           0      -10.155772    0.491238   -1.858446
    137          1           0      -11.418567    1.661781   -2.216074
    138          1           0      -10.870420    0.533873   -3.439082
    139          1           0       -9.414964   -1.529772   -2.133776
    140          1           0       -9.996867   -1.697716   -3.703635
    141          1           0       -9.082453   -3.048061   -2.914399
    142          1           0      -15.173802   -5.432891    0.569417
    143          1           0      -17.858100   -5.614944   -0.704829
    144          1           0      -14.740038   -5.762591   -2.217733
    145          1           0      -16.262524   -6.559060   -2.004891
    146          1           0      -15.016463   -7.106854   -1.031257
    147          1           0      -17.670356   -4.745290    1.991661
    148          1           0      -16.789475   -6.283152    1.769939
    149          1           0      -19.342031   -6.016485    2.321137
    150          1           0      -18.494612   -7.523397    1.656911
    151          1           0      -19.471090   -6.438460    0.671425
    152          1           0      -22.157684   -1.639695    0.275397
    153          1           0      -22.132835   -1.251922    2.040662
    154          1           0      -21.473253   -2.777281    1.398318
    155          1           0      -18.954404    3.121706    2.657797
    156          1           0      -20.400655    6.329525   -0.041791
    157          1           0      -21.265624    6.641374    1.462527
    158          1           0      -21.882729    5.573870    0.359919
 ---------------------------------------------------------------------

 SCF Done:  E(RCAM-B3LYP) =  -4069.80846208     A.U. after   17 cycles

 Excitation energies and oscillator strengths:

 Excited State   1:      Singlet-A      1.6798 eV  738.08 nm  f=0.3929  <S**2>=0.000
     309 -> 316        0.17553
     311 -> 313        0.68558
     309 <- 316        0.10513
 This state for optimization and/or second-order correction.
 Total Energy, E(TD-HF/TD-DFT) =  -4069.74672954
 Copying the excited state density for this state as the 1-particle RhoCI density.

 Excited State   2:      Singlet-A      1.7577 eV  705.37 nm  f=0.3782  <S**2>=0.000
     310 -> 315        0.18338
     312 -> 314        0.68364
     310 <- 315        0.10469

 Excited State   3:      Singlet-A      2.1926 eV  565.47 nm  f=0.0965  <S**2>=0.000
     309 -> 313        0.64070
     311 -> 316       -0.27830

 Excited State   4:      Singlet-A      2.2204 eV  558.38 nm  f=0.1070  <S**2>=0.000
     310 -> 314        0.63622
     312 -> 315       -0.29388

 Excited State   5:      Singlet-A      3.0790 eV  402.68 nm  f=0.0000  <S**2>=0.000
     312 -> 313        0.70710

 The electronic state is 1-A.
 Alpha  occ. eigenvalues --  -46.88483 -46.87824 -19.26321 -19.25267 -19.19530
 Alpha  occ. eigenvalues --  -19.19056 -19.18839 -19.18831 -19.18202 -19.18149
 Alpha  occ. eigenvalues --  -14.42540 -14.42478 -14.41859 -14.41477 -14.39778
 Alpha  occ. eigenvalues --  -14.39430 -14.38943 -14.38615 -10.39115 -10.38608
 Alpha  occ. eigenvalues --  -10.35923 -10.35472 -10.35401 -10.34422 -10.31910
 Alpha  occ. eigenvalues --  -10.31718 -10.31593 -10.31434 -10.31361 -10.31067
 Alpha  occ. eigenvalues --  -10.30936 -10.30870 -10.30699 -10.30599 -10.30536
 Alpha  occ. eigenvalues --  -10.30481 -10.30233 -10.29949 -10.29659 -10.29380
 Alpha  occ. eigenvalues --  -10.29281 -10.28993 -10.28815 -10.28777 -10.28724
 Alpha  occ. eigenvalues --  -10.28690 -10.28582 -10.28568 -10.28393 -10.28358
 Alpha  occ. eigenvalues --  -10.28144 -10.27994 -10.27982 -10.27910 -10.27833
 Alpha  occ. eigenvalues --  -10.27821 -10.27754 -10.27667 -10.27612 -10.27527
 Alpha  occ. eigenvalues --  -10.27505 -10.27475 -10.27465 -10.27432 -10.27190
 Alpha  occ. eigenvalues --  -10.27015 -10.26942 -10.26734 -10.26477 -10.26457
 Alpha  occ. eigenvalues --  -10.26431 -10.26346 -10.26260 -10.26211 -10.26047
 Alpha  occ. eigenvalues --  -10.25876 -10.25814 -10.25779 -10.25646 -10.25603
 Alpha  occ. eigenvalues --  -10.25459 -10.25185 -10.24862 -10.24825 -10.24815
 Alpha  occ. eigenvalues --  -10.24715  -3.17080  -3.16567  -1.91981  -1.91537
 Alpha  occ. eigenvalues --   -1.91449  -1.91384  -1.91035  -1.90877  -1.17759
 Alpha  occ. eigenvalues --   -1.16670  -1.10032  -1.08660  -1.08348  -1.07240
 Alpha  occ. eigenvalues --   -1.06679  -1.06449  -1.05430  -1.04609  -1.03964
 Alpha  occ. eigenvalues --   -1.03788  -1.03262  -1.02735  -1.02439  -1.01317
 Alpha  occ. eigenvalues --   -0.92001  -0.91803  -0.89547  -0.89534  -0.89216
 Alpha  occ. eigenvalues --   -0.88999  -0.88748  -0.88314  -0.87900  -0.87701
 Alpha  occ. eigenvalues --   -0.87674  -0.87299  -0.86716  -0.85066  -0.85010
 Alpha  occ. eigenvalues --   -0.84297  -0.83964  -0.83440  -0.82992  -0.82836
 Alpha  occ. eigenvalues --   -0.82677  -0.82644  -0.81618  -0.80787  -0.80626
 Alpha  occ. eigenvalues --   -0.80473  -0.78824  -0.78727  -0.77457  -0.77246
 Alpha  occ. eigenvalues --   -0.76964  -0.76831  -0.76152  -0.75953  -0.75116
 Alpha  occ. eigenvalues --   -0.74925  -0.72803  -0.72185  -0.71773  -0.71700
 Alpha  occ. eigenvalues --   -0.69934  -0.69181  -0.68901  -0.68162  -0.67669
 Alpha  occ. eigenvalues --   -0.67570  -0.67247  -0.66883  -0.65830  -0.65315
 Alpha  occ. eigenvalues --   -0.65243  -0.64883  -0.64822  -0.64650  -0.64297
 Alpha  occ. eigenvalues --   -0.64160  -0.62363  -0.62330  -0.60899  -0.60468
 Alpha  occ. eigenvalues --   -0.59832  -0.59468  -0.59016  -0.58940  -0.58532
 Alpha  occ. eigenvalues --   -0.58455  -0.57808  -0.57616  -0.57598  -0.57337
 Alpha  occ. eigenvalues --   -0.56651  -0.56338  -0.56012  -0.55600  -0.55547
 Alpha  occ. eigenvalues --   -0.55369  -0.54930  -0.54554  -0.54268  -0.54140
 Alpha  occ. eigenvalues --   -0.53923  -0.53799  -0.53507  -0.53326  -0.53250
 Alpha  occ. eigenvalues --   -0.52945  -0.52870  -0.52782  -0.52599  -0.52523
 Alpha  occ. eigenvalues --   -0.52466  -0.52098  -0.51946  -0.51645  -0.51380
 Alpha  occ. eigenvalues --   -0.51226  -0.50596  -0.50534  -0.50402  -0.50058
 Alpha  occ. eigenvalues --   -0.49984  -0.49944  -0.49833  -0.49697  -0.49542
 Alpha  occ. eigenvalues --   -0.49365  -0.49243  -0.49125  -0.49014  -0.48671
 Alpha  occ. eigenvalues --   -0.48623  -0.48488  -0.48473  -0.48455  -0.48148
 Alpha  occ. eigenvalues --   -0.47988  -0.47764  -0.47722  -0.47391  -0.47324
 Alpha  occ. eigenvalues --   -0.46825  -0.46589  -0.46583  -0.46387  -0.46275
 Alpha  occ. eigenvalues --   -0.46192  -0.46047  -0.45854  -0.45795  -0.45537
 Alpha  occ. eigenvalues --   -0.45407  -0.45228  -0.45130  -0.44985  -0.44613
 Alpha  occ. eigenvalues --   -0.44608  -0.44533  -0.44315  -0.44211  -0.44172
 Alpha  occ. eigenvalues --   -0.44116  -0.44048  -0.43979  -0.43527  -0.43413
 Alpha  occ. eigenvalues --   -0.43151  -0.43056  -0.43018  -0.42770  -0.42731
 Alpha  occ. eigenvalues --   -0.42685  -0.42377  -0.42038  -0.41853  -0.41733
 Alpha  occ. eigenvalues --   -0.41602  -0.41562  -0.41367  -0.41195  -0.41169
 Alpha  occ. eigenvalues --   -0.40897  -0.40848  -0.40786  -0.40599  -0.40382
 Alpha  occ. eigenvalues --   -0.40262  -0.40030  -0.39803  -0.39471  -0.39468
 Alpha  occ. eigenvalues --   -0.38496  -0.38402  -0.37879  -0.37777  -0.37347
 Alpha  occ. eigenvalues --   -0.37292  -0.37198  -0.36746  -0.36586  -0.36344
 Alpha  occ. eigenvalues --   -0.36223  -0.35807  -0.34409  -0.34314  -0.33805
 Alpha  occ. eigenvalues --   -0.33403  -0.33215  -0.33049  -0.31872  -0.31732
 Alpha  occ. eigenvalues --   -0.31369  -0.31063  -0.30563  -0.30271  -0.30062
 Alpha  occ. eigenvalues --   -0.29476  -0.29351  -0.28674  -0.24108  -0.23873
 Alpha  occ. eigenvalues --   -0.21155  -0.21138
 Alpha virt. eigenvalues --   -0.08802  -0.08477  -0.01821  -0.01777  -0.00148
 Alpha virt. eigenvalues --   -0.00085   0.02119   0.02170   0.02737   0.03093
 Alpha virt. eigenvalues --    0.04690   0.05063   0.05281   0.05808   0.06147

 Mulliken charges:
               1
     1  Mg   0.838697
     2  C   -0.002960
     3  C   -0.094100
     4  C   -0.045854
     5  C   -0.063960
     6  N   -0.256796
     7  C   -0.052471
     8  C   -0.014035
     9  C   -0.087003
    10  C    0.046339
    11  C    0.104797
    12  C    0.053467
    13  C   -0.071807
    14  H    0.036067
    15  N   -0.433141
    16  C    0.168433
    17  C   -0.177116
    18  C   -0.003963
    19  C    0.148722
    20  C    0.110166
    21  C    0.012307
    22  O   -0.249577
    23  C    0.062470
    24  N   -0.341129
    25  C    0.041269
    26  C   -0.028185
    27  C   -0.023986
    28  C    0.074838
    29  C    0.076156
    30  C    0.035133
    31  C   -0.004506
    32  N   -0.310457
    33  C    0.080395
    34  C   -0.169771
    35  C    0.008308
    36  C    0.082954
    37  C    0.127331
    38  C    0.046076
    39  O   -0.188581
    40  C   -0.005315
    41  C    0.212839
    42  O   -0.257160
    43  O   -0.304766
    44  C    0.157734
    45  H   -0.017554
    46  H   -0.016792
    47  H   -0.041521
    48  H    0.000927
    49  H   -0.004001
    50  H    0.025470
    51  H    0.016475
    52  H    0.016701
    53  H    0.011229
    54  H    0.044067
    55  H    0.017884
    56  H    0.018003
    57  H    0.005900
    58  H    0.026883
    59  H    0.039610
    60  H    0.037373
    61  H    0.035714
    62  H    0.031520
    63  H    0.016580
    64  H    0.009471
    65  H    0.023257
    66  H    0.012566
    67  H    0.004771
    68  H    0.006404
    69  H    0.004693
    70  H    0.008821
    71  H    0.018100
    72  H    0.028960
    73  H    0.047443
    74  H    0.009096
    75  H    0.046011
    76  H    0.035157
    77  H    0.042885
    78  H    0.046449
    79  H    0.053589
    80  Mg   0.832120
    81  C    0.053313
    82  C   -0.082032
    83  C   -0.070454
    84  C   -0.080658
    85  N   -0.209682
    86  C   -0.071960
    87  C    0.011118
    88  C   -0.072322
    89  C   -0.024579
    90  C    0.046694
    91  C    0.028503
    92  C   -0.068359
    93  H    0.028013
    94  N   -0.362234
    95  C    0.170288
    96  C   -0.116409
    97  C   -0.037968
    98  C    0.148194
    99  C    0.098514
   100  C    0.036650
   101  O   -0.200905
   102  C    0.053929
   103  N   -0.348558
   104  C   -0.000952
   105  C   -0.010968
   106  C   -0.014541
   107  C    0.090604
   108  C    0.058963
   109  C    0.000445
   110  C    0.009610
   111  N   -0.370086
   112  C    0.134134
   113  C   -0.185307
   114  C   -0.007980
   115  C    0.094222
   116  C    0.119457
   117  C    0.044271
   118  O   -0.191288
   119  C   -0.048588
   120  C    0.168009
   121  O   -0.239948
   122  O   -0.279007
   123  C    0.189705
   124  H   -0.020083
   125  H   -0.008656
   126  H   -0.032306
   127  H    0.036436
   128  H    0.020324
   129  H    0.030078
   130  H    0.017522
   131  H    0.014762
   132  H    0.014847
   133  H    0.008450
   134  H    0.040716
   135  H    0.030037
   136  H    0.032591
   137  H    0.010846
   138  H    0.024978
   139  H    0.019597
   140  H    0.028286
   141  H    0.034567
   142  H    0.027685
   143  H    0.006880
   144  H    0.037081
   145  H    0.003299
   146  H    0.012689
   147  H    0.013022
   148  H    0.007169
   149  H    0.015169
   150  H    0.020857
   151  H    0.005585
   152  H    0.033317
   153  H    0.038337
   154  H    0.005068
   155  H    0.046488
   156  H    0.033304
   157  H    0.033791
   158  H    0.035303
 Sum of Mulliken charges =  -0.00000

 Dipole moment (field-independent basis, Debye):
    X=              8.8072    Y=              2.0697    Z=              1.5819  Tot=              9.1844
 Quadrupole moment (field-independent basis, Debye-Ang):
   XX=           -552.3410   YY=           -473.0886   ZZ=           -515.2981
   XY=             41.8589   XZ=             47.5680   YZ=             19.7939

 Normal termination of Gaussian 16 at Wed Sep  1 17:12:01 2021.
