 Gaussian 16, Revision A.03,
 Gaussian 16:  ES64L-G16RevA.03 25-Dec-2016

 ---------------------------------------------------
 #p cam-b3lyp/Def2SVP td=(nstates=5) density=(CIS=1)
 ---------------------------------------------------

 --------------------------------
 TDDFT excited states in gaussian
 --------------------------------
 Symbolic Z-matrix:
 Charge =  0 Multiplicity = 1

                         Standard orientation:
 ---------------------------------------------------------------------
 Center     Atomic      Atomic             Coordinates (Angstroms)
 Number     Number       Type             X           Y           Z
 ---------------------------------------------------------------------
      1         12           0       -0.531544   -0.033214   -0.442149
      2          6           0        2.771556   -0.060789    0.368144
      3          6           0       -0.532910   -3.562881   -0.218689
      4          6           0       -3.857646    0.079925   -0.162094
      5          6           0       -0.558791    3.563089   -0.112774
      6          7           0        0.956606   -1.559221   -0.008236
      7          6           0        2.202937   -1.416292    0.299907
      8          6           0        3.006139   -2.765245    0.281822
      9          6           0        1.962562   -3.843226   -0.200957
     10          6           0        0.666783   -2.961097   -0.192711
     11          6           0        2.332539   -4.633243   -1.457072
     12          6           0        3.733838   -3.073122    1.721466
     13          6           0        3.176454   -2.419189    2.975442
     14          1           0        3.502462   -2.984727    4.357743
     15          7           0       -1.983473   -1.545562   -0.211896
     16          6           0       -1.810450   -2.908812   -0.210695
     17          6           0       -3.045828   -3.539904   -0.034758
     18          6           0       -4.060965   -2.508978    0.029568
     19          6           0       -3.314263   -1.227858   -0.077275
     20          6           0       -3.168328   -5.050105   -0.122488
     21          6           0       -5.565941   -2.786535    0.196385
     22          8           0       -5.932032   -3.980131    0.284156
     23          6           0       -6.597987   -1.792666    0.263854
     24          7           0       -2.042765    1.637344   -0.007573
     25          6           0       -3.305185    1.351014   -0.154415
     26          6           0       -4.213714    2.612425   -0.201234
     27          6           0       -3.158792    3.739666   -0.239241
     28          6           0       -1.771177    2.987143   -0.132099
     29          6           0       -5.122547    2.675977   -1.375411
     30          6           0       -3.384099    4.840593    0.901223
     31          6           0       -3.843585    6.273585    0.406744
     32          7           0        0.790081    1.509349   -0.090645
     33          6           0        0.687841    2.904090   -0.015538
     34          6           0        2.054601    3.471138    0.205377
     35          6           0        2.850818    2.333050    0.396942
     36          6           0        2.048775    1.163286    0.244397
     37          6           0        2.470880    4.858515    0.282924
     38          6           0        4.154668    1.981893    0.729994
     39          8           0        5.189529    2.629664    0.945615
     40          6           0        4.195838    0.430064    0.637137
     41          6           0        5.289920    0.038240   -0.384304
     42          8           0        6.228350   -0.720970   -0.212561
     43          8           0        5.109334    0.655979   -1.602945
     44          6           0        6.104477    0.397655   -2.650421
     45          1           0       -0.441692   -4.642138   -0.080763
     46          1           0       -4.942406    0.180491   -0.234412
     47          1           0       -0.553955    4.652482   -0.186491
     48          1           0        3.704056   -2.690064   -0.552487
     49          1           0        1.752885   -4.586051    0.569311
     50          1           0        1.636563   -4.391278   -2.260061
     51          1           0        2.270216   -5.710673   -1.299898
     52          1           0        3.354952   -4.505069   -1.812637
     53          1           0        4.764927   -2.798306    1.497878
     54          1           0        3.707138   -4.114603    2.042663
     55          1           0        2.099838   -2.461307    2.812516
     56          1           0        3.462503   -1.370023    2.898953
     57          1           0       -3.848532   -5.498415   -0.847137
     58          1           0       -3.367446   -5.440272    0.875896
     59          1           0       -2.192769   -5.468760   -0.368948
     60          1           0       -6.737444   -1.143852   -0.600656
     61          1           0       -6.354942   -1.045202    1.018384
     62          1           0       -7.560287   -2.182541    0.594168
     63          1           0       -4.911820    2.784286    0.617937
     64          1           0       -3.081771    4.224540   -1.212488
     65          1           0       -6.168075    2.453925   -1.162288
     66          1           0       -4.906588    1.865684   -2.072669
     67          1           0       -5.055405    3.654669   -1.850266
     68          1           0       -2.422130    5.028599    1.379987
     69          1           0       -4.165952    4.593214    1.618009
     70          1           0       -4.666721    6.627039    1.026456
     71          1           0       -4.283542    6.159016   -0.584002
     72          1           0       -2.979952    6.916684    0.577053
     73          1           0        1.779829    5.383457   -0.377024
     74          1           0        3.489130    4.976036   -0.089558
     75          1           0        2.467003    5.118098    1.341142
     76          1           0        4.671625   -0.039204    1.497941
     77          1           0        6.090676    1.234472   -3.348996
     78          1           0        5.962579   -0.471680   -3.292262
     79          1           0        7.108487    0.211887   -2.267772
 ---------------------------------------------------------------------

 SCF Done:  E(RCAM-B3LYP) =  -2034.87368772     A.U. after   19 cycles

 Excitation energies and oscillator strengths:

 Excited State   1:      Singlet-A      1.7059 eV  726.78 nm  f=0.0000  <S**2>=0.000
     155 ->158         0.16094
     156 ->157         0.68876
     155 <-158         0.10275
 This state for optimization and/or second-order correction.
 Total Energy, E(TD-HF/TD-DFT) =  -2034.81099569
 Copying the excited state density for this state as the 1-particle RhoCI density.

 Excited State   2:      Singlet-A      2.2509 eV  550.83 nm  f=0.0000  <S**2>=0.000
     155 ->157         0.64220
     156 ->158        -0.27234

 Excited State   3:      Singlet-A      3.1643 eV  391.82 nm  f=0.0000  <S**2>=0.000
     154 ->157         0.68670

 Excited State   4:      Singlet-A      3.2704 eV  379.11 nm  f=0.0000  <S**2>=0.000
     150 ->157         0.31604
     150 ->159        -0.19508
     151 ->157         0.48313
     151 ->159        -0.25031
     152 ->157        -0.12338
     156 ->158        -0.11769

 Excited State   5:      Singlet-A      3.4271 eV  361.77 nm  f=0.0000  <S**2>=0.000
     152 ->157        -0.40744
     153 ->157         0.42828
     153 ->158        -0.10001
     153 ->159         0.14527
     153 ->161         0.22832
     156 ->158        -0.16127

 The electronic state is 1-A.
 Alpha  occ. eigenvalues --  -46.90336 -19.24918 -19.20134 -19.18991 -19.17443
 Alpha  occ. eigenvalues --  -14.43221 -14.41947 -14.40561 -14.39844 -10.39743
 Alpha  occ. eigenvalues --  -10.34738 -10.34281 -10.33025 -10.31794 -10.31528
 Alpha  occ. eigenvalues --  -10.31291 -10.30775 -10.30762 -10.30669 -10.30400
 Alpha  occ. eigenvalues --  -10.29657 -10.29324 -10.29288 -10.29049 -10.28828
 Alpha  occ. eigenvalues --  -10.28492 -10.28444 -10.28317 -10.27745 -10.27584
 Alpha  occ. eigenvalues --  -10.27197 -10.27115 -10.27090 -10.27062 -10.26928
 Alpha  occ. eigenvalues --  -10.26857 -10.26729 -10.26426 -10.26177 -10.26029
 Alpha  occ. eigenvalues --  -10.25672 -10.25634 -10.24932  -3.18743  -1.93622
 Alpha  occ. eigenvalues --   -1.93232  -1.93010  -1.16162  -1.09077  -1.07638
 Alpha  occ. eigenvalues --   -1.07374  -1.05057  -1.04533  -1.03664  -1.02272
 Alpha  occ. eigenvalues --   -0.93022  -0.89693  -0.89453  -0.89011  -0.88346
 Alpha  occ. eigenvalues --   -0.87823  -0.85319  -0.84670  -0.84216  -0.82974
 Alpha  occ. eigenvalues --   -0.82533  -0.81484  -0.80293  -0.78504  -0.77418
 Alpha  occ. eigenvalues --   -0.76990  -0.76379  -0.75304  -0.73423  -0.71977
 Alpha  occ. eigenvalues --   -0.69589  -0.68945  -0.68432  -0.66863  -0.66058
 Alpha  occ. eigenvalues --   -0.65678  -0.64893  -0.64567  -0.63359  -0.60924
 Alpha  occ. eigenvalues --   -0.59980  -0.58969  -0.58546  -0.58047  -0.57276
 Alpha  occ. eigenvalues --   -0.56353  -0.55639  -0.55625  -0.54837  -0.54568
 Alpha  occ. eigenvalues --   -0.53889  -0.53529  -0.53275  -0.52900  -0.52619
 Alpha  occ. eigenvalues --   -0.52252  -0.51511  -0.51272  -0.50958  -0.50708
 Alpha  occ. eigenvalues --   -0.50287  -0.49923  -0.49588  -0.49246  -0.49018
 Alpha  occ. eigenvalues --   -0.48842  -0.48576  -0.48315  -0.47677  -0.47429
 Alpha  occ. eigenvalues --   -0.47205  -0.46858  -0.46774  -0.46207  -0.45905
 Alpha  occ. eigenvalues --   -0.45744  -0.45270  -0.45031  -0.44887  -0.44619
 Alpha  occ. eigenvalues --   -0.44474  -0.43843  -0.43610  -0.42713  -0.42687
 Alpha  occ. eigenvalues --   -0.42272  -0.42092  -0.42024  -0.41506  -0.40972
 Alpha  occ. eigenvalues --   -0.40871  -0.40735  -0.40004  -0.39854  -0.39088
 Alpha  occ. eigenvalues --   -0.38738  -0.38055  -0.37863  -0.36879  -0.36543
 Alpha  occ. eigenvalues --   -0.36413  -0.34829  -0.34315  -0.34058  -0.31626
 Alpha  occ. eigenvalues --   -0.31096  -0.30936  -0.30191  -0.29037  -0.24956
 Alpha  occ. eigenvalues --   -0.21683
 Alpha virt. eigenvalues --   -0.09541  -0.01912  -0.00044   0.00610   0.02197
 Alpha virt. eigenvalues --    0.04994   0.05245   0.05420   0.06918   0.07930
 Alpha virt. eigenvalues --    0.08179   0.08566   0.08950   0.09508   0.10106

 Mulliken charges:
               1
     1  Mg   0.818505
     2  C   -0.034638
     3  C   -0.089699
     4  C   -0.071715
     5  C   -0.126027
     6  N   -0.336629
     7  C    0.003323
     8  C   -0.001908
     9  C   -0.055544
    10  C    0.080119
    11  C    0.075270
    12  C    0.011893
    13  C   -0.045227
    14  H    0.044242
    15  N   -0.379337
    16  C    0.201368
    17  C   -0.138575
    18  C   -0.035810
    19  C    0.230914
    20  C    0.140737
    21  C    0.014256
    22  O   -0.239530
    23  C    0.063376
    24  N   -0.286256
    25  C    0.050439
    26  C   -0.027903
    27  C    0.003478
    28  C    0.055374
    29  C    0.049360
    30  C    0.002576
    31  C   -0.010008
    32  N   -0.374863
    33  C    0.140104
    34  C   -0.209402
    35  C    0.021819
    36  C    0.136680
    37  C    0.127097
    38  C    0.029639
    39  O   -0.200810
    40  C   -0.042444
    41  C    0.173396
    42  O   -0.212786
    43  O   -0.339686
    44  C    0.178487
    45  H   -0.011642
    46  H   -0.063849
    47  H   -0.026756
    48  H    0.026900
    49  H    0.015423
    50  H    0.018033
    51  H    0.012729
    52  H    0.020394
    53  H    0.032992
    54  H    0.016843
    55  H    0.030299
    56  H    0.015814
    57  H    0.037130
    58  H    0.023231
    59  H   -0.021755
    60  H    0.041941
    61  H    0.019597
    62  H    0.027586
    63  H    0.022551
    64  H    0.010261
    65  H    0.006529
    66  H    0.010132
    67  H    0.019103
    68  H    0.012068
    69  H    0.017404
    70  H    0.010707
    71  H    0.016289
    72  H    0.026514
    73  H    0.021993
    74  H    0.041826
    75  H    0.048083
    76  H    0.029667
    77  H    0.033947
    78  H    0.019635
    79  H    0.044729
 Sum of Mulliken charges =  -0.00000

 Dipole moment (field-independent basis, Debye):
    X=             -5.4663    Y=              0.4152    Z=             -3.7158  Tot=              6.6227
 Quadrupole moment (field-independent basis, Debye-Ang):
   XX=           -291.9948   YY=           -248.8782   ZZ=           -251.2508
   XY=            -44.4909   XZ=            -13.0937   YZ=             -0.5109

 Normal termination of Gaussian 16 at Fri Oct  8 18:22:20 2021.
