 Gaussian 16, Revision A.03,
 Gaussian 16:  ES64L-G16RevA.03 25-Dec-2016

 -----------------------------------
 #p cam-b3lyp/Def2SVP td=(nstates=5)
 -----------------------------------

 --------------------------------
 TDDFT excited states in gaussian
 --------------------------------
 Symbolic Z-matrix:
 Charge =  0 Multiplicity = 1

                         Standard orientation:
 ---------------------------------------------------------------------
 Center     Atomic      Atomic             Coordinates (Angstroms)
 Number     Number       Type             X           Y           Z
 ---------------------------------------------------------------------
      1         12           0        9.897475    0.710314   -0.174089
      2          6           0        7.899321   -1.668931   -1.890199
      3          6           0        7.894386    3.190667   -1.589224
      4          6           0       10.936412    2.671620    2.256966
      5          6           0       11.573800   -2.154391    1.371021
      6          7           0        7.892552    0.704157   -1.425513
      7          6           0        7.488047   -0.344531   -2.184290
      8          6           0        6.495073    0.141648   -3.224718
      9          6           0        6.926515    1.581248   -3.505132
     10          6           0        7.574450    1.883803   -2.058880
     11          6           0        7.968680    1.832061   -4.596610
     12          6           0        5.012585   -0.079404   -2.691610
     13          6           0        4.124237   -0.656454   -3.722522
     14          1           0        2.694028   -0.092415   -3.828967
     15          7           0        9.452811    2.703801    0.346167
     16          6           0        8.654710    3.583535   -0.426552
     17          6           0        8.719999    4.868129    0.223622
     18          6           0        9.651981    4.821954    1.294185
     19          6           0       10.058026    3.374113    1.382242
     20          6           0        7.904061    6.046498   -0.298515
     21          6           0        9.998909    5.936871    2.199811
     22          8           0        9.460021    7.023705    2.030931
     23          6           0       10.891545    5.881064    3.395902
     24          7           0       11.057625    0.230533    1.677324
     25          6           0       11.477507    1.322625    2.346503
     26          6           0       12.536076    0.942778    3.397689
     27          6           0       12.884970   -0.608209    3.033147
     28          6           0       11.823503   -0.883323    1.936734
     29          6           0       13.768347    1.950845    3.491920
     30          6           0       12.856550   -1.604398    4.234350
     31          6           0       11.563760   -2.466137    4.436718
     32          7           0        9.806344   -1.384854   -0.216738
     33          6           0       10.596234   -2.387187    0.415135
     34          6           0       10.272428   -3.735380   -0.226192
     35          6           0        9.208930   -3.442318   -1.064833
     36          6           0        8.986366   -2.019090   -1.032810
     37          6           0       10.850392   -5.149850   -0.027555
     38          6           0        8.302043   -4.002675   -2.015704
     39          8           0        8.218502   -5.149049   -2.459482
     40          6           0        7.392581   -2.891892   -2.403367
     41          6           0        6.064518   -3.273207   -1.710227
     42          8           0        5.774184   -3.125462   -0.524964
     43          8           0        5.248059   -3.906419   -2.688038
     44          6           0        4.022337   -4.459281   -2.275377
     45          1           0        7.369011    4.019993   -2.067678
     46          1           0       11.356570    3.439016    2.910110
     47          1           0       12.119641   -3.054087    1.660300
     48          1           0        6.597804   -0.360328   -4.186666
     49          1           0        6.187885    2.338908   -3.764288
     50          1           0        8.072331    1.009246   -5.303366
     51          1           0        8.892845    2.237702   -4.184210
     52          1           0        7.511452    2.641722   -5.166559
     53          1           0        4.594123    0.889588   -2.419285
     54          1           0        4.953609   -0.598375   -1.734842
     55          1           0        4.130867   -1.711121   -3.449663
     56          1           0        4.595849   -0.517572   -4.695235
     57          1           0        8.509475    6.778942   -0.832107
     58          1           0        7.343955    6.476791    0.530396
     59          1           0        7.157034    5.701423   -1.013486
     60          1           0       11.912988    5.720605    3.050054
     61          1           0       10.645314    5.121418    4.138809
     62          1           0       11.017242    6.863949    3.848410
     63          1           0       11.964840    0.940214    4.325768
     64          1           0       13.842042   -0.633524    2.513210
     65          1           0       13.493797    2.941103    3.128712
     66          1           0       14.734942    1.646240    3.088908
     67          1           0       14.035852    1.892175    4.548117
     68          1           0       13.076311   -1.116655    5.183694
     69          1           0       13.664964   -2.288992    3.978785
     70          1           0       11.637965   -2.515285    5.523331
     71          1           0       11.550967   -3.477233    4.029163
     72          1           0       10.712801   -1.859196    4.126858
     73          1           0       11.239738   -5.548010   -0.963911
     74          1           0        9.896732   -5.654337    0.124817
     75          1           0       11.473515   -5.127075    0.866215
     76          1           0        7.244013   -2.904299   -3.483184
     77          1           0        3.450206   -4.940788   -3.069397
     78          1           0        3.417674   -3.645943   -1.876162
     79          1           0        4.288823   -5.193312   -1.514399
     80         12           0       -9.660422    0.327939    0.028129
     81          6           0       -6.748172   -1.822880    0.062087
     82          6           0       -7.718064    2.583779   -1.227186
     83          6           0      -12.351393    2.205457    0.338199
     84          6           0      -11.421098   -2.032770    2.158087
     85          7           0       -7.460996    0.298485   -0.634776
     86          6           0       -6.448757   -0.633898   -0.540520
     87          6           0       -5.177115   -0.070643   -1.064488
     88          6           0       -5.408049    1.461316   -1.006207
     89          6           0       -6.951742    1.479719   -0.907886
     90          6           0       -4.770825    2.156190    0.217063
     91          6           0       -4.983506   -0.503174   -2.549871
     92          6           0       -3.537043   -0.982554   -2.959195
     93          1           0       -3.333459   -1.864528   -4.254842
     94          7           0       -9.979288    2.230643   -0.469904
     95          6           0       -9.110728    2.992258   -1.080014
     96          6           0       -9.763560    4.243431   -1.416254
     97          6           0      -11.117619    4.038095   -1.061222
     98          6           0      -11.177098    2.792058   -0.346303
     99          6           0       -9.010491    5.349623   -2.177327
    100          6           0      -12.259995    4.980145   -1.321078
    101          8           0      -13.360559    4.708749   -0.943629
    102          6           0      -12.022446    6.205083   -2.142649
    103          7           0      -11.548423    0.176894    1.387304
    104          6           0      -12.501009    1.066636    1.116062
    105          6           0      -13.818507    0.656275    1.658190
    106          6           0      -13.423451   -0.646743    2.422703
    107          6           0      -12.004347   -0.899372    1.986762
    108          6           0      -14.637366    1.714325    2.481747
    109          6           0      -14.424225   -1.823444    2.097551
    110          6           0      -15.466331   -2.264939    3.162697
    111          7           0       -9.278777   -1.461949    0.921350
    112          6           0      -10.061603   -2.359559    1.681303
    113          6           0       -9.276240   -3.579120    1.962250
    114          6           0       -8.047163   -3.391031    1.344327
    115          6           0       -8.044098   -2.128340    0.776260
    116          6           0       -9.718665   -4.729207    2.899077
    117          6           0       -6.732945   -4.073833    1.117211
    118          8           0       -6.294548   -5.163224    1.402165
    119          6           0       -5.761760   -3.000077    0.412522
    120          6           0       -5.026273   -3.575371   -0.653079
    121          8           0       -5.432462   -3.546910   -1.823226
    122          8           0       -3.837510   -4.217143   -0.319958
    123          6           0       -2.924904   -4.665272   -1.416222
    124          1           0       -7.187952    3.416183   -1.693335
    125          1           0      -13.265205    2.801213    0.385985
    126          1           0      -11.939526   -2.756188    2.789240
    127          1           0       -4.361878   -0.290165   -0.374571
    128          1           0       -5.053081    2.039505   -1.859094
    129          1           0       -4.045561    2.904568   -0.103729
    130          1           0       -4.274830    1.379693    0.798681
    131          1           0       -5.483097    2.627302    0.895010
    132          1           0       -5.226693    0.387338   -3.129773
    133          1           0       -5.744554   -1.259936   -2.739095
    134          1           0       -3.105467   -1.494105   -2.099298
    135          1           0       -3.015050   -0.035228   -3.099250
    136          1           0       -9.468942    5.463077   -3.160555
    137          1           0       -7.932493    5.219347   -2.266051
    138          1           0       -9.215255    6.320291   -1.726598
    139          1           0      -11.708923    5.970709   -3.159598
    140          1           0      -11.200379    6.851291   -1.835077
    141          1           0      -12.964775    6.743482   -2.246899
    142          1           0      -14.446450    0.372933    0.813487
    143          1           0      -13.347838   -0.429049    3.488284
    144          1           0      -14.088906    2.652249    2.401057
    145          1           0      -14.900400    1.455924    3.508094
    146          1           0      -15.617679    1.824220    2.017748
    147          1           0      -13.849903   -2.726767    1.890169
    148          1           0      -14.790131   -1.601312    1.095126
    149          1           0      -16.444723   -2.381324    2.696823
    150          1           0      -15.499061   -1.528283    3.965603
    151          1           0      -15.199516   -3.235710    3.582167
    152          1           0      -10.802387   -4.816199    2.826320
    153          1           0       -9.523309   -4.441713    3.932433
    154          1           0       -9.238274   -5.674112    2.644092
    155          1           0       -5.068122   -2.632432    1.168128
    156          1           0       -2.557153   -3.815263   -1.992711
    157          1           0       -3.335625   -5.518171   -1.955233
    158          1           0       -1.989822   -4.956059   -0.937677
 ---------------------------------------------------------------------

 SCF Done:  E(RCAM-B3LYP) =  -4069.73416394     A.U. after   19 cycles

 Excitation energies and oscillator strengths:

 Excited State   1:      Singlet-A      1.6839 eV  736.28 nm  f=0.2952  <S**2>=0.000
     309 -> 315       -0.19653
     312 -> 314        0.67807
     309 <- 315       -0.11178
 This state for optimization and/or second-order correction.
 Total Energy, E(TD-HF/TD-DFT) =  -4069.67228116
 Copying the excited state density for this state as the 1-particle RhoCI density.

 Excited State   2:      Singlet-A      1.7382 eV  713.28 nm  f=0.4237  <S**2>=0.000
     310 -> 317        0.16336
     311 -> 313        0.68669
     310 <- 317        0.10244

 Excited State   3:      Singlet-A      2.1715 eV  570.95 nm  f=0.2436  <S**2>=0.000
     310 -> 313        0.67127
     311 -> 317       -0.20077

 Excited State   4:      Singlet-A      2.1921 eV  565.60 nm  f=0.0496  <S**2>=0.000
     309 -> 314        0.61137
     312 -> 315        0.33825

 Excited State   5:      Singlet-A      2.8183 eV  439.93 nm  f=0.0000  <S**2>=0.000
     312 -> 313        0.70704

 The electronic state is 1-A.
 Alpha  occ. eigenvalues --  -46.91406 -46.89380 -19.24847 -19.23918 -19.21529
 Alpha  occ. eigenvalues --  -19.19575 -19.19206 -19.19012 -19.18475 -19.17679
 Alpha  occ. eigenvalues --  -14.42508 -14.42055 -14.41699 -14.40347 -14.40112
 Alpha  occ. eigenvalues --  -14.39868 -14.39761 -14.39713 -10.40718 -10.38462
 Alpha  occ. eigenvalues --  -10.35891 -10.35079 -10.34662 -10.34231 -10.31926
 Alpha  occ. eigenvalues --  -10.31588 -10.31530 -10.31516 -10.31425 -10.31213
 Alpha  occ. eigenvalues --  -10.31080 -10.31079 -10.30958 -10.30932 -10.30536
 Alpha  occ. eigenvalues --  -10.30186 -10.29976 -10.29965 -10.29779 -10.29575
 Alpha  occ. eigenvalues --  -10.29493 -10.29311 -10.29258 -10.28902 -10.28865
 Alpha  occ. eigenvalues --  -10.28649 -10.28604 -10.28547 -10.28515 -10.28392
 Alpha  occ. eigenvalues --  -10.28253 -10.28178 -10.28115 -10.28052 -10.28021
 Alpha  occ. eigenvalues --  -10.27945 -10.27840 -10.27766 -10.27706 -10.27669
 Alpha  occ. eigenvalues --  -10.27464 -10.27240 -10.27203 -10.27199 -10.27176
 Alpha  occ. eigenvalues --  -10.27102 -10.27082 -10.26859 -10.26751 -10.26487
 Alpha  occ. eigenvalues --  -10.26470 -10.26406 -10.26307 -10.26222 -10.26197
 Alpha  occ. eigenvalues --  -10.25996 -10.25872 -10.25867 -10.25733 -10.25667
 Alpha  occ. eigenvalues --  -10.25657 -10.25487 -10.25401 -10.25383 -10.25079
 Alpha  occ. eigenvalues --  -10.25040  -3.19606  -3.17904  -1.94447  -1.94114
 Alpha  occ. eigenvalues --   -1.93862  -1.92791  -1.92366  -1.92203  -1.15953
 Alpha  occ. eigenvalues --   -1.14131  -1.12116  -1.10783  -1.09700  -1.09463
 Alpha  occ. eigenvalues --   -1.08782  -1.06350  -1.05602  -1.04896  -1.04821
 Alpha  occ. eigenvalues --   -1.04309  -1.03556  -1.02943  -1.01381  -1.00924
 Alpha  occ. eigenvalues --   -0.94488  -0.91194  -0.89315  -0.89191  -0.88815
 Alpha  occ. eigenvalues --   -0.88811  -0.87938  -0.87890  -0.87741  -0.87574
 Alpha  occ. eigenvalues --   -0.87368  -0.86954  -0.85689  -0.85133  -0.84902
 Alpha  occ. eigenvalues --   -0.84281  -0.83759  -0.82999  -0.82815  -0.82085
 Alpha  occ. eigenvalues --   -0.81963  -0.81746  -0.80967  -0.80899  -0.80381
 Alpha  occ. eigenvalues --   -0.80347  -0.78711  -0.78135  -0.77379  -0.77075
 Alpha  occ. eigenvalues --   -0.77002  -0.76642  -0.76159  -0.76123  -0.75347
 Alpha  occ. eigenvalues --   -0.75305  -0.72848  -0.72713  -0.71948  -0.71040
 Alpha  occ. eigenvalues --   -0.69999  -0.69157  -0.68824  -0.68729  -0.67877
 Alpha  occ. eigenvalues --   -0.67465  -0.67281  -0.66991  -0.66045  -0.65568
 Alpha  occ. eigenvalues --   -0.65467  -0.65062  -0.64915  -0.64821  -0.64652
 Alpha  occ. eigenvalues --   -0.64161  -0.62332  -0.61381  -0.60989  -0.60049
 Alpha  occ. eigenvalues --   -0.60038  -0.59873  -0.59384  -0.59020  -0.59000
 Alpha  occ. eigenvalues --   -0.58365  -0.57996  -0.57508  -0.57139  -0.57118
 Alpha  occ. eigenvalues --   -0.56494  -0.56317  -0.56060  -0.55747  -0.55687
 Alpha  occ. eigenvalues --   -0.55444  -0.55054  -0.54676  -0.53955  -0.53808
 Alpha  occ. eigenvalues --   -0.53798  -0.53477  -0.53332  -0.53152  -0.52979
 Alpha  occ. eigenvalues --   -0.52762  -0.52583  -0.52374  -0.52298  -0.52064
 Alpha  occ. eigenvalues --   -0.51925  -0.51792  -0.51776  -0.51511  -0.51418
 Alpha  occ. eigenvalues --   -0.51261  -0.50664  -0.50494  -0.50268  -0.50183
 Alpha  occ. eigenvalues --   -0.50064  -0.50031  -0.49794  -0.49642  -0.49510
 Alpha  occ. eigenvalues --   -0.49502  -0.49339  -0.49221  -0.49056  -0.48764
 Alpha  occ. eigenvalues --   -0.48679  -0.48579  -0.48348  -0.48242  -0.47885
 Alpha  occ. eigenvalues --   -0.47871  -0.47716  -0.47572  -0.47501  -0.47386
 Alpha  occ. eigenvalues --   -0.47259  -0.46956  -0.46373  -0.46190  -0.46171
 Alpha  occ. eigenvalues --   -0.46048  -0.46030  -0.45967  -0.45722  -0.45555
 Alpha  occ. eigenvalues --   -0.45469  -0.45418  -0.45341  -0.45265  -0.44862
 Alpha  occ. eigenvalues --   -0.44720  -0.44676  -0.44540  -0.44490  -0.44407
 Alpha  occ. eigenvalues --   -0.44258  -0.43960  -0.43902  -0.43575  -0.43415
 Alpha  occ. eigenvalues --   -0.43378  -0.43270  -0.43098  -0.42927  -0.42689
 Alpha  occ. eigenvalues --   -0.42611  -0.42439  -0.42158  -0.42147  -0.41813
 Alpha  occ. eigenvalues --   -0.41722  -0.41401  -0.41235  -0.41142  -0.41109
 Alpha  occ. eigenvalues --   -0.40982  -0.40581  -0.40504  -0.40310  -0.40199
 Alpha  occ. eigenvalues --   -0.40139  -0.39834  -0.39798  -0.39247  -0.38704
 Alpha  occ. eigenvalues --   -0.38354  -0.38265  -0.38053  -0.37755  -0.37608
 Alpha  occ. eigenvalues --   -0.36985  -0.36642  -0.36458  -0.36447  -0.36003
 Alpha  occ. eigenvalues --   -0.35904  -0.35674  -0.35338  -0.34324  -0.33534
 Alpha  occ. eigenvalues --   -0.33450  -0.32997  -0.32546  -0.31788  -0.31564
 Alpha  occ. eigenvalues --   -0.31466  -0.31037  -0.30909  -0.30677  -0.30669
 Alpha  occ. eigenvalues --   -0.30319  -0.29616  -0.29584  -0.24155  -0.23472
 Alpha  occ. eigenvalues --   -0.21560  -0.21141
 Alpha virt. eigenvalues --   -0.09008  -0.08633  -0.02717  -0.00704  -0.00290
 Alpha virt. eigenvalues --    0.00031   0.00999   0.02066   0.02377   0.02723
 Alpha virt. eigenvalues --    0.04581   0.04593   0.05025   0.05200   0.05730

 Mulliken charges:
               1
     1  Mg   0.808640
     2  C    0.026473
     3  C   -0.060912
     4  C   -0.021766
     5  C   -0.054567
     6  N   -0.238533
     7  C   -0.066786
     8  C   -0.007268
     9  C   -0.085914
    10  C    0.025047
    11  C    0.085516
    12  C    0.072880
    13  C   -0.063248
    14  H    0.016585
    15  N   -0.411411
    16  C    0.127313
    17  C   -0.148116
    18  C    0.024252
    19  C    0.083940
    20  C    0.141881
    21  C   -0.053962
    22  O   -0.217075
    23  C    0.078785
    24  N   -0.260311
    25  C    0.038670
    26  C   -0.046175
    27  C    0.025399
    28  C   -0.014163
    29  C    0.052402
    30  C    0.002614
    31  C    0.007374
    32  N   -0.333277
    33  C    0.096783
    34  C   -0.206276
    35  C    0.019588
    36  C    0.126001
    37  C    0.134685
    38  C    0.006046
    39  O   -0.179710
    40  C    0.016353
    41  C    0.215170
    42  O   -0.202464
    43  O   -0.345779
    44  C    0.186976
    45  H   -0.021081
    46  H   -0.066315
    47  H   -0.025777
    48  H   -0.009445
    49  H    0.001976
    50  H    0.020208
    51  H    0.026103
    52  H    0.005630
    53  H    0.007007
    54  H    0.031830
    55  H    0.025140
    56  H    0.024816
    57  H    0.034574
    58  H    0.037567
    59  H   -0.012758
    60  H    0.019375
    61  H    0.050564
    62  H    0.019727
    63  H    0.023934
    64  H    0.010489
    65  H    0.032419
    66  H    0.011927
    67  H    0.010215
    68  H    0.015789
    69  H    0.005543
    70  H    0.012541
    71  H    0.025635
    72  H    0.039931
    73  H    0.049748
    74  H    0.045985
    75  H    0.017252
    76  H    0.029978
    77  H    0.038593
    78  H    0.023417
    79  H    0.035806
    80  Mg   0.836450
    81  C   -0.017276
    82  C   -0.043142
    83  C   -0.045139
    84  C   -0.101743
    85  N   -0.239099
    86  C   -0.040103
    87  C   -0.024411
    88  C   -0.084536
    89  C    0.050308
    90  C    0.081783
    91  C    0.071437
    92  C   -0.043261
    93  H    0.033560
    94  N   -0.366915
    95  C    0.065540
    96  C   -0.128840
    97  C   -0.030030
    98  C    0.104931
    99  C    0.110688
   100  C    0.002095
   101  O   -0.168142
   102  C    0.040369
   103  N   -0.199807
   104  C   -0.011520
   105  C   -0.045219
   106  C    0.011787
   107  C    0.027200
   108  C    0.070666
   109  C    0.014232
   110  C    0.026947
   111  N   -0.397703
   112  C    0.109408
   113  C   -0.209704
   114  C   -0.008073
   115  C    0.122843
   116  C    0.119340
   117  C    0.086628
   118  O   -0.137942
   119  C   -0.010472
   120  C    0.199185
   121  O   -0.246615
   122  O   -0.357084
   123  C    0.196074
   124  H   -0.050873
   125  H   -0.004390
   126  H   -0.024514
   127  H   -0.002600
   128  H    0.009385
   129  H    0.019648
   130  H    0.006962
   131  H    0.023300
   132  H    0.000923
   133  H    0.050022
   134  H    0.026596
   135  H    0.014058
   136  H    0.026135
   137  H    0.029712
   138  H    0.019871
   139  H    0.028285
   140  H    0.022357
   141  H    0.029291
   142  H    0.020176
   143  H    0.004821
   144  H    0.029040
   145  H    0.015473
   146  H    0.009441
   147  H   -0.002239
   148  H   -0.009474
   149  H    0.017800
   150  H    0.014473
   151  H    0.016676
   152  H    0.008375
   153  H    0.030067
   154  H    0.038352
   155  H    0.050774
   156  H    0.028227
   157  H    0.055321
   158  H    0.023831
 Sum of Mulliken charges =  -0.00000

 Dipole moment (field-independent basis, Debye):
    X=              4.8969    Y=              4.3631    Z=             -1.3279  Tot=              6.6917
 Quadrupole moment (field-independent basis, Debye-Ang):
   XX=           -417.9369   YY=           -560.9120   ZZ=           -494.9287
   XY=            -27.4165   XZ=             10.1109   YZ=            -28.2069

 Normal termination of Gaussian 16 at Wed Sep 15 12:12:01 2021.
