 Gaussian 16, Revision A.03,
 Gaussian 16:  ES64L-G16RevA.03 25-Dec-2016

 -----------------------------------
 #p cam-b3lyp/Def2SVP td=(nstates=5)
 -----------------------------------

 --------------------------------
 TDDFT excited states in gaussian
 --------------------------------
 Symbolic Z-matrix:
 Charge =  0 Multiplicity = 1

                         Standard orientation:
 ---------------------------------------------------------------------
 Center     Atomic      Atomic             Coordinates (Angstroms)
 Number     Number       Type             X           Y           Z
 ---------------------------------------------------------------------
      1         12           0       13.041651   -0.943895   -0.186589
      2          6           0       15.283834    1.762331    0.566736
      3          6           0       10.461581    1.139081    1.068535
      4          6           0       10.709802   -3.490018   -0.711990
      5          6           0       15.593344   -2.951378   -0.973468
      6          7           0       12.982330    1.203767    0.928947
      7          6           0       13.990369    2.100533    0.983474
      8          6           0       13.505227    3.407708    1.707432
      9          6           0       12.013739    3.025336    2.017111
     10          6           0       11.746705    1.725907    1.223312
     11          6           0       11.739695    2.890795    3.555736
     12          6           0       13.627812    4.661696    0.842124
     13          6           0       14.175435    5.877329    1.515138
     14          1           0       14.417034    7.140796    0.676581
     15          7           0       10.909569   -1.106383   -0.077170
     16          6           0       10.066890   -0.145160    0.471078
     17          6           0        8.704431   -0.628280    0.364822
     18          6           0        8.717847   -1.883033   -0.221511
     19          6           0       10.170354   -2.257376   -0.295515
     20          6           0        7.503975    0.063663    0.943812
     21          6           0        7.542181   -2.887568   -0.562290
     22          8           0        7.628231   -3.976223   -1.075650
     23          6           0        6.114953   -2.413011   -0.394775
     24          7           0       13.108395   -2.925466   -0.597674
     25          6           0       12.083669   -3.816713   -0.782081
     26          6           0       12.593153   -5.268034   -0.943154
     27          6           0       14.132111   -5.059055   -1.273769
     28          6           0       14.281283   -3.522857   -0.953614
     29          6           0       12.287763   -6.164283    0.299437
     30          6           0       14.533501   -5.412431   -2.738226
     31          6           0       13.973647   -4.490249   -3.818945
     32          7           0       15.005015   -0.738789   -0.195258
     33          6           0       16.001909   -1.659251   -0.623329
     34          6           0       17.332119   -1.065305   -0.509351
     35          6           0       17.082162    0.259359   -0.108242
     36          6           0       15.682600    0.430852    0.060101
     37          6           0       18.596091   -1.720142   -0.824909
     38          6           0       17.780098    1.500687    0.210645
     39          8           0       18.967765    1.765864    0.129343
     40          6           0       16.646892    2.525640    0.756419
     41          6           0       16.916771    3.717914   -0.164636
     42          8           0       16.666360    3.829310   -1.378312
     43          8           0       17.547525    4.652883    0.524406
     44          6           0       17.681145    6.046951   -0.064356
     45          1           0        9.666919    1.816193    1.387717
     46          1           0       10.057152   -4.346574   -0.897909
     47          1           0       16.371192   -3.637121   -1.314893
     48          1           0       14.200503    3.525101    2.537962
     49          1           0       11.316930    3.758916    1.609411
     50          1           0       10.929140    3.502492    3.951874
     51          1           0       12.636221    2.947396    4.173389
     52          1           0       11.325392    1.938646    3.887954
     53          1           0       12.588400    4.988275    0.804920
     54          1           0       14.017364    4.459020   -0.156120
     55          1           0       15.075665    5.802383    2.127264
     56          1           0       13.383272    6.143927    2.214871
     57          1           0        7.753956    1.063565    1.297571
     58          1           0        7.020864   -0.458998    1.770827
     59          1           0        6.685850    0.249467    0.247739
     60          1           0        5.891321   -1.543037   -1.012120
     61          1           0        6.071976   -2.236206    0.679978
     62          1           0        5.532187   -3.317261   -0.570417
     63          1           0       11.963340   -5.673738   -1.735670
     64          1           0       14.855640   -5.412587   -0.538847
     65          1           0       11.544806   -6.933853    0.090129
     66          1           0       12.036264   -5.673430    1.238951
     67          1           0       13.268235   -6.606002    0.478286
     68          1           0       14.426639   -6.491113   -2.853653
     69          1           0       15.613369   -5.286954   -2.815380
     70          1           0       13.258596   -3.740626   -3.481980
     71          1           0       13.444246   -5.143840   -4.511791
     72          1           0       14.694835   -3.829229   -4.298235
     73          1           0       19.484615   -1.108723   -0.666161
     74          1           0       18.512771   -1.999876   -1.875028
     75          1           0       18.645324   -2.637304   -0.236261
     76          1           0       16.874566    2.902014    1.753703
     77          1           0       17.925877    6.697837    0.775311
     78          1           0       16.743119    6.429914   -0.465136
     79          1           0       18.405862    6.108149   -0.877064
     80         12           0      -13.760012   -0.330242    0.212526
     81          6           0      -13.221960    2.944016   -0.817137
     82          6           0      -12.351516    0.507361    3.227108
     83          6           0      -14.045255   -3.637068    1.160382
     84          6           0      -14.651091   -1.252678   -3.028719
     85          7           0      -12.983830    1.545006    1.110415
     86          6           0      -12.956752    2.775130    0.569773
     87          6           0      -12.543865    3.903617    1.543256
     88          6           0      -12.032741    3.056839    2.786472
     89          6           0      -12.435229    1.564321    2.360237
     90          6           0      -10.494460    3.307075    2.978936
     91          6           0      -13.863858    4.788054    1.828979
     92          6           0      -13.741507    6.320510    1.581575
     93          1           0      -12.263459    6.854405    1.590107
     94          7           0      -13.221718   -1.467130    1.896086
     95          6           0      -12.720849   -0.891512    3.082043
     96          6           0      -12.729621   -1.895410    4.124653
     97          6           0      -13.159461   -3.097548    3.548613
     98          6           0      -13.585482   -2.762678    2.139379
     99          6           0      -12.034200   -1.650172    5.471288
    100          6           0      -13.242557   -4.498797    4.210044
    101          8           0      -13.640694   -5.535141    3.646054
    102          6           0      -12.879627   -4.620452    5.700049
    103          7           0      -14.205760   -2.167081   -0.856263
    104          6           0      -14.309339   -3.411303   -0.162861
    105          6           0      -14.536166   -4.564917   -1.162132
    106          6           0      -15.009215   -3.744374   -2.451284
    107          6           0      -14.641357   -2.284047   -2.079081
    108          6           0      -13.268483   -5.395732   -1.273751
    109          6           0      -16.572319   -3.882362   -2.687328
    110          6           0      -17.677935   -3.597939   -1.614339
    111          7           0      -13.843884    0.577245   -1.575914
    112          6           0      -14.206767    0.094912   -2.837183
    113          6           0      -14.149399    1.165305   -3.779046
    114          6           0      -13.818623    2.292502   -3.048785
    115          6           0      -13.534335    1.887792   -1.721106
    116          6           0      -14.348219    1.083844   -5.278780
    117          6           0      -13.602503    3.681519   -3.146517
    118          8           0      -13.590708    4.339940   -4.137390
    119          6           0      -13.090260    4.133713   -1.716630
    120          6           0      -11.658074    4.552515   -1.902737
    121          8           0      -10.705886    3.894405   -1.538976
    122          8           0      -11.663994    5.721593   -2.554075
    123          6           0      -10.402340    6.018408   -3.187127
    124          1           0      -11.980181    0.781472    4.216526
    125          1           0      -13.900965   -4.692298    1.398699
    126          1           0      -14.916883   -1.527806   -4.052027
    127          1           0      -11.782448    4.585751    1.165538
    128          1           0      -12.547330    3.264297    3.724976
    129          1           0       -9.903453    2.415254    3.188771
    130          1           0      -10.544705    3.979029    3.835237
    131          1           0      -10.164064    3.896212    2.123781
    132          1           0      -14.212506    4.528399    2.828321
    133          1           0      -14.641864    4.405761    1.167722
    134          1           0      -14.319292    6.709694    2.419206
    135          1           0      -14.197417    6.675869    0.657946
    136          1           0      -11.296492   -2.443018    5.597464
    137          1           0      -12.756451   -1.779046    6.278539
    138          1           0      -11.591629   -0.654629    5.484161
    139          1           0      -11.795385   -4.522450    5.768084
    140          1           0      -13.096425   -5.654064    5.969245
    141          1           0      -13.554747   -4.002198    6.291213
    142          1           0      -15.408198   -5.093828   -0.776434
    143          1           0      -14.562781   -4.174585   -3.347058
    144          1           0      -12.667507   -5.384418   -0.364318
    145          1           0      -12.645890   -5.036885   -2.093011
    146          1           0      -13.508313   -6.448538   -1.421256
    147          1           0      -16.755791   -4.873706   -3.101786
    148          1           0      -16.766005   -3.105705   -3.427230
    149          1           0      -17.853013   -4.516520   -1.054109
    150          1           0      -18.566075   -3.321180   -2.183624
    151          1           0      -17.513980   -2.731398   -0.972975
    152          1           0      -15.338370    0.713111   -5.544453
    153          1           0      -13.595195    0.364547   -5.600110
    154          1           0      -14.359816    2.038336   -5.806871
    155          1           0      -13.586906    4.980825   -1.243165
    156          1           0      -10.493104    6.608150   -4.099002
    157          1           0       -9.641859    5.251953   -3.335843
    158          1           0       -9.756571    6.659484   -2.586649
 ---------------------------------------------------------------------

 SCF Done:  E(RCAM-B3LYP) =  -4069.79929704     A.U. after   19 cycles

 Excitation energies and oscillator strengths:

 Excited State   1:      Singlet-A      1.6510 eV  750.96 nm  f=0.3727  <S**2>=0.000
     309 -> 315       -0.18396
     312 -> 313        0.68509
     309 <- 315       -0.11253
 This state for optimization and/or second-order correction.
 Total Energy, E(TD-HF/TD-DFT) =  -4069.73862326
 Copying the excited state density for this state as the 1-particle RhoCI density.

 Excited State   2:      Singlet-A      1.7043 eV  727.46 nm  f=0.3879  <S**2>=0.000
     310 -> 316       -0.17574
     311 -> 314        0.68639
     310 <- 316       -0.10652

 Excited State   3:      Singlet-A      2.2174 eV  559.15 nm  f=0.0827  <S**2>=0.000
     309 -> 313        0.62532
     312 -> 315        0.32023

 Excited State   4:      Singlet-A      2.2267 eV  556.79 nm  f=0.1337  <S**2>=0.000
     310 -> 314        0.64587
     311 -> 316        0.27540

 Excited State   5:      Singlet-A      3.0002 eV  413.25 nm  f=0.0000  <S**2>=0.000
     311 -> 313        0.70706

 The electronic state is 1-A.
 Alpha  occ. eigenvalues --  -46.88273 -46.88111 -19.26192 -19.24926 -19.20106
 Alpha  occ. eigenvalues --  -19.19487 -19.19393 -19.19346 -19.18644 -19.17984
 Alpha  occ. eigenvalues --  -14.42438 -14.42277 -14.41531 -14.41465 -14.40083
 Alpha  occ. eigenvalues --  -14.39658 -14.39588 -14.39091 -10.39363 -10.38449
 Alpha  occ. eigenvalues --  -10.35561 -10.35374 -10.35153 -10.34861 -10.32191
 Alpha  occ. eigenvalues --  -10.31635 -10.31395 -10.31386 -10.31349 -10.31219
 Alpha  occ. eigenvalues --  -10.31067 -10.31020 -10.30697 -10.30607 -10.30383
 Alpha  occ. eigenvalues --  -10.30188 -10.29981 -10.29938 -10.29893 -10.29858
 Alpha  occ. eigenvalues --  -10.29693 -10.29669 -10.28917 -10.28851 -10.28764
 Alpha  occ. eigenvalues --  -10.28723 -10.28582 -10.28559 -10.28440 -10.28399
 Alpha  occ. eigenvalues --  -10.28390 -10.28345 -10.28337 -10.28268 -10.28175
 Alpha  occ. eigenvalues --  -10.28173 -10.28119 -10.27880 -10.27702 -10.27694
 Alpha  occ. eigenvalues --  -10.27627 -10.27510 -10.27265 -10.27092 -10.27045
 Alpha  occ. eigenvalues --  -10.26866 -10.26812 -10.26764 -10.26746 -10.26724
 Alpha  occ. eigenvalues --  -10.26594 -10.26552 -10.26281 -10.26209 -10.26081
 Alpha  occ. eigenvalues --  -10.26048 -10.26000 -10.25864 -10.25821 -10.25675
 Alpha  occ. eigenvalues --  -10.25631 -10.25401 -10.25379 -10.25283 -10.25234
 Alpha  occ. eigenvalues --  -10.24714  -3.16964  -3.16713  -1.91850  -1.91614
 Alpha  occ. eigenvalues --   -1.91436  -1.91269  -1.91147  -1.91035  -1.18198
 Alpha  occ. eigenvalues --   -1.15928  -1.12048  -1.11425  -1.10018  -1.09122
 Alpha  occ. eigenvalues --   -1.08364  -1.05269  -1.04187  -1.03769  -1.03351
 Alpha  occ. eigenvalues --   -1.03108  -1.02741  -1.02196  -1.01682  -1.01195
 Alpha  occ. eigenvalues --   -0.92832  -0.90845  -0.89239  -0.88728  -0.88565
 Alpha  occ. eigenvalues --   -0.88170  -0.87975  -0.87783  -0.87335  -0.87109
 Alpha  occ. eigenvalues --   -0.86933  -0.86530  -0.86429  -0.86050  -0.84103
 Alpha  occ. eigenvalues --   -0.83967  -0.83562  -0.83433  -0.82349  -0.82317
 Alpha  occ. eigenvalues --   -0.81479  -0.81232  -0.81011  -0.80941  -0.80145
 Alpha  occ. eigenvalues --   -0.79968  -0.78112  -0.77746  -0.77284  -0.77139
 Alpha  occ. eigenvalues --   -0.76938  -0.76771  -0.75962  -0.75893  -0.75106
 Alpha  occ. eigenvalues --   -0.74991  -0.72991  -0.72574  -0.71628  -0.71215
 Alpha  occ. eigenvalues --   -0.70046  -0.68917  -0.68733  -0.68680  -0.68008
 Alpha  occ. eigenvalues --   -0.67520  -0.66402  -0.66257  -0.65890  -0.65461
 Alpha  occ. eigenvalues --   -0.65099  -0.64583  -0.64549  -0.64512  -0.64038
 Alpha  occ. eigenvalues --   -0.63966  -0.62418  -0.61762  -0.60031  -0.59572
 Alpha  occ. eigenvalues --   -0.59435  -0.59259  -0.58992  -0.58922  -0.58454
 Alpha  occ. eigenvalues --   -0.58032  -0.57685  -0.57342  -0.57286  -0.56300
 Alpha  occ. eigenvalues --   -0.56223  -0.55714  -0.55623  -0.55473  -0.55003
 Alpha  occ. eigenvalues --   -0.54939  -0.54645  -0.54419  -0.53997  -0.53948
 Alpha  occ. eigenvalues --   -0.53402  -0.53304  -0.53199  -0.53159  -0.52878
 Alpha  occ. eigenvalues --   -0.52702  -0.52622  -0.52405  -0.52238  -0.52095
 Alpha  occ. eigenvalues --   -0.52021  -0.51889  -0.51769  -0.51501  -0.50993
 Alpha  occ. eigenvalues --   -0.50948  -0.50874  -0.50648  -0.50091  -0.49937
 Alpha  occ. eigenvalues --   -0.49848  -0.49776  -0.49584  -0.49543  -0.49268
 Alpha  occ. eigenvalues --   -0.49207  -0.49200  -0.48930  -0.48876  -0.48636
 Alpha  occ. eigenvalues --   -0.48627  -0.48417  -0.48361  -0.48110  -0.47980
 Alpha  occ. eigenvalues --   -0.47774  -0.47511  -0.47505  -0.47430  -0.47162
 Alpha  occ. eigenvalues --   -0.46706  -0.46689  -0.46634  -0.46322  -0.46301
 Alpha  occ. eigenvalues --   -0.46204  -0.46165  -0.45811  -0.45757  -0.45606
 Alpha  occ. eigenvalues --   -0.45483  -0.45221  -0.45213  -0.44967  -0.44893
 Alpha  occ. eigenvalues --   -0.44663  -0.44580  -0.44392  -0.44357  -0.44139
 Alpha  occ. eigenvalues --   -0.43947  -0.43788  -0.43632  -0.43620  -0.43509
 Alpha  occ. eigenvalues --   -0.43445  -0.43140  -0.43086  -0.43047  -0.42972
 Alpha  occ. eigenvalues --   -0.42948  -0.42681  -0.42469  -0.42415  -0.42129
 Alpha  occ. eigenvalues --   -0.41954  -0.41795  -0.41783  -0.41391  -0.41350
 Alpha  occ. eigenvalues --   -0.40893  -0.40834  -0.40713  -0.40344  -0.40307
 Alpha  occ. eigenvalues --   -0.40168  -0.39587  -0.39562  -0.39185  -0.39185
 Alpha  occ. eigenvalues --   -0.38613  -0.38029  -0.37713  -0.37506  -0.37495
 Alpha  occ. eigenvalues --   -0.37126  -0.37095  -0.36605  -0.36495  -0.36148
 Alpha  occ. eigenvalues --   -0.36039  -0.35619  -0.34840  -0.34125  -0.33887
 Alpha  occ. eigenvalues --   -0.33107  -0.32710  -0.32697  -0.31677  -0.31417
 Alpha  occ. eigenvalues --   -0.30992  -0.30960  -0.30779  -0.30474  -0.30334
 Alpha  occ. eigenvalues --   -0.30300  -0.29962  -0.29616  -0.24088  -0.23798
 Alpha  occ. eigenvalues --   -0.21007  -0.20937
 Alpha virt. eigenvalues --   -0.08678  -0.08580  -0.02012  -0.01371   0.00529
 Alpha virt. eigenvalues --    0.00676   0.02414   0.02450   0.02530   0.03432
 Alpha virt. eigenvalues --    0.04494   0.05172   0.05280   0.06093   0.06175

 Mulliken charges:
               1
     1  Mg   0.847244
     2  C    0.045355
     3  C   -0.060584
     4  C   -0.047653
     5  C   -0.098780
     6  N   -0.248855
     7  C   -0.053023
     8  C   -0.041269
     9  C   -0.032685
    10  C    0.025066
    11  C    0.061910
    12  C    0.091713
    13  C   -0.097179
    14  H    0.015852
    15  N   -0.370687
    16  C    0.163391
    17  C   -0.136150
    18  C   -0.047526
    19  C    0.113898
    20  C    0.100990
    21  C    0.008281
    22  O   -0.184679
    23  C    0.055723
    24  N   -0.324665
    25  C    0.018128
    26  C   -0.032837
    27  C   -0.028961
    28  C    0.038282
    29  C    0.074268
    30  C    0.042220
    31  C    0.003853
    32  N   -0.436323
    33  C    0.150796
    34  C   -0.152967
    35  C    0.006747
    36  C    0.125944
    37  C    0.128413
    38  C    0.055335
    39  O   -0.163370
    40  C   -0.066564
    41  C    0.185877
    42  O   -0.258971
    43  O   -0.310141
    44  C    0.186786
    45  H   -0.026658
    46  H   -0.004471
    47  H   -0.031277
    48  H    0.015112
    49  H    0.010139
    50  H    0.011073
    51  H    0.016460
    52  H    0.004601
    53  H   -0.000474
    54  H    0.045824
    55  H    0.026982
    56  H    0.015905
    57  H   -0.001751
    58  H    0.033573
    59  H    0.015977
    60  H    0.054989
    61  H    0.014207
    62  H    0.026671
    63  H    0.013949
    64  H    0.017070
    65  H    0.026089
    66  H    0.025168
    67  H    0.002860
    68  H    0.013565
    69  H   -0.002142
    70  H    0.021599
    71  H    0.022792
    72  H    0.019872
    73  H    0.040150
    74  H    0.029339
    75  H    0.021978
    76  H    0.037270
    77  H    0.039455
    78  H    0.037709
    79  H    0.054192
    80  Mg   0.826316
    81  C   -0.012289
    82  C   -0.055262
    83  C   -0.055249
    84  C   -0.101666
    85  N   -0.262878
    86  C   -0.021617
    87  C   -0.037425
    88  C   -0.073710
    89  C    0.047857
    90  C    0.074578
    91  C    0.036453
    92  C   -0.072589
    93  H    0.021470
    94  N   -0.381525
    95  C    0.116806
    96  C   -0.159378
    97  C   -0.046578
    98  C    0.112348
    99  C    0.135782
   100  C    0.005279
   101  O   -0.221254
   102  C    0.048221
   103  N   -0.269127
   104  C    0.003970
   105  C   -0.013050
   106  C   -0.018958
   107  C    0.072180
   108  C    0.091467
   109  C   -0.014724
   110  C    0.000557
   111  N   -0.397767
   112  C    0.133557
   113  C   -0.171066
   114  C    0.038085
   115  C    0.109013
   116  C    0.123555
   117  C    0.021078
   118  O   -0.126687
   119  C   -0.026005
   120  C    0.176001
   121  O   -0.208608
   122  O   -0.277496
   123  C    0.182084
   124  H   -0.037608
   125  H    0.007467
   126  H   -0.023570
   127  H    0.021897
   128  H    0.013742
   129  H    0.029913
   130  H    0.010642
   131  H    0.027744
   132  H    0.008570
   133  H    0.018980
   134  H    0.034171
   135  H    0.048704
   136  H    0.023596
   137  H    0.016900
   138  H    0.018017
   139  H    0.040285
   140  H    0.017753
   141  H    0.042673
   142  H    0.008242
   143  H    0.002036
   144  H    0.024862
   145  H    0.013030
   146  H    0.014228
   147  H    0.012910
   148  H   -0.002215
   149  H    0.027162
   150  H    0.014343
   151  H    0.022577
   152  H    0.015089
   153  H    0.034329
   154  H    0.032787
   155  H    0.026024
   156  H    0.038732
   157  H    0.037200
   158  H    0.007040
 Sum of Mulliken charges =  -0.00000

 Dipole moment (field-independent basis, Debye):
    X=             -3.8131    Y=              1.5156    Z=              4.2534  Tot=              5.9100
 Quadrupole moment (field-independent basis, Debye-Ang):
   XX=           -582.4000   YY=           -494.8949   ZZ=           -497.3245
   XY=            -42.6912   XZ=             12.6537   YZ=             36.1081

 Normal termination of Gaussian 16 at Wed Sep 15 10:13:00 2021.
