 Gaussian 16, Revision A.03,
 Gaussian 16:  ES64L-G16RevA.03 25-Dec-2016

 ----------------------------------------------------------
 #p cam-b3lyp/Def2SVP td=(nstates=5) density=(transition=1)
 ----------------------------------------------------------

 --------------------------------
 TDDFT excited states in gaussian
 --------------------------------
 Symbolic Z-matrix:
 Charge =  0 Multiplicity = 1

                         Standard orientation:
 ---------------------------------------------------------------------
 Center     Atomic      Atomic             Coordinates (Angstroms)
 Number     Number       Type             X           Y           Z
 ---------------------------------------------------------------------
      1         12           0       24.779590   -0.846517    0.068805
      2          6           0       24.635066    2.465799   -1.131963
      3          6           0       25.146602    0.407760    3.247406
      4          6           0       25.005297   -3.969632    1.283602
      5          6           0       24.984966   -2.051634   -3.209716
      6          7           0       24.733392    1.189194    0.865693
      7          6           0       24.666104    2.392439    0.303143
      8          6           0       24.682452    3.602861    1.259793
      9          6           0       25.142332    2.803668    2.573572
     10          6           0       25.044431    1.347739    2.188423
     11          6           0       26.527417    3.166363    3.051404
     12          6           0       23.239752    4.334858    1.439688
     13          6           0       23.359596    5.812040    1.825717
     14          1           0       22.738350    6.789359    0.794810
     15          7           0       24.878873   -1.713920    2.041540
     16          6           0       25.077322   -0.972087    3.232293
     17          6           0       24.882260   -1.890838    4.331191
     18          6           0       24.814600   -3.173073    3.793707
     19          6           0       24.877508   -3.016936    2.306610
     20          6           0       24.993272   -1.497530    5.792159
     21          6           0       24.634491   -4.525463    4.444371
     22          8           0       24.522799   -5.502328    3.762765
     23          6           0       24.514020   -4.684616    5.927171
     24          7           0       25.166455   -2.722149   -0.801494
     25          6           0       25.141814   -3.889587   -0.095659
     26          6           0       25.249181   -5.034207   -1.141160
     27          6           0       24.686210   -4.476776   -2.436251
     28          6           0       24.966417   -2.974773   -2.194916
     29          6           0       26.719513   -5.397178   -1.344183
     30          6           0       23.260804   -4.804977   -2.686271
     31          6           0       22.260321   -4.626562   -1.571243
     32          7           0       24.776276   -0.025257   -1.820177
     33          6           0       24.874187   -0.608461   -3.069484
     34          6           0       24.803901    0.446986   -4.091837
     35          6           0       24.685434    1.644109   -3.364555
     36          6           0       24.673035    1.313280   -2.037010
     37          6           0       24.897557    0.261159   -5.544642
     38          6           0       24.429867    3.056793   -3.453477
     39          8           0       24.250188    3.804473   -4.459290
     40          6           0       24.360064    3.621600   -1.956424
     41          6           0       25.469446    4.633625   -1.832320
     42          8           0       26.587466    4.419582   -2.196897
     43          8           0       25.117990    5.853081   -1.192529
     44          6           0       26.271643    6.709779   -0.781462
     45          1           0       25.316035    0.785750    4.257212
     46          1           0       25.179817   -4.989932    1.632472
     47          1           0       24.868832   -2.365456   -4.249435
     48          1           0       25.359844    4.369072    0.880689
     49          1           0       24.401234    3.087061    3.321963
     50          1           0       26.389907    3.895140    3.850038
     51          1           0       27.183965    3.488349    2.242813
     52          1           0       26.865460    2.269782    3.570888
     53          1           0       22.668462    3.838036    2.224454
     54          1           0       22.638559    4.224873    0.536926
     55          1           0       24.437809    5.915086    1.949676
     56          1           0       22.957431    6.010976    2.818906
     57          1           0       24.861112   -0.416244    5.787665
     58          1           0       26.039263   -1.704207    6.016828
     59          1           0       24.228118   -1.968136    6.409885
     60          1           0       23.519703   -4.261104    6.069879
     61          1           0       25.231225   -4.103732    6.506446
     62          1           0       24.564425   -5.739083    6.200735
     63          1           0       24.766155   -5.968955   -0.858613
     64          1           0       25.171839   -4.828969   -3.345714
     65          1           0       27.249384   -5.036465   -2.225845
     66          1           0       26.787730   -6.484975   -1.337980
     67          1           0       27.272294   -5.056468   -0.467971
     68          1           0       23.139114   -5.813155   -3.083046
     69          1           0       22.975756   -4.126635   -3.490232
     70          1           0       21.623111   -3.797056   -1.879153
     71          1           0       22.537018   -4.410931   -0.538807
     72          1           0       21.618873   -5.507447   -1.550343
     73          1           0       25.922355   -0.022601   -5.783927
     74          1           0       24.582138    1.223256   -5.948191
     75          1           0       24.271970   -0.565981   -5.882858
     76          1           0       23.344578    4.005818   -1.858402
     77          1           0       26.674715    7.240283   -1.644075
     78          1           0       27.076823    6.147385   -0.306511
     79          1           0       26.037765    7.534376   -0.108689
     80         12           0      -25.276403   -0.372070   -0.171491
     81          6           0      -23.123124    2.251479   -0.398367
     82          6           0      -27.197389    1.320202    2.126969
     83          6           0      -27.228447   -3.126017    0.085554
     84          6           0      -23.027689   -2.242940   -2.155146
     85          7           0      -25.039639    1.496426    0.927075
     86          6           0      -24.278542    2.500082    0.414772
     87          6           0      -24.640655    3.847518    0.940899
     88          6           0      -25.818728    3.427113    1.963850
     89          6           0      -26.055703    1.981823    1.671412
     90          6           0      -25.422975    3.664600    3.491270
     91          6           0      -25.183016    4.744806   -0.267224
     92          6           0      -25.113461    6.264159   -0.098879
     93          1           0      -24.854626    6.984131    1.248023
     94          7           0      -27.034897   -0.852033    0.854050
     95          6           0      -27.657937   -0.003570    1.783791
     96          6           0      -28.802838   -0.715003    2.303180
     97          6           0      -28.840959   -1.988440    1.699634
     98          6           0      -27.692110   -1.990097    0.804446
     99          6           0      -29.777087   -0.043572    3.299088
    100          6           0      -29.865752   -3.199926    2.013833
    101          8           0      -29.909273   -4.231933    1.332266
    102          6           0      -30.890775   -3.183396    3.135790
    103          7           0      -25.151507   -2.414361   -1.016142
    104          6           0      -26.085483   -3.342664   -0.699077
    105          6           0      -25.656027   -4.740406   -1.141817
    106          6           0      -24.434880   -4.395550   -2.174462
    107          6           0      -24.212550   -2.903804   -1.879706
    108          6           0      -25.353461   -5.786740    0.026196
    109          6           0      -24.778364   -4.481147   -3.747440
    110          6           0      -23.860242   -5.249995   -4.679681
    111          7           0      -23.458757   -0.116881   -1.168428
    112          6           0      -22.669700   -0.922378   -1.900806
    113          6           0      -21.508717   -0.144322   -2.435934
    114          6           0      -21.721952    1.139503   -1.880244
    115          6           0      -22.849154    1.033692   -1.029260
    116          6           0      -20.409449   -0.539130   -3.357505
    117          6           0      -21.136462    2.427491   -1.868703
    118          8           0      -20.115631    2.855034   -2.445837
    119          6           0      -22.016436    3.214039   -0.900456
    120          6           0      -21.203085    3.669765    0.203606
    121          8           0      -20.505929    3.066723    0.958214
    122          8           0      -21.461526    5.030594    0.338520
    123          6           0      -20.839587    5.865539    1.436444
    124          1           0      -27.967685    1.865172    2.675894
    125          1           0      -27.807876   -4.037379    0.249334
    126          1           0      -22.203020   -2.801138   -2.601896
    127          1           0      -23.914110    4.472550    1.459720
    128          1           0      -26.731193    3.991157    1.770646
    129          1           0      -26.229656    3.992849    4.146314
    130          1           0      -24.540759    4.303055    3.535278
    131          1           0      -25.113029    2.693912    3.879678
    132          1           0      -26.217458    4.502761   -0.511815
    133          1           0      -24.574472    4.459516   -1.125728
    134          1           0      -26.048621    6.645446   -0.510949
    135          1           0      -24.359135    6.652855   -0.781932
    136          1           0      -29.548820    0.999944    3.515637
    137          1           0      -29.758280   -0.647671    4.205574
    138          1           0      -30.777428   -0.133177    2.874915
    139          1           0      -31.619082   -2.434922    2.825809
    140          1           0      -30.515366   -2.699723    4.037805
    141          1           0      -31.185660   -4.199405    3.397425
    142          1           0      -26.465279   -5.158543   -1.741649
    143          1           0      -23.572536   -5.035344   -1.986012
    144          1           0      -24.333722   -6.167235   -0.037170
    145          1           0      -26.067846   -6.608260   -0.013320
    146          1           0      -25.406193   -5.300424    1.000560
    147          1           0      -24.952782   -3.495379   -4.178399
    148          1           0      -25.764985   -4.938766   -3.813441
    149          1           0      -23.549516   -4.548513   -5.453155
    150          1           0      -24.329591   -6.137205   -5.103826
    151          1           0      -22.947230   -5.525399   -4.149941
    152          1           0      -20.490348   -1.547409   -3.763286
    153          1           0      -19.443890   -0.492687   -2.853210
    154          1           0      -20.395388    0.161220   -4.192377
    155          1           0      -22.481173    4.078571   -1.375381
    156          1           0      -20.237854    5.238942    2.095127
    157          1           0      -21.626023    6.296050    2.057789
    158          1           0      -20.233687    6.612040    0.922976
 ---------------------------------------------------------------------

 SCF Done:  E(RCAM-B3LYP) =  -4069.80453589     A.U. after   19 cycles

 Excitation energies and oscillator strengths:

 Excited State   1:      Singlet-A      1.6958 eV  731.14 nm  f=0.3676  <S**2>=0.000
     309 -> 315       -0.17412
     311 -> 313        0.68769
     309 <- 315       -0.10610
 This state for optimization and/or second-order correction.
 Total Energy, E(TD-HF/TD-DFT) =  -4069.74221778
 Copying the excited state density for this state as the 1-particle RhoCI density.

 Excited State   2:      Singlet-A      1.7389 eV  713.01 nm  f=0.3989  <S**2>=0.000
     310 -> 316        0.19175
     312 -> 314        0.68294
     310 <- 316        0.10976

 Excited State   3:      Singlet-A      2.1842 eV  567.65 nm  f=0.1181  <S**2>=0.000
     309 -> 313        0.64718
     311 -> 315        0.27031

 Excited State   4:      Singlet-A      2.2287 eV  556.30 nm  f=0.1028  <S**2>=0.000
     310 -> 314        0.63902
     312 -> 316       -0.29488

 Excited State   5:      Singlet-A      3.1294 eV  396.19 nm  f=0.0000  <S**2>=0.000
     312 -> 313        0.70711

 The electronic state is 1-A.
 Alpha  occ. eigenvalues --  -46.89405 -46.88612 -19.24488 -19.23689 -19.20033
 Alpha  occ. eigenvalues --  -19.19598 -19.19199 -19.19072 -19.18785 -19.18229
 Alpha  occ. eigenvalues --  -14.43404 -14.42483 -14.41676 -14.41329 -14.39696
 Alpha  occ. eigenvalues --  -14.39556 -14.39396 -14.39045 -10.39387 -10.38659
 Alpha  occ. eigenvalues --  -10.36235 -10.35177 -10.34730 -10.34479 -10.31909
 Alpha  occ. eigenvalues --  -10.31839 -10.31751 -10.31672 -10.31261 -10.31109
 Alpha  occ. eigenvalues --  -10.30937 -10.30681 -10.30650 -10.30597 -10.30508
 Alpha  occ. eigenvalues --  -10.30220 -10.29999 -10.29874 -10.29751 -10.29427
 Alpha  occ. eigenvalues --  -10.29378 -10.29018 -10.28860 -10.28845 -10.28793
 Alpha  occ. eigenvalues --  -10.28778 -10.28376 -10.28356 -10.28303 -10.28298
 Alpha  occ. eigenvalues --  -10.28255 -10.28233 -10.28193 -10.28192 -10.28189
 Alpha  occ. eigenvalues --  -10.28117 -10.27968 -10.27964 -10.27829 -10.27521
 Alpha  occ. eigenvalues --  -10.27518 -10.27466 -10.27404 -10.27369 -10.27213
 Alpha  occ. eigenvalues --  -10.27115 -10.27108 -10.26682 -10.26667 -10.26640
 Alpha  occ. eigenvalues --  -10.26579 -10.26441 -10.26406 -10.26215 -10.26174
 Alpha  occ. eigenvalues --  -10.26119 -10.26072 -10.25898 -10.25610 -10.25385
 Alpha  occ. eigenvalues --  -10.25366 -10.25105 -10.25096 -10.24753 -10.24449
 Alpha  occ. eigenvalues --  -10.24415  -3.17812  -3.17107  -1.92732  -1.92249
 Alpha  occ. eigenvalues --   -1.92124  -1.92029  -1.91539  -1.91424  -1.15639
 Alpha  occ. eigenvalues --   -1.15603  -1.12107  -1.09519  -1.08331  -1.07370
 Alpha  occ. eigenvalues --   -1.07209  -1.06643  -1.05568  -1.05286  -1.04465
 Alpha  occ. eigenvalues --   -1.03582  -1.03527  -1.02924  -1.02635  -1.01758
 Alpha  occ. eigenvalues --   -0.93499  -0.92940  -0.90038  -0.89428  -0.88822
 Alpha  occ. eigenvalues --   -0.88613  -0.88267  -0.87838  -0.87522  -0.87070
 Alpha  occ. eigenvalues --   -0.86924  -0.86911  -0.86227  -0.86210  -0.84696
 Alpha  occ. eigenvalues --   -0.84331  -0.83562  -0.83479  -0.82620  -0.82463
 Alpha  occ. eigenvalues --   -0.82369  -0.81613  -0.81194  -0.81103  -0.80305
 Alpha  occ. eigenvalues --   -0.79912  -0.78902  -0.78417  -0.77476  -0.77337
 Alpha  occ. eigenvalues --   -0.77129  -0.77096  -0.76275  -0.76207  -0.75193
 Alpha  occ. eigenvalues --   -0.74979  -0.72595  -0.72447  -0.71991  -0.71323
 Alpha  occ. eigenvalues --   -0.69693  -0.69263  -0.68839  -0.68643  -0.68230
 Alpha  occ. eigenvalues --   -0.67832  -0.67113  -0.65989  -0.65820  -0.65343
 Alpha  occ. eigenvalues --   -0.65210  -0.64930  -0.64520  -0.64256  -0.64194
 Alpha  occ. eigenvalues --   -0.63399  -0.61822  -0.61758  -0.60455  -0.60374
 Alpha  occ. eigenvalues --   -0.59931  -0.59929  -0.59188  -0.59136  -0.58972
 Alpha  occ. eigenvalues --   -0.58801  -0.58599  -0.58478  -0.57760  -0.57584
 Alpha  occ. eigenvalues --   -0.56386  -0.56032  -0.55752  -0.55507  -0.55299
 Alpha  occ. eigenvalues --   -0.54776  -0.54531  -0.54241  -0.54080  -0.53972
 Alpha  occ. eigenvalues --   -0.53775  -0.53709  -0.53606  -0.53049  -0.53035
 Alpha  occ. eigenvalues --   -0.52981  -0.52765  -0.52426  -0.52206  -0.52143
 Alpha  occ. eigenvalues --   -0.51872  -0.51700  -0.51636  -0.51624  -0.51519
 Alpha  occ. eigenvalues --   -0.51412  -0.50832  -0.50812  -0.50723  -0.50547
 Alpha  occ. eigenvalues --   -0.50194  -0.50001  -0.49810  -0.49708  -0.49683
 Alpha  occ. eigenvalues --   -0.49577  -0.49401  -0.49199  -0.49131  -0.49066
 Alpha  occ. eigenvalues --   -0.48922  -0.48311  -0.48292  -0.48212  -0.48150
 Alpha  occ. eigenvalues --   -0.47957  -0.47725  -0.47641  -0.47619  -0.47273
 Alpha  occ. eigenvalues --   -0.47166  -0.46933  -0.46700  -0.46597  -0.46462
 Alpha  occ. eigenvalues --   -0.46346  -0.46252  -0.46174  -0.45868  -0.45589
 Alpha  occ. eigenvalues --   -0.45548  -0.45396  -0.45210  -0.45194  -0.44948
 Alpha  occ. eigenvalues --   -0.44694  -0.44355  -0.44311  -0.44267  -0.44161
 Alpha  occ. eigenvalues --   -0.43985  -0.43903  -0.43722  -0.43696  -0.43494
 Alpha  occ. eigenvalues --   -0.43146  -0.43146  -0.43098  -0.42842  -0.42677
 Alpha  occ. eigenvalues --   -0.42515  -0.42456  -0.42329  -0.41813  -0.41752
 Alpha  occ. eigenvalues --   -0.41636  -0.41549  -0.41301  -0.41139  -0.41057
 Alpha  occ. eigenvalues --   -0.41034  -0.40921  -0.40817  -0.40369  -0.40262
 Alpha  occ. eigenvalues --   -0.40212  -0.39737  -0.39727  -0.39514  -0.39412
 Alpha  occ. eigenvalues --   -0.38424  -0.38334  -0.37791  -0.37706  -0.37541
 Alpha  occ. eigenvalues --   -0.37275  -0.37119  -0.36764  -0.36585  -0.36421
 Alpha  occ. eigenvalues --   -0.36184  -0.36080  -0.34674  -0.34510  -0.34497
 Alpha  occ. eigenvalues --   -0.34237  -0.33196  -0.33160  -0.31704  -0.31360
 Alpha  occ. eigenvalues --   -0.31254  -0.31105  -0.31026  -0.30305  -0.30179
 Alpha  occ. eigenvalues --   -0.30054  -0.30000  -0.29320  -0.24134  -0.23837
 Alpha  occ. eigenvalues --   -0.21378  -0.21136
 Alpha virt. eigenvalues --   -0.08952  -0.08519  -0.01729  -0.01706  -0.00007
 Alpha virt. eigenvalues --    0.00446   0.02182   0.02303   0.02790   0.03272
 Alpha virt. eigenvalues --    0.04663   0.04663   0.05310   0.05328   0.05628

 Mulliken charges:
               1
     1  Mg  11.994416
     2  C    6.020268
     3  C    5.977651
     4  C    5.981820
     5  C    6.017069
     6  N    7.009064
     7  C    5.960160
     8  C    6.014833
     9  C    5.981079
    10  C    6.044663
    11  C    5.995347
    12  C    6.001331
    13  C    6.000390
    14  H    1.003706
    15  N    6.987758
    16  C    6.053866
    17  C    6.009323
    18  C    6.024891
    19  C    6.032376
    20  C    5.998210
    21  C    6.011141
    22  O    8.028474
    23  C    5.996740
    24  N    7.000532
    25  C    6.027446
    26  C    5.997048
    27  C    6.004590
    28  C    5.969969
    29  C    6.001246
    30  C    6.006432
    31  C    5.999905
    32  N    7.000202
    33  C    5.954178
    34  C    5.968570
    35  C    5.996528
    36  C    5.970127
    37  C    6.002123
    38  C    5.987610
    39  O    7.968503
    40  C    5.995886
    41  C    5.994441
    42  O    7.997718
    43  O    7.997040
    44  C    6.002748
    45  H    1.009967
    46  H    1.004287
    47  H    0.992433
    48  H    1.002477
    49  H    1.007026
    50  H    1.008943
    51  H    1.015222
    52  H    0.994570
    53  H    0.988189
    54  H    1.006797
    55  H    0.996825
    56  H    0.994177
    57  H    1.015780
    58  H    1.015382
    59  H    1.015282
    60  H    1.007886
    61  H    1.007380
    62  H    1.014687
    63  H    0.999296
    64  H    0.999496
    65  H    1.012723
    66  H    1.001983
    67  H    0.993404
    68  H    0.992357
    69  H    1.006871
    70  H    1.006675
    71  H    0.983168
    72  H    0.997256
    73  H    0.977326
    74  H    0.985931
    75  H    0.978896
    76  H    0.993294
    77  H    0.998417
    78  H    0.994245
    79  H    0.993932
    80  Mg  12.000000
    81  C    5.999938
    82  C    6.000033
    83  C    6.000112
    84  C    5.999989
    85  N    6.999992
    86  C    6.000144
    87  C    5.999918
    88  C    6.000053
    89  C    5.999875
    90  C    6.000021
    91  C    5.999983
    92  C    5.999989
    93  H    1.000016
    94  N    7.000001
    95  C    5.999804
    96  C    5.999930
    97  C    5.999912
    98  C    5.999845
    99  C    6.000020
   100  C    5.999937
   101  O    7.999871
   102  C    6.000022
   103  N    7.000016
   104  C    5.999877
   105  C    6.000038
   106  C    5.999981
   107  C    6.000080
   108  C    6.000012
   109  C    5.999949
   110  C    6.000006
   111  N    7.000002
   112  C    6.000151
   113  C    6.000157
   114  C    5.999998
   115  C    6.000139
   116  C    5.999945
   117  C    6.000092
   118  O    8.000170
   119  C    5.999969
   120  C    6.000028
   121  O    8.000003
   122  O    8.000007
   123  C    5.999987
   124  H    0.999961
   125  H    0.999957
   126  H    1.000029
   127  H    1.000021
   128  H    0.999992
   129  H    0.999983
   130  H    0.999925
   131  H    0.999980
   132  H    1.000058
   133  H    0.999975
   134  H    1.000029
   135  H    1.000010
   136  H    0.999914
   137  H    0.999904
   138  H    0.999925
   139  H    0.999968
   140  H    0.999957
   141  H    0.999920
   142  H    1.000003
   143  H    1.000006
   144  H    0.999934
   145  H    0.999988
   146  H    1.000007
   147  H    1.000013
   148  H    1.000058
   149  H    1.000015
   150  H    1.000027
   151  H    0.999990
   152  H    1.000097
   153  H    1.000102
   154  H    1.000118
   155  H    1.000064
   156  H    0.999996
   157  H    1.000024
   158  H    1.000039
 Sum of Mulliken charges = 624.00000

 Dipole moment (field-independent basis, Debye):
    X=              0.5845    Y=             -4.4665    Z=              9.6977  Tot=             10.6928
 Quadrupole moment (field-independent basis, Debye-Ang):
   XX=             24.7248   YY=              5.1133   ZZ=              2.5921
   XY=           -111.5012   XZ=            242.5328   YZ=             -8.1654

 Normal termination of Gaussian 16 at Tue Sep 21 18:01:23 2021.
