 Gaussian 16, Revision A.03,
 Gaussian 16:  ES64L-G16RevA.03 25-Dec-2016

 -----------------------------------
 #p cam-b3lyp/Def2SVP td=(nstates=5)
 -----------------------------------

 --------------------------------
 TDDFT excited states in gaussian
 --------------------------------
 Symbolic Z-matrix:
 Charge =  0 Multiplicity = 1

                         Standard orientation:
 ---------------------------------------------------------------------
 Center     Atomic      Atomic             Coordinates (Angstroms)
 Number     Number       Type             X           Y           Z
 ---------------------------------------------------------------------
      1         12           0       25.513023   -0.550678    0.037391
      2          6           0       24.388862    2.587553    1.002865
      3          6           0       26.095414    0.599304   -3.079095
      4          6           0       26.405150   -3.660988   -0.819909
      5          6           0       24.724209   -1.688448    3.253791
      6          7           0       25.268525    1.429312   -0.860016
      7          6           0       24.900675    2.556166   -0.298645
      8          6           0       25.005727    3.702596   -1.406856
      9          6           0       24.773181    2.839435   -2.628876
     10          6           0       25.466195    1.508356   -2.196112
     11          6           0       23.264180    2.752133   -2.943525
     12          6           0       26.343230    4.540505   -1.221786
     13          6           0       26.329394    5.919379   -1.888784
     14          1           0       25.192736    6.263009   -2.835944
     15          7           0       26.318386   -1.362571   -1.631672
     16          6           0       26.556141   -0.676816   -2.820515
     17          6           0       27.353495   -1.576845   -3.706705
     18          6           0       27.400825   -2.889350   -3.069829
     19          6           0       26.614307   -2.650626   -1.830543
     20          6           0       27.906307   -1.132203   -5.040092
     21          6           0       28.127409   -4.246378   -3.499733
     22          8           0       28.136755   -5.268828   -2.805908
     23          6           0       28.849901   -4.232188   -4.830678
     24          7           0       25.455032   -2.381187    1.000578
     25          6           0       25.856810   -3.523449    0.449621
     26          6           0       25.613195   -4.758051    1.371424
     27          6           0       25.321529   -4.046564    2.700429
     28          6           0       25.208599   -2.598525    2.340269
     29          6           0       24.485793   -5.714307    0.891600
     30          6           0       26.233527   -4.390284    3.960962
     31          6           0       27.272422   -3.391234    4.351904
     32          7           0       24.532323    0.181309    1.731950
     33          6           0       24.343673   -0.351820    2.962436
     34          6           0       23.699819    0.535897    3.863739
     35          6           0       23.692704    1.759785    3.123369
     36          6           0       24.209277    1.442640    1.887855
     37          6           0       23.131753    0.391805    5.251815
     38          6           0       23.369390    3.155429    3.116210
     39          8           0       22.875398    3.877898    3.954838
     40          6           0       23.937089    3.808779    1.815935
     41          6           0       22.889546    4.603950    1.168264
     42          8           0       21.850340    4.109093    0.758942
     43          8           0       23.112380    6.003462    1.227351
     44          6           0       22.033834    6.851881    0.696563
     45          1           0       26.207238    0.992278   -4.090674
     46          1           0       26.663005   -4.670610   -1.144098
     47          1           0       24.445366   -2.090988    4.229482
     48          1           0       24.218904    4.439194   -1.249947
     49          1           0       25.318389    3.160084   -3.516234
     50          1           0       23.197318    3.290734   -3.889399
     51          1           0       22.642514    3.231165   -2.185967
     52          1           0       23.062983    1.700588   -3.146963
     53          1           0       27.188880    3.992716   -1.638563
     54          1           0       26.413056    4.720334   -0.148738
     55          1           0       27.276443    6.016393   -2.418729
     56          1           0       26.351759    6.655880   -1.085936
     57          1           0       28.186855   -0.078432   -5.023779
     58          1           0       27.278101   -1.290092   -5.916150
     59          1           0       28.841902   -1.662639   -5.216666
     60          1           0       28.095369   -3.860112   -5.523341
     61          1           0       29.147630   -5.214421   -5.196518
     62          1           0       29.749644   -3.621249   -4.755932
     63          1           0       26.507512   -5.375663    1.452762
     64          1           0       24.278772   -4.270276    2.922639
     65          1           0       23.926775   -5.965357    1.793357
     66          1           0       24.793986   -6.619831    0.371270
     67          1           0       23.889758   -5.179131    0.152343
     68          1           0       26.649455   -5.388140    3.821242
     69          1           0       25.606346   -4.416970    4.851756
     70          1           0       26.970537   -2.967133    5.309852
     71          1           0       27.310038   -2.477769    3.757103
     72          1           0       28.268826   -3.807864    4.499616
     73          1           0       23.162321   -0.638206    5.608870
     74          1           0       22.142633    0.849944    5.278129
     75          1           0       23.694930    0.860750    6.058963
     76          1           0       24.783520    4.461692    2.027264
     77          1           0       22.287609    7.906058    0.587924
     78          1           0       21.237666    6.723105    1.430302
     79          1           0       21.722266    6.373230   -0.231089
     80         12           0      -24.639112   -0.732904    0.062788
     81          6           0      -25.796622    2.630897    0.503946
     82          6           0      -23.056450    0.218385   -2.652320
     83          6           0      -24.365431   -3.969197   -0.597466
     84          6           0      -26.804555   -1.581130    2.912368
     85          7           0      -24.420294    1.222202   -0.920048
     86          6           0      -24.991795    2.473027   -0.612855
     87          6           0      -24.596126    3.617623   -1.620567
     88          6           0      -23.618255    2.727975   -2.607442
     89          6           0      -23.660673    1.306041   -2.056708
     90          6           0      -24.100694    2.758365   -4.120976
     91          6           0      -23.943621    4.893705   -0.983536
     92          6           0      -23.195191    5.806563   -1.947485
     93          1           0      -23.832856    7.193993   -2.144974
     94          7           0      -23.730928   -1.733087   -1.380912
     95          6           0      -23.070029   -1.213876   -2.469281
     96          6           0      -22.476379   -2.242649   -3.296958
     97          6           0      -22.873438   -3.479500   -2.650298
     98          6           0      -23.646500   -3.065172   -1.425673
     99          6           0      -21.621048   -2.043900   -4.458545
    100          6           0      -22.564857   -4.919047   -3.023609
    101          8           0      -22.849556   -5.865375   -2.344546
    102          6           0      -21.937784   -5.096606   -4.380886
    103          7           0      -25.523127   -2.530569    0.988555
    104          6           0      -25.194888   -3.756746    0.509128
    105          6           0      -25.803710   -4.879492    1.391108
    106          6           0      -26.453420   -4.068011    2.565378
    107          6           0      -26.210580   -2.623691    2.171730
    108          6           0      -26.810196   -5.878981    0.725823
    109          6           0      -25.882169   -4.349525    3.999827
    110          6           0      -26.397648   -5.669025    4.615785
    111          7           0      -26.026127    0.226120    1.425592
    112          6           0      -26.732096   -0.206351    2.524492
    113          6           0      -27.334552    0.904069    3.148026
    114          6           0      -27.074549    2.000701    2.414993
    115          6           0      -26.268829    1.568165    1.318395
    116          6           0      -28.069560    0.761661    4.474457
    117          6           0      -27.281376    3.435048    2.191056
    118          8           0      -27.923945    4.240130    2.814405
    119          6           0      -26.449898    3.876567    0.893900
    120          6           0      -27.441314    4.224588   -0.170215
    121          8           0      -28.010207    3.546442   -0.995753
    122          8           0      -27.584506    5.594904   -0.078805
    123          6           0      -28.507965    6.241195   -1.041498
    124          1           0      -22.544304    0.426908   -3.593831
    125          1           0      -24.364536   -5.002990   -0.951260
    126          1           0      -27.308993   -1.982471    3.794386
    127          1           0      -25.480934    3.858453   -2.210051
    128          1           0      -22.624956    3.176894   -2.585666
    129          1           0      -23.238747    2.906493   -4.771334
    130          1           0      -24.883710    3.457390   -4.413617
    131          1           0      -24.449813    1.771972   -4.424790
    132          1           0      -23.328363    4.422028   -0.216219
    133          1           0      -24.570996    5.552420   -0.382638
    134          1           0      -23.138833    5.323449   -2.922540
    135          1           0      -22.230437    6.059007   -1.508329
    136          1           0      -20.692873   -2.458685   -4.065487
    137          1           0      -21.573685   -0.990989   -4.736883
    138          1           0      -21.860801   -2.590301   -5.370496
    139          1           0      -20.853286   -5.122997   -4.275589
    140          1           0      -22.443457   -4.542775   -5.172409
    141          1           0      -22.376972   -6.031293   -4.728425
    142          1           0      -24.949686   -5.335535    1.892763
    143          1           0      -27.537538   -4.166450    2.505459
    144          1           0      -27.807563   -5.924075    1.164191
    145          1           0      -26.413251   -6.869676    0.946194
    146          1           0      -26.967609   -5.741278   -0.343919
    147          1           0      -26.186275   -3.547554    4.671547
    148          1           0      -24.798405   -4.316902    3.879707
    149          1           0      -27.328347   -5.974373    4.137205
    150          1           0      -26.502800   -5.476306    5.683382
    151          1           0      -25.734358   -6.521362    4.465578
    152          1           0      -28.054786    1.696026    5.035675
    153          1           0      -27.620105   -0.056301    5.037602
    154          1           0      -29.088626    0.412013    4.307586
    155          1           0      -25.770170    4.700760    1.111478
    156          1           0      -29.034360    7.005654   -0.470135
    157          1           0      -29.228497    5.562459   -1.497602
    158          1           0      -27.775017    6.649451   -1.738045
 ---------------------------------------------------------------------

 SCF Done:  E(RCAM-B3LYP) =  -4069.82820424     A.U. after   18 cycles

 Excitation energies and oscillator strengths:

 Excited State   1:      Singlet-A      1.6973 eV  730.49 nm  f=0.3953  <S**2>=0.000
     310 -> 316       -0.17774
     312 -> 314        0.68637
     310 <- 316       -0.10765
 This state for optimization and/or second-order correction.
 Total Energy, E(TD-HF/TD-DFT) =  -4069.76583062
 Copying the excited state density for this state as the 1-particle RhoCI density.

 Excited State   2:      Singlet-A      1.7356 eV  714.37 nm  f=0.3945  <S**2>=0.000
     309 -> 315       -0.17782
     311 -> 313        0.68648
     309 <- 315       -0.10692

 Excited State   3:      Singlet-A      2.2114 eV  560.66 nm  f=0.1325  <S**2>=0.000
     310 -> 314        0.65060
     312 -> 316        0.26499

 Excited State   4:      Singlet-A      2.2152 eV  559.70 nm  f=0.1563  <S**2>=0.000
     309 -> 313        0.65478
     311 -> 315        0.25746

 Excited State   5:      Singlet-A      3.1064 eV  399.13 nm  f=0.0000  <S**2>=0.000
     312 -> 313        0.70711

 The electronic state is 1-A.
 Alpha  occ. eigenvalues --  -46.88556 -46.87782 -19.23933 -19.23828 -19.20496
 Alpha  occ. eigenvalues --  -19.19908 -19.19507 -19.19095 -19.18934 -19.17920
 Alpha  occ. eigenvalues --  -14.42175 -14.42031 -14.41478 -14.41306 -14.40128
 Alpha  occ. eigenvalues --  -14.39612 -14.38834 -14.38651 -10.38961 -10.38893
 Alpha  occ. eigenvalues --  -10.37253 -10.35253 -10.34756 -10.34125 -10.31348
 Alpha  occ. eigenvalues --  -10.31191 -10.31156 -10.31084 -10.31016 -10.30897
 Alpha  occ. eigenvalues --  -10.30851 -10.30610 -10.30474 -10.30353 -10.30326
 Alpha  occ. eigenvalues --  -10.30174 -10.30091 -10.30089 -10.29869 -10.29364
 Alpha  occ. eigenvalues --  -10.29074 -10.29033 -10.28892 -10.28844 -10.28839
 Alpha  occ. eigenvalues --  -10.28748 -10.28689 -10.28473 -10.28138 -10.28114
 Alpha  occ. eigenvalues --  -10.27976 -10.27968 -10.27735 -10.27653 -10.27647
 Alpha  occ. eigenvalues --  -10.27609 -10.27568 -10.27311 -10.27260 -10.27180
 Alpha  occ. eigenvalues --  -10.27168 -10.27081 -10.26981 -10.26927 -10.26807
 Alpha  occ. eigenvalues --  -10.26780 -10.26765 -10.26753 -10.26737 -10.26725
 Alpha  occ. eigenvalues --  -10.26690 -10.26348 -10.26140 -10.25911 -10.25868
 Alpha  occ. eigenvalues --  -10.25781 -10.25761 -10.25697 -10.25690 -10.25597
 Alpha  occ. eigenvalues --  -10.25584 -10.25549 -10.25535 -10.24692 -10.24538
 Alpha  occ. eigenvalues --  -10.24201  -3.17099  -3.16548  -1.91995  -1.91535
 Alpha  occ. eigenvalues --   -1.91459  -1.91423  -1.90967  -1.90895  -1.15691
 Alpha  occ. eigenvalues --   -1.14517  -1.11353  -1.10776  -1.10502  -1.09594
 Alpha  occ. eigenvalues --   -1.07452  -1.06763  -1.05603  -1.04746  -1.04166
 Alpha  occ. eigenvalues --   -1.03793  -1.03282  -1.03180  -1.02489  -1.01578
 Alpha  occ. eigenvalues --   -0.93000  -0.92150  -0.89226  -0.88916  -0.88599
 Alpha  occ. eigenvalues --   -0.88303  -0.88235  -0.88107  -0.87314  -0.87138
 Alpha  occ. eigenvalues --   -0.87133  -0.86831  -0.86280  -0.86007  -0.84352
 Alpha  occ. eigenvalues --   -0.83880  -0.83683  -0.83177  -0.82780  -0.82584
 Alpha  occ. eigenvalues --   -0.82163  -0.82035  -0.80972  -0.80695  -0.80088
 Alpha  occ. eigenvalues --   -0.80062  -0.78605  -0.78099  -0.77261  -0.76960
 Alpha  occ. eigenvalues --   -0.76682  -0.76628  -0.75878  -0.75529  -0.75089
 Alpha  occ. eigenvalues --   -0.74804  -0.72836  -0.72756  -0.71308  -0.71196
 Alpha  occ. eigenvalues --   -0.69629  -0.69269  -0.68770  -0.68735  -0.67950
 Alpha  occ. eigenvalues --   -0.67707  -0.66942  -0.66634  -0.65072  -0.65030
 Alpha  occ. eigenvalues --   -0.64683  -0.64594  -0.64400  -0.64209  -0.64022
 Alpha  occ. eigenvalues --   -0.63875  -0.61446  -0.61269  -0.60654  -0.60066
 Alpha  occ. eigenvalues --   -0.59606  -0.59459  -0.59147  -0.58805  -0.58317
 Alpha  occ. eigenvalues --   -0.58035  -0.57998  -0.57828  -0.57638  -0.56859
 Alpha  occ. eigenvalues --   -0.56115  -0.55819  -0.55755  -0.55690  -0.55458
 Alpha  occ. eigenvalues --   -0.54987  -0.54806  -0.54450  -0.54266  -0.54116
 Alpha  occ. eigenvalues --   -0.54009  -0.53708  -0.53645  -0.53376  -0.53014
 Alpha  occ. eigenvalues --   -0.52678  -0.52644  -0.52364  -0.52353  -0.52154
 Alpha  occ. eigenvalues --   -0.51934  -0.51817  -0.51607  -0.51323  -0.51228
 Alpha  occ. eigenvalues --   -0.50981  -0.50742  -0.50712  -0.50527  -0.50364
 Alpha  occ. eigenvalues --   -0.50175  -0.49909  -0.49786  -0.49660  -0.49522
 Alpha  occ. eigenvalues --   -0.49469  -0.49253  -0.49140  -0.49025  -0.48826
 Alpha  occ. eigenvalues --   -0.48814  -0.48563  -0.48516  -0.48392  -0.47954
 Alpha  occ. eigenvalues --   -0.47798  -0.47774  -0.47734  -0.47396  -0.47039
 Alpha  occ. eigenvalues --   -0.46895  -0.46741  -0.46473  -0.46324  -0.46309
 Alpha  occ. eigenvalues --   -0.46040  -0.45878  -0.45804  -0.45730  -0.45590
 Alpha  occ. eigenvalues --   -0.45432  -0.45286  -0.45161  -0.45026  -0.44963
 Alpha  occ. eigenvalues --   -0.44830  -0.44703  -0.44662  -0.44343  -0.44027
 Alpha  occ. eigenvalues --   -0.43965  -0.43963  -0.43798  -0.43462  -0.43462
 Alpha  occ. eigenvalues --   -0.43338  -0.43241  -0.43170  -0.42995  -0.42744
 Alpha  occ. eigenvalues --   -0.42535  -0.42496  -0.42085  -0.42057  -0.41812
 Alpha  occ. eigenvalues --   -0.41801  -0.41605  -0.41425  -0.41102  -0.41045
 Alpha  occ. eigenvalues --   -0.40990  -0.40933  -0.40762  -0.40542  -0.40459
 Alpha  occ. eigenvalues --   -0.40235  -0.39991  -0.39326  -0.39203  -0.38774
 Alpha  occ. eigenvalues --   -0.38211  -0.38087  -0.38074  -0.37739  -0.37583
 Alpha  occ. eigenvalues --   -0.36995  -0.36640  -0.36527  -0.36328  -0.36167
 Alpha  occ. eigenvalues --   -0.35719  -0.35643  -0.34624  -0.34457  -0.33955
 Alpha  occ. eigenvalues --   -0.33923  -0.33269  -0.32577  -0.32211  -0.31298
 Alpha  occ. eigenvalues --   -0.31170  -0.30817  -0.30554  -0.30523  -0.30199
 Alpha  occ. eigenvalues --   -0.30095  -0.29726  -0.29578  -0.23913  -0.23574
 Alpha  occ. eigenvalues --   -0.21409  -0.20946
 Alpha virt. eigenvalues --   -0.08853  -0.08519  -0.01272  -0.01115  -0.00034
 Alpha virt. eigenvalues --    0.00895   0.02457   0.02481   0.02690   0.03486
 Alpha virt. eigenvalues --    0.04777   0.04960   0.05308   0.05866   0.06118

 Mulliken charges:
               1
     1  Mg   0.842554
     2  C   -0.021643
     3  C   -0.078610
     4  C   -0.075127
     5  C   -0.111266
     6  N   -0.243023
     7  C   -0.062033
     8  C   -0.047412
     9  C   -0.052415
    10  C    0.015685
    11  C    0.105869
    12  C    0.057326
    13  C   -0.053898
    14  H    0.023551
    15  N   -0.393558
    16  C    0.179585
    17  C   -0.141567
    18  C   -0.075169
    19  C    0.104618
    20  C    0.096178
    21  C    0.057913
    22  O   -0.196819
    23  C    0.033350
    24  N   -0.301822
    25  C    0.062670
    26  C   -0.047751
    27  C    0.014868
    28  C    0.029765
    29  C    0.068825
    30  C    0.044635
    31  C    0.006247
    32  N   -0.283340
    33  C    0.112467
    34  C   -0.165605
    35  C    0.022714
    36  C    0.067188
    37  C    0.123693
    38  C    0.018821
    39  O   -0.167220
    40  C    0.053335
    41  C    0.179846
    42  O   -0.224408
    43  O   -0.371068
    44  C    0.187049
    45  H   -0.022520
    46  H   -0.009358
    47  H   -0.032028
    48  H   -0.002141
    49  H   -0.022976
    50  H    0.012566
    51  H    0.048801
    52  H    0.014407
    53  H    0.011131
    54  H    0.016549
    55  H    0.022753
    56  H    0.030181
    57  H    0.017736
    58  H    0.042051
    59  H    0.008715
    60  H    0.038368
    61  H    0.029195
    62  H    0.060251
    63  H    0.009251
    64  H    0.004397
    65  H    0.017341
    66  H    0.022866
    67  H    0.019441
    68  H    0.008885
    69  H    0.003215
    70  H   -0.003654
    71  H    0.027804
    72  H    0.017094
    73  H   -0.005937
    74  H    0.043963
    75  H    0.023726
    76  H    0.037109
    77  H    0.045001
    78  H    0.038806
    79  H    0.032013
    80  Mg   0.840113
    81  C   -0.023598
    82  C   -0.059903
    83  C   -0.059505
    84  C   -0.088229
    85  N   -0.312884
    86  C   -0.052865
    87  C    0.013299
    88  C   -0.070177
    89  C    0.084873
    90  C    0.032878
    91  C    0.022264
    92  C   -0.067093
    93  H    0.013104
    94  N   -0.403463
    95  C    0.093531
    96  C   -0.114438
    97  C   -0.089674
    98  C    0.139410
    99  C    0.129797
   100  C   -0.007902
   101  O   -0.175144
   102  C    0.037073
   103  N   -0.268504
   104  C    0.008210
   105  C    0.022469
   106  C   -0.064394
   107  C   -0.003241
   108  C    0.067818
   109  C    0.012967
   110  C    0.024887
   111  N   -0.316143
   112  C    0.150937
   113  C   -0.226498
   114  C    0.063297
   115  C    0.099540
   116  C    0.138220
   117  C    0.034474
   118  O   -0.135690
   119  C   -0.039691
   120  C    0.217465
   121  O   -0.203429
   122  O   -0.356817
   123  C    0.167141
   124  H   -0.052231
   125  H   -0.001832
   126  H   -0.022102
   127  H    0.024651
   128  H    0.022145
   129  H    0.009515
   130  H    0.028678
   131  H    0.021726
   132  H    0.009455
   133  H    0.037186
   134  H    0.040119
   135  H    0.040357
   136  H    0.035132
   137  H    0.015714
   138  H    0.025393
   139  H    0.055359
   140  H    0.027312
   141  H    0.014928
   142  H    0.011976
   143  H    0.007774
   144  H    0.012396
   145  H    0.017597
   146  H    0.029868
   147  H    0.004780
   148  H    0.008097
   149  H    0.011330
   150  H    0.020293
   151  H    0.015887
   152  H    0.034529
   153  H    0.007381
   154  H    0.021755
   155  H    0.051820
   156  H    0.045611
   157  H    0.055965
   158  H    0.036946
 Sum of Mulliken charges =  -0.00000

 Dipole moment (field-independent basis, Debye):
    X=              6.4385    Y=             -1.0930    Z=             -6.3201  Tot=              9.0880
 Quadrupole moment (field-independent basis, Debye-Ang):
   XX=           -491.8234   YY=           -515.4402   ZZ=           -476.8931
   XY=             13.4650   XZ=            -64.8772   YZ=            -46.1706

 Normal termination of Gaussian 16 at Thu Sep 16 14:16:57 2021.
