 Gaussian 16, Revision A.03,
 Gaussian 16:  ES64L-G16RevA.03 25-Dec-2016

 -----------------------------------
 #p cam-b3lyp/Def2SVP td=(nstates=5)
 -----------------------------------

 --------------------------------
 TDDFT excited states in gaussian
 --------------------------------
 Symbolic Z-matrix:
 Charge =  0 Multiplicity = 1

                         Standard orientation:
 ---------------------------------------------------------------------
 Center     Atomic      Atomic             Coordinates (Angstroms)
 Number     Number       Type             X           Y           Z
 ---------------------------------------------------------------------
      1         12           0      -20.894414   -0.652455   -0.280614
      2          6           0      -19.019737    2.350742    0.284507
      3          6           0      -23.765882    1.187594    0.229709
      4          6           0      -22.512565   -3.489019   -0.177180
      5          6           0      -17.858601   -2.304296   -0.536918
      6          7           0      -21.335667    1.535889    0.495103
      7          6           0      -20.390748    2.525812    0.512354
      8          6           0      -21.091426    3.908855    0.587460
      9          6           0      -22.633735    3.541995    0.632266
     10          6           0      -22.637693    1.978675    0.464994
     11          6           0      -23.457613    3.956530    1.923227
     12          6           0      -20.770211    4.876394   -0.582796
     13          6           0      -20.470074    6.294180   -0.248348
     14          1           0      -20.868200    6.968759    1.119726
     15          7           0      -22.918743   -1.138853    0.004008
     16          6           0      -23.993515   -0.252191    0.064802
     17          6           0      -25.238294   -1.024908    0.239526
     18          6           0      -24.872067   -2.405341    0.002255
     19          6           0      -23.391968   -2.399537   -0.058974
     20          6           0      -26.597592   -0.457434    0.516111
     21          6           0      -25.740840   -3.678566   -0.128026
     22          8           0      -25.359710   -4.757221   -0.629561
     23          6           0      -27.172828   -3.561962    0.209446
     24          7           0      -20.262056   -2.546455   -0.287395
     25          6           0      -21.176288   -3.569618   -0.164634
     26          6           0      -20.516146   -4.948337   -0.443525
     27          6           0      -19.068812   -4.492431   -0.927539
     28          6           0      -19.047976   -3.013411   -0.582583
     29          6           0      -20.485773   -6.013897    0.726915
     30          6           0      -18.727059   -4.715996   -2.392144
     31          6           0      -17.598894   -5.732307   -2.666777
     32          7           0      -18.853726   -0.105070   -0.350011
     33          6           0      -17.733714   -0.898410   -0.429527
     34          6           0      -16.524612   -0.073385   -0.308372
     35          6           0      -17.011204    1.202944   -0.087949
     36          6           0      -18.422298    1.141352   -0.118240
     37          6           0      -15.091701   -0.492539   -0.328008
     38          6           0      -16.567558    2.536404    0.106391
     39          8           0      -15.419652    3.063460    0.061149
     40          6           0      -17.791470    3.312273    0.353040
     41          6           0      -17.661695    4.093230    1.632753
     42          8           0      -17.663080    3.629930    2.721783
     43          8           0      -17.614667    5.398121    1.365329
     44          6           0      -17.187453    6.304515    2.376487
     45          1           0      -24.722092    1.690458    0.389604
     46          1           0      -22.919146   -4.502978   -0.205358
     47          1           0      -16.910450   -2.844500   -0.540805
     48          1           0      -20.757620    4.359738    1.522742
     49          1           0      -23.142273    3.972496   -0.229857
     50          1           0      -22.931470    4.603069    2.624995
     51          1           0      -23.647587    3.038063    2.480500
     52          1           0      -24.415638    4.393324    1.639643
     53          1           0      -21.587079    4.958672   -1.300726
     54          1           0      -19.894427    4.570350   -1.154296
     55          1           0      -20.986263    6.953306   -0.947005
     56          1           0      -19.396222    6.433155   -0.370257
     57          1           0      -27.010440   -0.926970    1.408703
     58          1           0      -27.218590   -0.723599   -0.339241
     59          1           0      -26.590608    0.632697    0.488982
     60          1           0      -27.240085   -3.310669    1.267995
     61          1           0      -27.577672   -4.567117    0.094214
     62          1           0      -27.709442   -2.925169   -0.493336
     63          1           0      -21.051940   -5.355805   -1.301438
     64          1           0      -18.349121   -5.051411   -0.329552
     65          1           0      -20.970976   -5.609422    1.614495
     66          1           0      -19.488330   -6.411036    0.919160
     67          1           0      -21.030940   -6.890011    0.375385
     68          1           0      -18.571807   -3.824217   -2.999538
     69          1           0      -19.609331   -5.159461   -2.852500
     70          1           0      -16.856081   -5.456189   -3.414901
     71          1           0      -18.059745   -6.573332   -3.185542
     72          1           0      -17.027250   -6.045711   -1.794264
     73          1           0      -14.950703   -1.484397   -0.758428
     74          1           0      -14.733795   -0.645099    0.690088
     75          1           0      -14.534591    0.336759   -0.763714
     76          1           0      -17.883032    3.996814   -0.489831
     77          1           0      -16.107664    6.175278    2.462771
     78          1           0      -17.577173    6.012834    3.351865
     79          1           0      -17.372255    7.338196    2.082959
     80         12           0       20.390708   -0.796345    0.329073
     81          6           0       19.436565    2.197701   -1.292732
     82          6           0       21.778857    1.106736    2.815115
     83          6           0       21.834789   -3.540209    1.492542
     84          6           0       19.355407   -2.552028   -2.516482
     85          7           0       20.724856    1.414131    0.629561
     86          6           0       20.133557    2.428109   -0.128697
     87          6           0       20.230013    3.776252    0.627246
     88          6           0       21.008061    3.398011    1.940263
     89          6           0       21.174046    1.855451    1.853998
     90          6           0       22.224790    4.236541    2.290896
     91          6           0       18.905311    4.504497    0.903056
     92          6           0       18.868484    5.966002    0.377954
     93          1           0       18.546154    7.021006    1.412867
     94          7           0       21.570975   -1.151758    1.997866
     95          6           0       22.079083   -0.259455    2.895664
     96          6           0       22.703392   -1.012815    3.957017
     97          6           0       22.858705   -2.392063    3.502927
     98          6           0       22.083411   -2.364577    2.272156
     99          6           0       23.373280   -0.305286    5.245886
    100          6           0       23.770420   -3.463782    3.921758
    101          8           0       23.827253   -4.581428    3.494100
    102          6           0       24.766291   -3.099996    5.018991
    103          7           0       20.737016   -2.743538   -0.542733
    104          6           0       21.313149   -3.717261    0.188795
    105          6           0       21.112696   -5.082388   -0.473450
    106          6           0       20.034381   -4.792384   -1.529795
    107          6           0       19.986817   -3.280728   -1.529503
    108          6           0       22.469057   -5.620335   -1.123471
    109          6           0       18.632366   -5.395215   -1.007801
    110          6           0       17.961525   -4.625028    0.162246
    111          7           0       19.447118   -0.380537   -1.519378
    112          6           0       19.092914   -1.186373   -2.533464
    113          6           0       18.481367   -0.379544   -3.555015
    114          6           0       18.551026    0.920984   -3.091978
    115          6           0       19.210901    0.908176   -1.860073
    116          6           0       17.897359   -0.804330   -4.888909
    117          6           0       18.229485    2.286690   -3.514777
    118          8           0       17.813645    2.851329   -4.487004
    119          6           0       18.716736    3.167839   -2.334287
    120          6           0       19.700732    4.110784   -2.921631
    121          8           0       20.650770    3.717353   -3.550593
    122          8           0       19.362146    5.443025   -2.747220
    123          6           0       20.136459    6.439385   -3.560516
    124          1           0       22.027931    1.707157    3.692699
    125          1           0       22.187791   -4.494601    1.889733
    126          1           0       18.816965   -3.029317   -3.337938
    127          1           0       20.899272    4.437066    0.075929
    128          1           0       20.366228    3.636084    2.788705
    129          1           0       22.567290    4.812028    1.432163
    130          1           0       23.055744    3.657709    2.694885
    131          1           0       21.876817    4.975257    3.012476
    132          1           0       18.599508    4.635393    1.941073
    133          1           0       18.069370    3.965616    0.457638
    134          1           0       18.247374    6.054707   -0.513307
    135          1           0       19.875977    6.220845    0.051619
    136          1           0       23.022201   -0.831510    6.133472
    137          1           0       23.104798    0.736277    5.418330
    138          1           0       24.458983   -0.220499    5.291763
    139          1           0       24.125277   -2.853872    5.865852
    140          1           0       25.297933   -2.231182    4.632181
    141          1           0       25.413791   -3.917839    5.336701
    142          1           0       20.694344   -5.834626    0.196138
    143          1           0       20.190113   -5.080302   -2.569720
    144          1           0       22.419220   -6.709254   -1.099681
    145          1           0       23.415479   -5.356928   -0.650027
    146          1           0       22.421127   -5.273224   -2.155497
    147          1           0       18.703022   -6.445920   -0.727187
    148          1           0       17.870075   -5.257829   -1.774827
    149          1           0       17.111154   -5.124600    0.625145
    150          1           0       17.597985   -3.677818   -0.236490
    151          1           0       18.733709   -4.419571    0.904327
    152          1           0       17.038986   -1.471304   -4.811925
    153          1           0       18.715250   -1.345584   -5.363794
    154          1           0       17.680869    0.040936   -5.542152
    155          1           0       17.818505    3.713262   -2.045364
    156          1           0       20.312367    7.183446   -2.783645
    157          1           0       19.550230    6.881192   -4.366059
    158          1           0       21.070322    6.149674   -4.041605
 ---------------------------------------------------------------------

 SCF Done:  E(RCAM-B3LYP) =  -4069.81680974     A.U. after   19 cycles

 Excitation energies and oscillator strengths:

 Excited State   1:      Singlet-A      1.7036 eV  727.76 nm  f=0.4157  <S**2>=0.000
     309 -> 316       -0.17544
     311 -> 313        0.68685
     309 <- 316       -0.10756
 This state for optimization and/or second-order correction.
 Total Energy, E(TD-HF/TD-DFT) =  -4069.75420185
 Copying the excited state density for this state as the 1-particle RhoCI density.

 Excited State   2:      Singlet-A      1.7200 eV  720.84 nm  f=0.4101  <S**2>=0.000
     310 -> 315        0.17627
     312 -> 314        0.68657
     310 <- 315        0.10592

 Excited State   3:      Singlet-A      2.1918 eV  565.68 nm  f=0.1366  <S**2>=0.000
     309 -> 313        0.65682
     311 -> 316        0.24835

 Excited State   4:      Singlet-A      2.2103 eV  560.94 nm  f=0.1311  <S**2>=0.000
     310 -> 314        0.65013
     312 -> 315       -0.26632

 Excited State   5:      Singlet-A      3.0811 eV  402.40 nm  f=0.0000  <S**2>=0.000
     312 -> 313        0.70710

 The electronic state is 1-A.
 Alpha  occ. eigenvalues --  -46.89544 -46.88923 -19.25143 -19.25012 -19.19665
 Alpha  occ. eigenvalues --  -19.19606 -19.19279 -19.19037 -19.18559 -19.18401
 Alpha  occ. eigenvalues --  -14.42112 -14.42068 -14.41923 -14.41631 -14.39773
 Alpha  occ. eigenvalues --  -14.39708 -14.39570 -14.39231 -10.39059 -10.38794
 Alpha  occ. eigenvalues --  -10.35155 -10.34971 -10.34720 -10.34377 -10.31807
 Alpha  occ. eigenvalues --  -10.31712 -10.31528 -10.31517 -10.31040 -10.30967
 Alpha  occ. eigenvalues --  -10.30776 -10.30760 -10.30756 -10.30561 -10.30241
 Alpha  occ. eigenvalues --  -10.30170 -10.29963 -10.29711 -10.29629 -10.29561
 Alpha  occ. eigenvalues --  -10.29354 -10.29308 -10.29162 -10.28769 -10.28762
 Alpha  occ. eigenvalues --  -10.28677 -10.28394 -10.28380 -10.28277 -10.28208
 Alpha  occ. eigenvalues --  -10.28187 -10.28109 -10.28031 -10.28025 -10.27999
 Alpha  occ. eigenvalues --  -10.27893 -10.27766 -10.27577 -10.27527 -10.27509
 Alpha  occ. eigenvalues --  -10.27395 -10.27199 -10.27066 -10.27031 -10.27008
 Alpha  occ. eigenvalues --  -10.26989 -10.26777 -10.26743 -10.26648 -10.26554
 Alpha  occ. eigenvalues --  -10.26509 -10.26483 -10.26274 -10.26218 -10.26174
 Alpha  occ. eigenvalues --  -10.25966 -10.25956 -10.25927 -10.25907 -10.25610
 Alpha  occ. eigenvalues --  -10.25592 -10.25460 -10.25204 -10.25195 -10.25065
 Alpha  occ. eigenvalues --  -10.25043  -3.17947  -3.17500  -1.92830  -1.92416
 Alpha  occ. eigenvalues --   -1.92383  -1.92241  -1.91970  -1.91800  -1.18631
 Alpha  occ. eigenvalues --   -1.15689  -1.11670  -1.11070  -1.09721  -1.08319
 Alpha  occ. eigenvalues --   -1.08095  -1.07622  -1.05188  -1.04844  -1.04291
 Alpha  occ. eigenvalues --   -1.03835  -1.03783  -1.02543  -1.01999  -1.01797
 Alpha  occ. eigenvalues --   -0.93584  -0.92361  -0.89141  -0.88880  -0.88812
 Alpha  occ. eigenvalues --   -0.88556  -0.88384  -0.88220  -0.87752  -0.87743
 Alpha  occ. eigenvalues --   -0.86894  -0.86545  -0.86332  -0.86299  -0.84567
 Alpha  occ. eigenvalues --   -0.84412  -0.83539  -0.83499  -0.82636  -0.82508
 Alpha  occ. eigenvalues --   -0.82072  -0.81729  -0.81212  -0.80865  -0.80520
 Alpha  occ. eigenvalues --   -0.80168  -0.78380  -0.78315  -0.77724  -0.77423
 Alpha  occ. eigenvalues --   -0.77171  -0.76764  -0.76371  -0.76166  -0.75225
 Alpha  occ. eigenvalues --   -0.75213  -0.73188  -0.73105  -0.71766  -0.71505
 Alpha  occ. eigenvalues --   -0.69414  -0.69369  -0.69199  -0.68987  -0.68078
 Alpha  occ. eigenvalues --   -0.67505  -0.67301  -0.66265  -0.65934  -0.65485
 Alpha  occ. eigenvalues --   -0.65323  -0.65158  -0.64930  -0.64862  -0.64486
 Alpha  occ. eigenvalues --   -0.64442  -0.63044  -0.62280  -0.60414  -0.60346
 Alpha  occ. eigenvalues --   -0.59876  -0.59720  -0.59349  -0.59286  -0.59152
 Alpha  occ. eigenvalues --   -0.58753  -0.58224  -0.58126  -0.57769  -0.57538
 Alpha  occ. eigenvalues --   -0.56506  -0.56123  -0.55988  -0.55370  -0.55225
 Alpha  occ. eigenvalues --   -0.55190  -0.54928  -0.54579  -0.54198  -0.53767
 Alpha  occ. eigenvalues --   -0.53441  -0.53427  -0.53263  -0.53030  -0.52944
 Alpha  occ. eigenvalues --   -0.52808  -0.52673  -0.52441  -0.52418  -0.52129
 Alpha  occ. eigenvalues --   -0.51887  -0.51665  -0.51594  -0.51500  -0.51495
 Alpha  occ. eigenvalues --   -0.51262  -0.51129  -0.50764  -0.50092  -0.50049
 Alpha  occ. eigenvalues --   -0.50032  -0.49895  -0.49800  -0.49508  -0.49384
 Alpha  occ. eigenvalues --   -0.49321  -0.49267  -0.49101  -0.49036  -0.48766
 Alpha  occ. eigenvalues --   -0.48591  -0.48408  -0.48345  -0.48290  -0.48249
 Alpha  occ. eigenvalues --   -0.47941  -0.47721  -0.47577  -0.47472  -0.47428
 Alpha  occ. eigenvalues --   -0.47009  -0.46924  -0.46791  -0.46432  -0.46225
 Alpha  occ. eigenvalues --   -0.46133  -0.46126  -0.46100  -0.46064  -0.45898
 Alpha  occ. eigenvalues --   -0.45818  -0.45596  -0.45309  -0.45295  -0.45104
 Alpha  occ. eigenvalues --   -0.44799  -0.44553  -0.44519  -0.44461  -0.44056
 Alpha  occ. eigenvalues --   -0.43687  -0.43655  -0.43454  -0.43387  -0.43332
 Alpha  occ. eigenvalues --   -0.43056  -0.43045  -0.42900  -0.42698  -0.42621
 Alpha  occ. eigenvalues --   -0.42438  -0.42311  -0.42164  -0.42073  -0.41988
 Alpha  occ. eigenvalues --   -0.41871  -0.41640  -0.41464  -0.41444  -0.41369
 Alpha  occ. eigenvalues --   -0.41184  -0.40978  -0.40923  -0.40317  -0.40281
 Alpha  occ. eigenvalues --   -0.40095  -0.39734  -0.39696  -0.39134  -0.39084
 Alpha  occ. eigenvalues --   -0.38327  -0.38198  -0.38066  -0.37923  -0.37839
 Alpha  occ. eigenvalues --   -0.37024  -0.36960  -0.36541  -0.36364  -0.36275
 Alpha  occ. eigenvalues --   -0.36235  -0.35862  -0.34692  -0.34404  -0.34138
 Alpha  occ. eigenvalues --   -0.34083  -0.33398  -0.32918  -0.31618  -0.31609
 Alpha  occ. eigenvalues --   -0.31453  -0.31221  -0.30773  -0.30611  -0.30392
 Alpha  occ. eigenvalues --   -0.30303  -0.30152  -0.29494  -0.24178  -0.24126
 Alpha  occ. eigenvalues --   -0.21582  -0.21318
 Alpha virt. eigenvalues --   -0.09173  -0.08949  -0.01484  -0.01430  -0.00201
 Alpha virt. eigenvalues --    0.00557   0.01686   0.01917   0.02351   0.02510
 Alpha virt. eigenvalues --    0.05262   0.05308   0.05671   0.06105   0.06269

 Mulliken charges:
               1
     1  Mg   0.831102
     2  C   -0.003480
     3  C   -0.022625
     4  C   -0.061402
     5  C   -0.094176
     6  N   -0.252759
     7  C   -0.054199
     8  C    0.021061
     9  C   -0.061047
    10  C    0.018216
    11  C    0.057387
    12  C    0.048937
    13  C   -0.081522
    14  H    0.000628
    15  N   -0.364184
    16  C    0.090950
    17  C   -0.170516
    18  C   -0.041465
    19  C    0.129265
    20  C    0.140603
    21  C    0.009631
    22  O   -0.229735
    23  C    0.054905
    24  N   -0.351638
    25  C    0.076913
    26  C   -0.074933
    27  C   -0.035817
    28  C    0.084590
    29  C    0.075267
    30  C    0.058345
    31  C   -0.010531
    32  N   -0.321555
    33  C    0.100477
    34  C   -0.161321
    35  C   -0.007608
    36  C    0.104562
    37  C    0.130297
    38  C    0.044986
    39  O   -0.216249
    40  C    0.039321
    41  C    0.154822
    42  O   -0.173661
    43  O   -0.300076
    44  C    0.179706
    45  H   -0.038450
    46  H   -0.005595
    47  H   -0.029201
    48  H    0.021591
    49  H    0.016323
    50  H    0.019317
    51  H    0.019353
    52  H    0.018328
    53  H    0.008920
    54  H    0.007782
    55  H    0.022226
    56  H    0.037187
    57  H    0.036384
    58  H    0.019944
    59  H    0.011635
    60  H    0.032298
    61  H    0.020476
    62  H    0.045036
    63  H    0.021390
    64  H    0.000772
    65  H    0.029698
    66  H    0.014082
    67  H    0.016457
    68  H    0.016419
    69  H   -0.002370
    70  H    0.007285
    71  H    0.010581
    72  H    0.017240
    73  H    0.008810
    74  H    0.034136
    75  H    0.049484
    76  H    0.040270
    77  H    0.029054
    78  H    0.038736
    79  H    0.042928
    80  Mg   0.813058
    81  C   -0.023670
    82  C   -0.077247
    83  C   -0.062008
    84  C   -0.064342
    85  N   -0.302489
    86  C   -0.035084
    87  C    0.006874
    88  C   -0.058621
    89  C    0.050776
    90  C    0.068875
    91  C    0.056709
    92  C   -0.088708
    93  H    0.008364
    94  N   -0.363086
    95  C    0.161201
    96  C   -0.116989
    97  C   -0.041647
    98  C    0.130637
    99  C    0.062502
   100  C   -0.022266
   101  O   -0.176347
   102  C    0.054560
   103  N   -0.263224
   104  C    0.030058
   105  C   -0.035230
   106  C   -0.014415
   107  C    0.032486
   108  C    0.066529
   109  C    0.004387
   110  C   -0.014676
   111  N   -0.320750
   112  C    0.065153
   113  C   -0.162599
   114  C   -0.035081
   115  C    0.140060
   116  C    0.116971
   117  C    0.069112
   118  O   -0.136681
   119  C    0.003831
   120  C    0.181212
   121  O   -0.201526
   122  O   -0.351205
   123  C    0.165221
   124  H   -0.034088
   125  H   -0.000982
   126  H   -0.031191
   127  H    0.018630
   128  H    0.008135
   129  H    0.008565
   130  H    0.022434
   131  H    0.009363
   132  H    0.019167
   133  H    0.009157
   134  H    0.046128
   135  H    0.015626
   136  H    0.027189
   137  H    0.003889
   138  H    0.033279
   139  H    0.021870
   140  H    0.036826
   141  H    0.022611
   142  H    0.016581
   143  H    0.012825
   144  H    0.017340
   145  H    0.035550
   146  H    0.016219
   147  H    0.020192
   148  H    0.002075
   149  H    0.023685
   150  H    0.021720
   151  H    0.021066
   152  H    0.029142
   153  H    0.019735
   154  H    0.036356
   155  H    0.033864
   156  H    0.035897
   157  H    0.044054
   158  H    0.056407
 Sum of Mulliken charges =  -0.00000

 Dipole moment (field-independent basis, Debye):
    X=             -3.2386    Y=              1.3762    Z=              1.5995  Tot=              3.8654
 Quadrupole moment (field-independent basis, Debye-Ang):
   XX=           -466.0871   YY=           -486.0929   ZZ=           -517.1223
   XY=            -18.4151   XZ=             84.2944   YZ=             21.5021

 Normal termination of Gaussian 16 at Thu Sep  2 18:34:46 2021.
