 Gaussian 16, Revision A.03,
 Gaussian 16:  ES64L-G16RevA.03 25-Dec-2016

 -----------------------------------
 #p cam-b3lyp/Def2SVP td=(nstates=5)
 -----------------------------------

 --------------------------------
 TDDFT excited states in gaussian
 --------------------------------
 Symbolic Z-matrix:
 Charge =  0 Multiplicity = 1

                         Standard orientation:
 ---------------------------------------------------------------------
 Center     Atomic      Atomic             Coordinates (Angstroms)
 Number     Number       Type             X           Y           Z
 ---------------------------------------------------------------------
      1         12           0      -28.551092    0.214580    0.358342
      2          6           0      -26.801716   -1.982070   -1.531401
      3          6           0      -28.110943    2.656384   -2.072421
      4          6           0      -30.295561    2.413253    2.251523
      5          6           0      -28.567857   -2.049286    2.977058
      6          7           0      -27.674984    0.223697   -1.556313
      7          6           0      -26.968044   -0.764252   -2.160945
      8          6           0      -26.635300   -0.439645   -3.593883
      9          6           0      -26.810751    1.125191   -3.657261
     10          6           0      -27.620891    1.350391   -2.338656
     11          6           0      -25.547842    2.066609   -3.840438
     12          6           0      -27.643278   -1.144041   -4.609542
     13          6           0      -27.024144   -1.339492   -6.024925
     14          1           0      -25.924033   -0.410755   -6.565618
     15          7           0      -29.084577    2.306518    0.192305
     16          6           0      -28.791605    3.112990   -0.938608
     17          6           0      -29.337249    4.422449   -0.743966
     18          6           0      -29.981775    4.391046    0.543882
     19          6           0      -29.801221    2.974935    1.025480
     20          6           0      -29.297486    5.516547   -1.752479
     21          6           0      -30.725334    5.500263    1.279504
     22          8           0      -31.168807    5.432702    2.463374
     23          6           0      -30.961754    6.828528    0.580920
     24          7           0      -29.261371    0.223874    2.341903
     25          6           0      -30.133663    1.185530    2.854249
     26          6           0      -30.880014    0.758774    4.151210
     27          6           0      -30.286916   -0.753000    4.294572
     28          6           0      -29.348423   -0.907745    3.154404
     29          6           0      -30.485706    1.706938    5.290924
     30          6           0      -31.334980   -1.822581    4.386683
     31          6           0      -31.209138   -2.680887    5.612829
     32          7           0      -27.799437   -1.539529    0.792510
     33          6           0      -27.880978   -2.404623    1.876591
     34          6           0      -27.170470   -3.598515    1.603191
     35          6           0      -26.665137   -3.501550    0.278847
     36          6           0      -27.156641   -2.279038   -0.225557
     37          6           0      -26.984236   -4.791384    2.460101
     38          6           0      -25.808269   -4.123373   -0.706824
     39          8           0      -25.122006   -5.126053   -0.740531
     40          6           0      -25.954822   -3.137454   -1.961023
     41          6           0      -24.667924   -2.937751   -2.677407
     42          8           0      -23.588255   -2.748966   -2.177918
     43          8           0      -24.784091   -3.022473   -4.011774
     44          6           0      -23.509902   -2.811006   -4.755909
     45          1           0      -27.768901    3.387572   -2.808001
     46          1           0      -30.738076    3.169754    2.902809
     47          1           0      -28.623074   -2.859566    3.706924
     48          1           0      -25.581772   -0.598908   -3.823081
     49          1           0      -27.515219    1.356684   -4.455513
     50          1           0      -24.685316    1.420575   -4.004529
     51          1           0      -25.318600    2.766948   -3.038837
     52          1           0      -25.759382    2.702247   -4.700482
     53          1           0      -28.520488   -0.496817   -4.606075
     54          1           0      -27.898710   -2.115661   -4.186505
     55          1           0      -27.902445   -1.284635   -6.668365
     56          1           0      -26.719049   -2.384186   -6.079107
     57          1           0      -30.062027    5.475021   -2.528335
     58          1           0      -28.293359    5.481442   -2.173223
     59          1           0      -29.255642    6.509792   -1.306460
     60          1           0      -30.046370    7.403791    0.718813
     61          1           0      -31.770826    7.297137    1.140657
     62          1           0      -31.167407    6.739491   -0.485941
     63          1           0      -31.941452    0.896611    3.944829
     64          1           0      -29.713852   -0.810695    5.220590
     65          1           0      -29.675564    2.403110    5.072856
     66          1           0      -30.335844    1.122980    6.198709
     67          1           0      -31.345810    2.359967    5.441629
     68          1           0      -31.289744   -2.540994    3.568081
     69          1           0      -32.361746   -1.457733    4.356732
     70          1           0      -32.150369   -2.803826    6.147854
     71          1           0      -30.497833   -2.258417    6.322026
     72          1           0      -30.748091   -3.598790    5.246967
     73          1           0      -26.958019   -4.609867    3.534974
     74          1           0      -25.935645   -5.045958    2.303316
     75          1           0      -27.720444   -5.553230    2.203577
     76          1           0      -26.566657   -3.802483   -2.571219
     77          1           0      -22.866708   -3.691669   -4.726632
     78          1           0      -23.021469   -1.878802   -4.471636
     79          1           0      -23.753619   -2.664038   -5.808384
     80         12           0       28.568442    0.543969   -0.374090
     81          6           0       26.432040   -2.246291   -0.353145
     82          6           0       25.816122    2.556357   -0.818137
     83          6           0       30.524446    3.105415    0.373300
     84          6           0       31.289565   -1.623099    0.345042
     85          7           0       26.386289    0.207389   -0.306090
     86          6           0       25.706550   -1.037976   -0.294836
     87          6           0       24.294718   -0.922752   -0.699163
     88          6           0       24.141705    0.640537   -0.943126
     89          6           0       25.542687    1.184585   -0.712169
     90          6           0       23.475200    0.967621   -2.301362
     91          6           0       23.306613   -1.308332    0.359091
     92          6           0       23.661429   -0.933528    1.805738
     93          1           0       22.550327   -0.498112    2.838721
     94          7           0       28.255695    2.595288   -0.265937
     95          6           0       27.098379    3.195357   -0.603869
     96          6           0       27.307249    4.621654   -0.600327
     97          6           0       28.683833    4.820384   -0.330936
     98          6           0       29.248137    3.483682   -0.084276
     99          6           0       26.247780    5.669919   -0.809926
    100          6           0       29.400405    6.170059   -0.300818
    101          8           0       28.797014    7.205054   -0.506170
    102          6           0       30.827604    6.436280    0.076490
    103          7           0       30.526049    0.720208    0.510083
    104          6           0       31.151970    1.926740    0.676991
    105          6           0       32.684411    1.746278    0.933024
    106          6           0       32.788535    0.217039    1.216261
    107          6           0       31.474142   -0.267822    0.644874
    108          6           0       33.607730    2.150652   -0.241572
    109          6           0       32.742552   -0.217901    2.756755
    110          6           0       33.755205   -1.208646    3.204643
    111          7           0       28.880593   -1.443518   -0.166482
    112          6           0       30.022909   -2.137697   -0.074582
    113          6           0       29.786900   -3.578930   -0.464488
    114          6           0       28.365359   -3.612181   -0.627463
    115          6           0       27.850538   -2.327797   -0.292813
    116          6           0       30.762892   -4.737924   -0.607453
    117          6           0       27.270431   -4.517768   -0.824324
    118          8           0       27.259106   -5.727023   -0.992010
    119          6           0       25.961577   -3.640749   -0.681401
    120          6           0       25.243650   -4.120372    0.563051
    121          8           0       25.590555   -4.002409    1.691648
    122          8           0       24.025552   -4.637349    0.176143
    123          6           0       23.105261   -4.876019    1.292577
    124          1           0       24.974501    3.165341   -1.154128
    125          1           0       31.227958    3.936074    0.450480
    126          1           0       32.197787   -2.222731    0.434501
    127          1           0       24.150319   -1.554982   -1.575247
    128          1           0       23.614371    1.196498   -0.167998
    129          1           0       22.725256    1.691489   -1.981961
    130          1           0       23.060190    0.035019   -2.683787
    131          1           0       24.149383    1.465031   -2.998899
    132          1           0       22.949484   -2.335279    0.277579
    133          1           0       22.326924   -0.840264    0.260567
    134          1           0       24.408027   -0.144128    1.712508
    135          1           0       24.194998   -1.822025    2.143801
    136          1           0       26.326723    6.461131   -0.063634
    137          1           0       25.263909    5.201541   -0.833846
    138          1           0       26.476006    6.080740   -1.793701
    139          1           0       31.083501    6.232717    1.115790
    140          1           0       30.858191    7.524201    0.014695
    141          1           0       31.540054    6.116286   -0.684602
    142          1           0       32.950717    2.362402    1.791749
    143          1           0       33.627531   -0.261361    0.710308
    144          1           0       34.074230    1.250113   -0.640552
    145          1           0       34.234070    3.005911    0.011537
    146          1           0       32.988090    2.540155   -1.048513
    147          1           0       31.749155   -0.569279    3.034721
    148          1           0       32.902630    0.717566    3.293104
    149          1           0       34.355992   -0.855260    4.042405
    150          1           0       34.423013   -1.539160    2.408762
    151          1           0       33.290406   -2.119213    3.581734
    152          1           0       30.426744   -5.509109    0.085661
    153          1           0       31.772035   -4.335655   -0.510342
    154          1           0       30.581411   -5.147883   -1.600898
    155          1           0       25.324865   -3.700553   -1.563797
    156          1           0       23.258522   -4.190065    2.125577
    157          1           0       23.335091   -5.897988    1.594165
    158          1           0       22.111283   -4.926671    0.848946
 ---------------------------------------------------------------------

 SCF Done:  E(RCAM-B3LYP) =  -4069.80318655     A.U. after   18 cycles

 Excitation energies and oscillator strengths:

 Excited State   1:      Singlet-A      1.6462 eV  753.16 nm  f=0.3835  <S**2>=0.000
     309 -> 316       -0.17000
     312 -> 313        0.68909
     309 <- 316       -0.10749
 This state for optimization and/or second-order correction.
 Total Energy, E(TD-HF/TD-DFT) =  -4069.74269057
 Copying the excited state density for this state as the 1-particle RhoCI density.

 Excited State   2:      Singlet-A      1.6651 eV  744.61 nm  f=0.3813  <S**2>=0.000
     310 -> 315        0.17250
     311 -> 314        0.68780
     310 <- 315        0.10779

 Excited State   3:      Singlet-A      2.2270 eV  556.73 nm  f=0.1134  <S**2>=0.000
     309 -> 313        0.63821
     312 -> 316        0.29158

 Excited State   4:      Singlet-A      2.2662 eV  547.11 nm  f=0.1011  <S**2>=0.000
     310 -> 314        0.62925
     311 -> 315       -0.31013

 Excited State   5:      Singlet-A      3.1220 eV  397.14 nm  f=0.0000  <S**2>=0.000
     311 -> 313        0.70711

 The electronic state is 1-A.
 Alpha  occ. eigenvalues --  -46.88575 -46.87146 -19.25165 -19.24597 -19.20420
 Alpha  occ. eigenvalues --  -19.19221 -19.19118 -19.18758 -19.18492 -19.18244
 Alpha  occ. eigenvalues --  -14.42851 -14.42369 -14.41879 -14.41682 -14.39588
 Alpha  occ. eigenvalues --  -14.39528 -14.39522 -14.38755 -10.39237 -10.38590
 Alpha  occ. eigenvalues --  -10.35221 -10.35144 -10.34986 -10.34599 -10.32042
 Alpha  occ. eigenvalues --  -10.31428 -10.31352 -10.31203 -10.30949 -10.30940
 Alpha  occ. eigenvalues --  -10.30811 -10.30726 -10.30651 -10.30576 -10.30479
 Alpha  occ. eigenvalues --  -10.30462 -10.30110 -10.29942 -10.29851 -10.29342
 Alpha  occ. eigenvalues --  -10.29311 -10.28945 -10.28851 -10.28741 -10.28709
 Alpha  occ. eigenvalues --  -10.28511 -10.28499 -10.28328 -10.28281 -10.28245
 Alpha  occ. eigenvalues --  -10.28140 -10.28118 -10.28042 -10.28030 -10.27864
 Alpha  occ. eigenvalues --  -10.27855 -10.27814 -10.27794 -10.27738 -10.27650
 Alpha  occ. eigenvalues --  -10.27532 -10.27510 -10.27472 -10.27429 -10.27197
 Alpha  occ. eigenvalues --  -10.27035 -10.26812 -10.26745 -10.26615 -10.26557
 Alpha  occ. eigenvalues --  -10.26502 -10.26481 -10.26384 -10.25995 -10.25995
 Alpha  occ. eigenvalues --  -10.25836 -10.25756 -10.25603 -10.25507 -10.25485
 Alpha  occ. eigenvalues --  -10.25473 -10.25381 -10.25364 -10.25236 -10.25123
 Alpha  occ. eigenvalues --  -10.25118  -3.17220  -3.16004  -1.92081  -1.91680
 Alpha  occ. eigenvalues --   -1.91538  -1.90895  -1.90439  -1.90350  -1.17306
 Alpha  occ. eigenvalues --   -1.17258  -1.10404  -1.10138  -1.09944  -1.08953
 Alpha  occ. eigenvalues --   -1.07405  -1.07255  -1.04577  -1.04523  -1.03988
 Alpha  occ. eigenvalues --   -1.03568  -1.03332  -1.02716  -1.02621  -1.01409
 Alpha  occ. eigenvalues --   -0.93372  -0.93177  -0.89861  -0.89715  -0.89425
 Alpha  occ. eigenvalues --   -0.88808  -0.88586  -0.88381  -0.87679  -0.87520
 Alpha  occ. eigenvalues --   -0.87223  -0.86414  -0.86329  -0.85800  -0.84739
 Alpha  occ. eigenvalues --   -0.84331  -0.84164  -0.83817  -0.82707  -0.82479
 Alpha  occ. eigenvalues --   -0.81685  -0.81659  -0.81056  -0.80870  -0.80509
 Alpha  occ. eigenvalues --   -0.80506  -0.78358  -0.77942  -0.77779  -0.77502
 Alpha  occ. eigenvalues --   -0.77360  -0.76842  -0.76529  -0.76040  -0.75217
 Alpha  occ. eigenvalues --   -0.75130  -0.72884  -0.72698  -0.71848  -0.71686
 Alpha  occ. eigenvalues --   -0.69625  -0.69092  -0.68804  -0.68689  -0.68679
 Alpha  occ. eigenvalues --   -0.68193  -0.67081  -0.66702  -0.65862  -0.65861
 Alpha  occ. eigenvalues --   -0.65356  -0.65075  -0.64777  -0.64533  -0.64374
 Alpha  occ. eigenvalues --   -0.64079  -0.62339  -0.62094  -0.60323  -0.60001
 Alpha  occ. eigenvalues --   -0.59935  -0.59410  -0.59060  -0.58969  -0.58936
 Alpha  occ. eigenvalues --   -0.58375  -0.58132  -0.58002  -0.57711  -0.57375
 Alpha  occ. eigenvalues --   -0.56556  -0.56098  -0.56089  -0.55501  -0.55413
 Alpha  occ. eigenvalues --   -0.55187  -0.55094  -0.54977  -0.54599  -0.54068
 Alpha  occ. eigenvalues --   -0.53944  -0.53346  -0.53036  -0.53000  -0.52892
 Alpha  occ. eigenvalues --   -0.52848  -0.52557  -0.52434  -0.52369  -0.52278
 Alpha  occ. eigenvalues --   -0.52147  -0.52120  -0.51977  -0.51613  -0.51416
 Alpha  occ. eigenvalues --   -0.51311  -0.51156  -0.51153  -0.50924  -0.50314
 Alpha  occ. eigenvalues --   -0.50128  -0.50100  -0.49980  -0.49612  -0.49599
 Alpha  occ. eigenvalues --   -0.49399  -0.49247  -0.49007  -0.48932  -0.48877
 Alpha  occ. eigenvalues --   -0.48763  -0.48594  -0.48388  -0.48359  -0.48227
 Alpha  occ. eigenvalues --   -0.47997  -0.47767  -0.47550  -0.47324  -0.47216
 Alpha  occ. eigenvalues --   -0.47191  -0.47101  -0.46899  -0.46776  -0.46710
 Alpha  occ. eigenvalues --   -0.46602  -0.46372  -0.46358  -0.45999  -0.45922
 Alpha  occ. eigenvalues --   -0.45876  -0.45498  -0.45222  -0.45197  -0.44911
 Alpha  occ. eigenvalues --   -0.44774  -0.44670  -0.44547  -0.44367  -0.44051
 Alpha  occ. eigenvalues --   -0.44043  -0.43897  -0.43892  -0.43595  -0.43513
 Alpha  occ. eigenvalues --   -0.43286  -0.43226  -0.43175  -0.42799  -0.42517
 Alpha  occ. eigenvalues --   -0.42410  -0.42375  -0.42348  -0.42193  -0.42121
 Alpha  occ. eigenvalues --   -0.42046  -0.41950  -0.41897  -0.41415  -0.41113
 Alpha  occ. eigenvalues --   -0.40980  -0.40893  -0.40767  -0.40495  -0.40434
 Alpha  occ. eigenvalues --   -0.40394  -0.40390  -0.40050  -0.39818  -0.39149
 Alpha  occ. eigenvalues --   -0.38449  -0.38251  -0.37970  -0.37873  -0.37619
 Alpha  occ. eigenvalues --   -0.37326  -0.37197  -0.37032  -0.37031  -0.36615
 Alpha  occ. eigenvalues --   -0.36436  -0.35758  -0.35098  -0.34596  -0.34223
 Alpha  occ. eigenvalues --   -0.34134  -0.33343  -0.33019  -0.31536  -0.31373
 Alpha  occ. eigenvalues --   -0.31095  -0.30734  -0.30712  -0.30532  -0.29948
 Alpha  occ. eigenvalues --   -0.29898  -0.29648  -0.29577  -0.24314  -0.24304
 Alpha  occ. eigenvalues --   -0.21042  -0.21036
 Alpha virt. eigenvalues --   -0.08965  -0.08774  -0.01783  -0.01619   0.00112
 Alpha virt. eigenvalues --    0.00223   0.01387   0.02165   0.02529   0.03161
 Alpha virt. eigenvalues --    0.04767   0.05060   0.05436   0.05467   0.05867

 Mulliken charges:
               1
     1  Mg   0.841735
     2  C    0.034501
     3  C   -0.092988
     4  C   -0.054404
     5  C   -0.125455
     6  N   -0.303497
     7  C   -0.052253
     8  C    0.000530
     9  C   -0.079185
    10  C    0.037480
    11  C    0.069883
    12  C    0.044558
    13  C   -0.036883
    14  H    0.029757
    15  N   -0.308356
    16  C    0.155189
    17  C   -0.140383
    18  C   -0.029023
    19  C    0.069293
    20  C    0.113472
    21  C    0.008028
    22  O   -0.244596
    23  C    0.041248
    24  N   -0.321017
    25  C    0.036102
    26  C   -0.042175
    27  C    0.024920
    28  C    0.084844
    29  C    0.056672
    30  C    0.036912
    31  C   -0.008398
    32  N   -0.439361
    33  C    0.179097
    34  C   -0.175156
    35  C   -0.013990
    36  C    0.109948
    37  C    0.115571
    38  C    0.073219
    39  O   -0.144971
    40  C   -0.038075
    41  C    0.155661
    42  O   -0.198840
    43  O   -0.329044
    44  C    0.182743
    45  H   -0.027437
    46  H   -0.007708
    47  H   -0.042417
    48  H    0.003914
    49  H    0.010802
    50  H    0.020587
    51  H    0.027107
    52  H    0.015783
    53  H    0.012896
    54  H    0.017194
    55  H    0.020535
    56  H    0.038039
    57  H    0.049705
    58  H    0.012643
    59  H    0.009441
    60  H    0.044203
    61  H    0.032989
    62  H    0.028633
    63  H    0.029412
    64  H    0.012701
    65  H    0.039374
    66  H    0.014862
    67  H    0.019122
    68  H    0.008608
    69  H    0.002705
    70  H    0.020687
    71  H    0.002397
    72  H    0.017159
    73  H    0.004836
    74  H    0.038564
    75  H    0.044840
    76  H    0.038568
    77  H    0.051892
    78  H    0.041610
    79  H    0.022442
    80  Mg   0.832771
    81  C   -0.065588
    82  C   -0.082001
    83  C   -0.051841
    84  C   -0.084156
    85  N   -0.298284
    86  C   -0.025831
    87  C    0.018514
    88  C   -0.084331
    89  C    0.035858
    90  C    0.085084
    91  C    0.008023
    92  C   -0.055350
    93  H    0.025508
    94  N   -0.351564
    95  C    0.137574
    96  C   -0.183560
    97  C   -0.001203
    98  C    0.138278
    99  C    0.160170
   100  C   -0.032213
   101  O   -0.208001
   102  C    0.057957
   103  N   -0.289656
   104  C    0.015919
   105  C   -0.027217
   106  C   -0.062462
   107  C    0.016116
   108  C    0.089654
   109  C    0.056726
   110  C    0.010150
   111  N   -0.344941
   112  C    0.137349
   113  C   -0.195328
   114  C   -0.004419
   115  C    0.133854
   116  C    0.146233
   117  C    0.051125
   118  O   -0.169713
   119  C    0.007141
   120  C    0.187076
   121  O   -0.181054
   122  O   -0.345675
   123  C    0.175649
   124  H   -0.026732
   125  H   -0.055798
   126  H   -0.024806
   127  H    0.014636
   128  H    0.028498
   129  H    0.016098
   130  H    0.023442
   131  H    0.024295
   132  H   -0.006917
   133  H   -0.001126
   134  H    0.031139
   135  H    0.037562
   136  H    0.042140
   137  H   -0.001149
   138  H    0.032067
   139  H    0.043736
   140  H    0.018229
   141  H    0.031559
   142  H    0.006925
   143  H    0.007268
   144  H    0.018875
   145  H    0.023705
   146  H    0.006580
   147  H    0.033388
   148  H   -0.000398
   149  H    0.016112
   150  H    0.005060
   151  H    0.013768
   152  H    0.046476
   153  H    0.016168
   154  H    0.034354
   155  H    0.034139
   156  H    0.056372
   157  H    0.035434
   158  H    0.036557
 Sum of Mulliken charges =  -0.00000

 Dipole moment (field-independent basis, Debye):
    X=             -1.2463    Y=              2.7873    Z=             -4.5188  Tot=              5.4536
 Quadrupole moment (field-independent basis, Debye-Ang):
   XX=           -234.3069   YY=           -575.2747   ZZ=           -483.4249
   XY=             -4.8089   XZ=             65.6513   YZ=            -21.4823

 Normal termination of Gaussian 16 at Wed Sep 15 20:04:24 2021.
