 Gaussian 16, Revision A.03,
 Gaussian 16:  ES64L-G16RevA.03 25-Dec-2016

 -----------------------------------
 #p cam-b3lyp/Def2SVP td=(nstates=5)
 -----------------------------------

 --------------------------------
 TDDFT excited states in gaussian
 --------------------------------
 Symbolic Z-matrix:
 Charge =  0 Multiplicity = 1

                         Standard orientation:
 ---------------------------------------------------------------------
 Center     Atomic      Atomic             Coordinates (Angstroms)
 Number     Number       Type             X           Y           Z
 ---------------------------------------------------------------------
      1         12           0      -22.948081    0.578863    0.303258
      2          6           0      -22.097627   -2.464598   -1.131471
      3          6           0      -21.646839    2.209607   -2.346565
      4          6           0      -23.656777    3.451548    1.868606
      5          6           0      -24.126812   -1.198337    3.080691
      6          7           0      -22.009702   -0.138116   -1.538173
      7          6           0      -21.847327   -1.368186   -1.963394
      8          6           0      -21.201660   -1.291415   -3.423082
      9          6           0      -20.477343    0.028911   -3.266366
     10          6           0      -21.462696    0.806769   -2.337203
     11          6           0      -19.055418   -0.202951   -2.711317
     12          6           0      -22.312401   -1.504212   -4.539429
     13          6           0      -21.768244   -1.921827   -5.909050
     14          1           0      -20.269734   -1.863073   -6.150297
     15          7           0      -22.854008    2.525482   -0.240225
     16          6           0      -22.338159    2.995705   -1.445599
     17          6           0      -22.660703    4.451428   -1.535021
     18          6           0      -23.208414    4.859020   -0.244904
     19          6           0      -23.167838    3.581910    0.515867
     20          6           0      -22.365345    5.281100   -2.762065
     21          6           0      -23.771698    6.264354    0.266972
     22          8           0      -24.279212    6.435204    1.380581
     23          6           0      -23.676934    7.422912   -0.703787
     24          7           0      -23.647183    1.053622    2.192098
     25          6           0      -23.845575    2.297627    2.619688
     26          6           0      -24.288398    2.360031    4.114119
     27          6           0      -24.648499    0.885944    4.348495
     28          6           0      -24.173336    0.177808    3.118840
     29          6           0      -23.214778    2.923448    5.086535
     30          6           0      -26.123060    0.534043    4.839073
     31          6           0      -27.069925   -0.024477    3.828262
     32          7           0      -22.918767   -1.393485    0.994700
     33          6           0      -23.477660   -1.973225    2.083484
     34          6           0      -23.293667   -3.380143    2.124284
     35          6           0      -22.736998   -3.645959    0.833717
     36          6           0      -22.563070   -2.412150    0.249434
     37          6           0      -23.565357   -4.444035    3.156047
     38          6           0      -22.277614   -4.636747   -0.093489
     39          8           0      -22.208362   -5.844769   -0.021566
     40          6           0      -21.984670   -3.957794   -1.469378
     41          6           0      -20.659032   -4.364435   -1.945244
     42          8           0      -19.635783   -4.113799   -1.326761
     43          8           0      -20.692885   -5.220561   -3.075589
     44          6           0      -19.395649   -5.752710   -3.521471
     45          1           0      -21.156992    2.700506   -3.188761
     46          1           0      -23.836016    4.405305    2.367751
     47          1           0      -24.458706   -1.714223    3.983726
     48          1           0      -20.525961   -2.132708   -3.571212
     49          1           0      -20.426514    0.624791   -4.177309
     50          1           0      -18.430791    0.089753   -3.555948
     51          1           0      -18.868337   -1.242663   -2.439589
     52          1           0      -18.917967    0.539551   -1.925562
     53          1           0      -22.875974   -0.582572   -4.687295
     54          1           0      -22.911710   -2.341098   -4.180130
     55          1           0      -22.272513   -1.297460   -6.645959
     56          1           0      -22.112199   -2.940714   -6.085302
     57          1           0      -22.470765    4.693883   -3.675010
     58          1           0      -21.397562    5.779814   -2.803650
     59          1           0      -23.128535    6.054887   -2.843740
     60          1           0      -22.629604    7.414819   -1.004746
     61          1           0      -23.864162    8.401584   -0.262869
     62          1           0      -24.391736    7.284292   -1.515090
     63          1           0      -25.164037    2.996101    4.242708
     64          1           0      -23.918666    0.523964    5.071737
     65          1           0      -23.252402    2.268678    5.957484
     66          1           0      -23.319438    3.964260    5.388953
     67          1           0      -22.254625    2.897210    4.571181
     68          1           0      -26.530586    1.405095    5.352322
     69          1           0      -26.068071   -0.278615    5.563052
     70          1           0      -27.264172   -1.061321    4.103733
     71          1           0      -26.668315   -0.179127    2.826057
     72          1           0      -28.039760    0.471908    3.793033
     73          1           0      -23.914584   -4.027141    4.101343
     74          1           0      -22.687695   -5.085350    3.241878
     75          1           0      -24.401258   -5.114419    2.955001
     76          1           0      -22.720977   -4.235932   -2.222964
     77          1           0      -19.412805   -6.262299   -4.484548
     78          1           0      -19.129525   -6.447955   -2.724820
     79          1           0      -18.709067   -4.907995   -3.479278
     80         12           0       22.970667    0.494730   -0.249705
     81          6           0       21.441034   -2.507213    0.314588
     82          6           0       19.735351    1.860423   -0.824366
     83          6           0       24.395678    3.548453   -0.423013
     84          6           0       25.877164   -0.744662    1.217713
     85          7           0       20.716445   -0.218265    0.125726
     86          6           0       20.411121   -1.546176    0.113539
     87          6           0       18.918311   -1.725797    0.099254
     88          6           0       18.349627   -0.280814   -0.244500
     89          6           0       19.658087    0.564876   -0.349044
     90          6           0       17.220065   -0.225951   -1.207103
     91          6           0       18.192024   -2.461394    1.322686
     92          6           0       18.789016   -2.317921    2.691257
     93          1           0       17.842430   -1.943339    3.823050
     94          7           0       22.202650    2.369886   -0.809522
     95          6           0       20.906247    2.721992   -1.024265
     96          6           0       20.770237    4.113299   -1.339530
     97          6           0       22.174289    4.611236   -1.341543
     98          6           0       23.003479    3.489603   -0.848975
     99          6           0       19.561375    4.863281   -1.639789
    100          6           0       22.700599    5.980297   -1.747773
    101          8           0       21.955374    6.865938   -1.975767
    102          6           0       24.142617    6.401986   -1.807630
    103          7           0       24.786408    1.295898    0.427876
    104          6           0       25.181213    2.524687    0.061056
    105          6           0       26.606818    2.891135    0.732142
    106          6           0       27.177360    1.399133    0.899083
    107          6           0       25.874920    0.634782    0.899096
    108          6           0       27.517444    3.804738   -0.092950
    109          6           0       28.109161    1.248821    2.115138
    110          6           0       29.463718    0.542762    1.982891
    111          7           0       23.530662   -1.236478    0.702993
    112          6           0       24.749992   -1.650446    1.224663
    113          6           0       24.729354   -3.018383    1.570939
    114          6           0       23.470624   -3.457080    1.194504
    115          6           0       22.752292   -2.329203    0.660459
    116          6           0       25.846264   -3.840189    2.136300
    117          6           0       22.568274   -4.522169    1.048789
    118          8           0       22.745329   -5.695434    1.370315
    119          6           0       21.176231   -3.956127    0.647952
    120          6           0       20.782868   -4.819414   -0.541716
    121          8           0       19.695016   -5.426015   -0.638601
    122          8           0       21.760724   -4.674726   -1.497462
    123          6           0       21.588859   -5.176932   -2.882644
    124          1           0       18.712657    2.240944   -0.864738
    125          1           0       24.789122    4.557927   -0.287446
    126          1           0       26.814515   -1.142992    1.610705
    127          1           0       18.665109   -2.428787   -0.695187
    128          1           0       17.932756    0.103101    0.686142
    129          1           0       17.360762    0.508818   -1.999743
    130          1           0       16.255836   -0.134444   -0.707090
    131          1           0       17.168233   -1.167867   -1.753269
    132          1           0       18.122781   -3.544340    1.219394
    133          1           0       17.206308   -2.020620    1.474866
    134          1           0       19.720737   -1.754318    2.726470
    135          1           0       19.049321   -3.322467    3.026393
    136          1           0       18.844717    4.194689   -2.115724
    137          1           0       19.721357    5.726248   -2.285059
    138          1           0       19.162944    5.207456   -0.684698
    139          1           0       24.517909    5.417339   -2.087444
    140          1           0       24.535835    6.709854   -0.839269
    141          1           0       24.406177    7.175481   -2.529165
    142          1           0       26.373048    3.277495    1.724663
    143          1           0       27.725701    0.953640    0.069415
    144          1           0       28.311965    3.176580   -0.496682
    145          1           0       27.782815    4.693013    0.479587
    146          1           0       27.019151    4.235677   -0.960828
    147          1           0       27.537140    0.722105    2.879452
    148          1           0       28.241695    2.236963    2.555975
    149          1           0       30.350760    1.035954    2.380696
    150          1           0       29.662083    0.188778    0.970388
    151          1           0       29.264543   -0.410449    2.471563
    152          1           0       25.861517   -4.878718    1.804775
    153          1           0       25.769396   -3.823085    3.223699
    154          1           0       26.834927   -3.477231    1.852367
    155          1           0       20.578515   -4.138711    1.540149
    156          1           0       22.006030   -4.500399   -3.628345
    157          1           0       20.521504   -5.298533   -3.067924
    158          1           0       22.000156   -6.140732   -3.180066
 ---------------------------------------------------------------------

 SCF Done:  E(RCAM-B3LYP) =  -4069.76801705     A.U. after   18 cycles

 Excitation energies and oscillator strengths:

 Excited State   1:      Singlet-A      1.6348 eV  758.42 nm  f=0.3835  <S**2>=0.000
     309 -> 315        0.16910
     311 -> 313        0.68879
     309 <- 315        0.10872
 This state for optimization and/or second-order correction.
 Total Energy, E(TD-HF/TD-DFT) =  -4069.70794013
 Copying the excited state density for this state as the 1-particle RhoCI density.

 Excited State   2:      Singlet-A      1.7356 eV  714.38 nm  f=0.3947  <S**2>=0.000
     310 -> 316        0.17783
     312 -> 314        0.68647
     310 <- 316        0.10692

 Excited State   3:      Singlet-A      2.1489 eV  576.98 nm  f=0.1480  <S**2>=0.000
     309 -> 313        0.65218
     311 -> 315       -0.25538

 Excited State   4:      Singlet-A      2.2152 eV  559.69 nm  f=0.1503  <S**2>=0.000
     310 -> 314        0.65502
     312 -> 316       -0.25743

 Excited State   5:      Singlet-A      2.9791 eV  416.18 nm  f=0.0000  <S**2>=0.000
     312 -> 313        0.70711

 The electronic state is 1-A.
 Alpha  occ. eigenvalues --  -46.89965 -46.87757 -19.26238 -19.23905 -19.20471
 Alpha  occ. eigenvalues --  -19.20340 -19.19479 -19.18494 -19.17894 -19.17257
 Alpha  occ. eigenvalues --  -14.42598 -14.42052 -14.42005 -14.41452 -14.40103
 Alpha  occ. eigenvalues --  -14.40071 -14.39676 -14.38625 -10.40492 -10.38865
 Alpha  occ. eigenvalues --  -10.37228 -10.34293 -10.34098 -10.33595 -10.32837
 Alpha  occ. eigenvalues --  -10.32109 -10.31623 -10.31322 -10.31130 -10.31056
 Alpha  occ. eigenvalues --  -10.31027 -10.30990 -10.30942 -10.30777 -10.30713
 Alpha  occ. eigenvalues --  -10.30584 -10.30448 -10.30300 -10.30193 -10.29843
 Alpha  occ. eigenvalues --  -10.29406 -10.29007 -10.28913 -10.28872 -10.28813
 Alpha  occ. eigenvalues --  -10.28664 -10.28478 -10.28449 -10.28312 -10.28216
 Alpha  occ. eigenvalues --  -10.28112 -10.28088 -10.27986 -10.27974 -10.27950
 Alpha  occ. eigenvalues --  -10.27942 -10.27820 -10.27621 -10.27584 -10.27541
 Alpha  occ. eigenvalues --  -10.27535 -10.27527 -10.27285 -10.27248 -10.27234
 Alpha  occ. eigenvalues --  -10.27156 -10.27055 -10.26807 -10.26793 -10.26755
 Alpha  occ. eigenvalues --  -10.26746 -10.26709 -10.26362 -10.26324 -10.26239
 Alpha  occ. eigenvalues --  -10.26084 -10.25886 -10.25755 -10.25735 -10.25662
 Alpha  occ. eigenvalues --  -10.25572 -10.25531 -10.25183 -10.25100 -10.24515
 Alpha  occ. eigenvalues --  -10.24175  -3.18437  -3.16522  -1.93295  -1.92929
 Alpha  occ. eigenvalues --   -1.92712  -1.91433  -1.90942  -1.90869  -1.15697
 Alpha  occ. eigenvalues --   -1.14490  -1.11434  -1.10477  -1.09568  -1.09374
 Alpha  occ. eigenvalues --   -1.07269  -1.06735  -1.05577  -1.05187  -1.04720
 Alpha  occ. eigenvalues --   -1.04383  -1.04141  -1.03154  -1.02956  -1.02175
 Alpha  occ. eigenvalues --   -0.93711  -0.92124  -0.89862  -0.89201  -0.88756
 Alpha  occ. eigenvalues --   -0.88573  -0.88424  -0.88278  -0.87962  -0.87288
 Alpha  occ. eigenvalues --   -0.87272  -0.87113  -0.86254  -0.85908  -0.84572
 Alpha  occ. eigenvalues --   -0.84326  -0.84017  -0.83658  -0.83121  -0.82755
 Alpha  occ. eigenvalues --   -0.82559  -0.82199  -0.81005  -0.80946  -0.80612
 Alpha  occ. eigenvalues --   -0.80062  -0.78580  -0.78538  -0.77828  -0.77235
 Alpha  occ. eigenvalues --   -0.77015  -0.76718  -0.76656  -0.75851  -0.75499
 Alpha  occ. eigenvalues --   -0.75063  -0.73609  -0.72810  -0.71777  -0.71170
 Alpha  occ. eigenvalues --   -0.70054  -0.69413  -0.69244  -0.68745  -0.68426
 Alpha  occ. eigenvalues --   -0.67924  -0.66609  -0.66592  -0.66295  -0.65515
 Alpha  occ. eigenvalues --   -0.65046  -0.64737  -0.64658  -0.64424  -0.64183
 Alpha  occ. eigenvalues --   -0.63996  -0.63618  -0.61242  -0.60629  -0.60304
 Alpha  occ. eigenvalues --   -0.59581  -0.59418  -0.59122  -0.58912  -0.58087
 Alpha  occ. eigenvalues --   -0.58009  -0.57972  -0.57646  -0.57612  -0.57243
 Alpha  occ. eigenvalues --   -0.56554  -0.55821  -0.55794  -0.55664  -0.55432
 Alpha  occ. eigenvalues --   -0.55351  -0.55135  -0.54780  -0.54488  -0.53994
 Alpha  occ. eigenvalues --   -0.53983  -0.53681  -0.53352  -0.53297  -0.53206
 Alpha  occ. eigenvalues --   -0.52988  -0.52653  -0.52532  -0.52329  -0.52128
 Alpha  occ. eigenvalues --   -0.52100  -0.51871  -0.51827  -0.51791  -0.51374
 Alpha  occ. eigenvalues --   -0.51202  -0.51103  -0.50717  -0.50716  -0.50687
 Alpha  occ. eigenvalues --   -0.50615  -0.50338  -0.50005  -0.49883  -0.49737
 Alpha  occ. eigenvalues --   -0.49497  -0.49486  -0.49226  -0.49207  -0.49021
 Alpha  occ. eigenvalues --   -0.48999  -0.48801  -0.48537  -0.48491  -0.48252
 Alpha  occ. eigenvalues --   -0.47893  -0.47748  -0.47584  -0.47370  -0.47328
 Alpha  occ. eigenvalues --   -0.47246  -0.47106  -0.46924  -0.46869  -0.46447
 Alpha  occ. eigenvalues --   -0.46436  -0.46283  -0.46166  -0.46014  -0.45779
 Alpha  occ. eigenvalues --   -0.45638  -0.45564  -0.45552  -0.45341  -0.45042
 Alpha  occ. eigenvalues --   -0.44936  -0.44907  -0.44636  -0.44318  -0.44177
 Alpha  occ. eigenvalues --   -0.44023  -0.44002  -0.43938  -0.43437  -0.43406
 Alpha  occ. eigenvalues --   -0.43313  -0.43215  -0.43095  -0.42970  -0.42730
 Alpha  occ. eigenvalues --   -0.42660  -0.42470  -0.42396  -0.42097  -0.42059
 Alpha  occ. eigenvalues --   -0.41968  -0.41786  -0.41749  -0.41506  -0.41400
 Alpha  occ. eigenvalues --   -0.41309  -0.41019  -0.40964  -0.40586  -0.40517
 Alpha  occ. eigenvalues --   -0.40250  -0.40210  -0.39966  -0.39177  -0.39054
 Alpha  occ. eigenvalues --   -0.38697  -0.38185  -0.38048  -0.38008  -0.37558
 Alpha  occ. eigenvalues --   -0.37387  -0.36902  -0.36614  -0.36169  -0.36141
 Alpha  occ. eigenvalues --   -0.35624  -0.35616  -0.34804  -0.34431  -0.33928
 Alpha  occ. eigenvalues --   -0.33885  -0.33243  -0.33104  -0.32186  -0.31589
 Alpha  occ. eigenvalues --   -0.31145  -0.30915  -0.30526  -0.30497  -0.30173
 Alpha  occ. eigenvalues --   -0.29568  -0.29552  -0.28372  -0.24482  -0.23887
 Alpha  occ. eigenvalues --   -0.21739  -0.21383
 Alpha virt. eigenvalues --   -0.09685  -0.08827  -0.01978  -0.01247  -0.00008
 Alpha virt. eigenvalues --    0.00125   0.00982   0.02483   0.02673   0.03512
 Alpha virt. eigenvalues --    0.04552   0.04804   0.04894   0.05334   0.05894

 Mulliken charges:
               1
     1  Mg   0.842591
     2  C   -0.021656
     3  C   -0.078599
     4  C   -0.075109
     5  C   -0.111296
     6  N   -0.243018
     7  C   -0.062003
     8  C   -0.047420
     9  C   -0.052415
    10  C    0.015674
    11  C    0.105869
    12  C    0.057328
    13  C   -0.053894
    14  H    0.023574
    15  N   -0.393564
    16  C    0.179574
    17  C   -0.141566
    18  C   -0.075161
    19  C    0.104595
    20  C    0.096179
    21  C    0.057903
    22  O   -0.196826
    23  C    0.033353
    24  N   -0.301830
    25  C    0.062662
    26  C   -0.047748
    27  C    0.014863
    28  C    0.029774
    29  C    0.068822
    30  C    0.044633
    31  C    0.006260
    32  N   -0.283342
    33  C    0.112476
    34  C   -0.165598
    35  C    0.022725
    36  C    0.067188
    37  C    0.123693
    38  C    0.018824
    39  O   -0.167212
    40  C    0.053312
    41  C    0.179868
    42  O   -0.224390
    43  O   -0.371080
    44  C    0.187042
    45  H   -0.022519
    46  H   -0.009365
    47  H   -0.032029
    48  H   -0.002129
    49  H   -0.022984
    50  H    0.012577
    51  H    0.048817
    52  H    0.014423
    53  H    0.011115
    54  H    0.016542
    55  H    0.022733
    56  H    0.030174
    57  H    0.017728
    58  H    0.042062
    59  H    0.008698
    60  H    0.038380
    61  H    0.029184
    62  H    0.060232
    63  H    0.009230
    64  H    0.004413
    65  H    0.017344
    66  H    0.022860
    67  H    0.019462
    68  H    0.008875
    69  H    0.003216
    70  H   -0.003661
    71  H    0.027799
    72  H    0.017072
    73  H   -0.005939
    74  H    0.043986
    75  H    0.023711
    76  H    0.037094
    77  H    0.044993
    78  H    0.038825
    79  H    0.032026
    80  Mg   0.824973
    81  C    0.019343
    82  C   -0.076974
    83  C   -0.075325
    84  C   -0.091269
    85  N   -0.272146
    86  C   -0.046317
    87  C    0.019122
    88  C   -0.037938
    89  C    0.011848
    90  C    0.090875
    91  C    0.034498
    92  C   -0.113686
    93  H    0.011973
    94  N   -0.363510
    95  C    0.155772
    96  C   -0.164927
    97  C   -0.053239
    98  C    0.113966
    99  C    0.136389
   100  C   -0.034874
   101  O   -0.178713
   102  C    0.046386
   103  N   -0.288433
   104  C    0.057813
   105  C   -0.083516
   106  C   -0.035974
   107  C    0.048068
   108  C    0.096432
   109  C    0.030962
   110  C    0.010217
   111  N   -0.351627
   112  C    0.123555
   113  C   -0.172810
   114  C    0.107929
   115  C    0.078468
   116  C    0.118781
   117  C   -0.023670
   118  O   -0.180915
   119  C   -0.040725
   120  C    0.244515
   121  O   -0.225257
   122  O   -0.349250
   123  C    0.180468
   124  H   -0.016082
   125  H   -0.017629
   126  H   -0.037871
   127  H    0.015017
   128  H    0.022360
   129  H    0.014201
   130  H    0.019015
   131  H    0.005486
   132  H    0.034716
   133  H    0.020734
   134  H    0.042978
   135  H    0.034010
   136  H    0.010756
   137  H    0.039521
   138  H    0.029645
   139  H    0.015084
   140  H    0.049013
   141  H    0.031101
   142  H    0.029330
   143  H    0.016137
   144  H    0.016712
   145  H    0.016748
   146  H    0.012736
   147  H    0.006076
   148  H    0.002123
   149  H    0.033177
   150  H    0.005109
   151  H    0.010971
   152  H    0.037318
   153  H    0.037083
   154  H    0.010964
   155  H    0.037036
   156  H    0.035818
   157  H    0.037912
   158  H    0.041435
 Sum of Mulliken charges =  -0.00000

 Dipole moment (field-independent basis, Debye):
    X=              3.0505    Y=              5.7758    Z=             -4.3712  Tot=              7.8596
 Quadrupole moment (field-independent basis, Debye-Ang):
   XX=           -278.6749   YY=           -586.5481   ZZ=           -477.0750
   XY=            -68.9271   XZ=             29.2034   YZ=             13.2034

 Normal termination of Gaussian 16 at Thu Sep 16 13:40:44 2021.
