 Gaussian 16, Revision A.03,
 Gaussian 16:  ES64L-G16RevA.03 25-Dec-2016

 -----------------------------------
 #p cam-b3lyp/Def2SVP td=(nstates=5)
 -----------------------------------

 --------------------------------
 TDDFT excited states in gaussian
 --------------------------------
 Symbolic Z-matrix:
 Charge =  0 Multiplicity = 1

                         Standard orientation:
 ---------------------------------------------------------------------
 Center     Atomic      Atomic             Coordinates (Angstroms)
 Number     Number       Type             X           Y           Z
 ---------------------------------------------------------------------
      1         12           0      -14.535550    0.784578    0.082379
      2          6           0      -14.395243   -2.677037   -0.191272
      3          6           0      -11.168767    0.904052    0.084800
      4          6           0      -14.678571    3.999821    1.122037
      5          6           0      -17.970865    0.501519    0.902279
      6          7           0      -13.066022   -0.740176   -0.129811
      7          6           0      -13.155772   -2.090448   -0.389111
      8          6           0      -11.739172   -2.717912   -0.503236
      9          6           0      -10.860778   -1.603778    0.145071
     10          6           0      -11.711277   -0.361149   -0.073722
     11          6           0      -10.564177   -1.806776    1.672624
     12          6           0      -11.535581   -3.158707   -1.964349
     13          6           0      -10.882867   -4.479736   -2.116662
     14          1           0      -11.083817   -5.121013   -3.414545
     15          7           0      -13.121895    2.267706    0.310665
     16          6           0      -11.776958    2.113171    0.202255
     17          6           0      -11.175296    3.419115    0.102303
     18          6           0      -12.232258    4.349871    0.409971
     19          6           0      -13.408082    3.530110    0.716729
     20          6           0       -9.723899    3.643060   -0.129455
     21          6           0      -12.216769    5.902009    0.597465
     22          8           0      -13.230183    6.554592    0.855560
     23          6           0      -10.976250    6.707284    0.328733
     24          7           0      -16.062799    1.956761    1.225604
     25          6           0      -15.875503    3.355070    1.400652
     26          6           0      -17.110000    4.069136    1.842160
     27          6           0      -18.147913    2.941727    1.532932
     28          6           0      -17.340025    1.713435    1.122385
     29          6           0      -17.075504    4.552460    3.331607
     30          6           0      -19.161134    3.320493    0.391676
     31          6           0      -18.527362    3.832487   -0.926873
     32          7           0      -15.955012   -0.725002    0.214974
     33          6           0      -17.326839   -0.687261    0.508883
     34          6           0      -17.794467   -2.019924    0.421953
     35          6           0      -16.685973   -2.803145    0.125238
     36          6           0      -15.615518   -1.976883    0.025526
     37          6           0      -19.218724   -2.451427    0.570117
     38          6           0      -16.271591   -4.118174   -0.029959
     39          8           0      -16.935314   -5.169122    0.031887
     40          6           0      -14.732499   -4.175855   -0.268057
     41          6           0      -14.609091   -4.843712   -1.673156
     42          8           0      -14.945980   -4.323522   -2.751675
     43          8           0      -14.065524   -6.111964   -1.499797
     44          6           0      -14.078127   -7.055621   -2.662513
     45          1           0      -10.084671    0.802836    0.169056
     46          1           0      -14.944845    5.034012    1.353182
     47          1           0      -19.055673    0.381241    0.938242
     48          1           0      -11.695893   -3.656631    0.048037
     49          1           0       -9.946622   -1.487536   -0.436333
     50          1           0      -10.927595   -2.735323    2.113812
     51          1           0      -11.089129   -1.059620    2.266467
     52          1           0       -9.484334   -1.823033    1.818758
     53          1           0      -10.822636   -2.450829   -2.384782
     54          1           0      -12.507420   -3.125087   -2.457534
     55          1           0      -11.357486   -5.127209   -1.379175
     56          1           0       -9.833805   -4.380600   -1.838536
     57          1           0       -9.246198    2.758730   -0.550762
     58          1           0       -9.300509    4.085394    0.772939
     59          1           0       -9.597794    4.399859   -0.903778
     60          1           0      -11.102535    7.606112    0.932702
     61          1           0      -10.929777    7.011154   -0.717275
     62          1           0      -10.073776    6.192649    0.660027
     63          1           0      -17.360913    4.937503    1.231383
     64          1           0      -18.700139    2.716097    2.445773
     65          1           0      -16.326782    3.973725    3.873188
     66          1           0      -18.001378    4.459576    3.899480
     67          1           0      -16.811771    5.598865    3.487853
     68          1           0      -19.861687    4.024929    0.840439
     69          1           0      -19.734975    2.404201    0.253467
     70          1           0      -18.789509    3.215032   -1.786250
     71          1           0      -17.448566    3.846036   -0.769099
     72          1           0      -18.838882    4.846189   -1.177010
     73          1           0      -19.219089   -3.197280    1.364928
     74          1           0      -19.550124   -2.835835   -0.394498
     75          1           0      -19.910039   -1.678755    0.906739
     76          1           0      -14.298822   -4.841168    0.478051
     77          1           0      -15.126282   -7.192537   -2.927492
     78          1           0      -13.642191   -8.044115   -2.518141
     79          1           0      -13.518955   -6.421055   -3.350141
     80         12           0       15.209826   -0.092622   -0.062596
     81          6           0       11.816830   -0.468847   -0.766576
     82          6           0       15.201686    2.877159   -1.813285
     83          6           0       18.368265    0.111389    0.803974
     84          6           0       14.821986   -2.584492    2.568507
     85          7           0       13.595444    1.041829   -1.247256
     86          6           0       12.273070    0.721947   -1.376201
     87          6           0       11.570950    1.702728   -2.246739
     88          6           0       12.662877    2.805946   -2.545658
     89          6           0       13.950827    2.237520   -1.831588
     90          6           0       12.793879    3.200535   -4.038301
     91          6           0       10.309604    2.307684   -1.583815
     92          6           0        9.098258    2.177896   -2.505580
     93          1           0        8.286035    3.472178   -2.812394
     94          7           0       16.608736    1.298348   -0.482941
     95          6           0       16.453781    2.446081   -1.258971
     96          6           0       17.781009    3.042378   -1.338537
     97          6           0       18.753835    2.222371   -0.598724
     98          6           0       17.935990    1.077392   -0.087425
     99          6           0       18.018206    4.347591   -1.914732
    100          6           0       20.138563    2.663932   -0.362511
    101          8           0       20.613601    3.688459   -0.805924
    102          6           0       21.094732    1.955130    0.532030
    103          7           0       16.343525   -1.039821    1.447868
    104          6           0       17.712287   -0.966877    1.391059
    105          6           0       18.325470   -1.826373    2.476367
    106          6           0       17.168145   -2.256530    3.297820
    107          6           0       16.037999   -1.904664    2.464431
    108          6           0       19.287040   -2.974540    1.961667
    109          6           0       17.016650   -1.439748    4.626850
    110          6           0       16.409842   -2.134333    5.756955
    111          7           0       13.663569   -1.337001    0.759092
    112          6           0       13.659220   -2.325324    1.752117
    113          6           0       12.434592   -3.058212    1.674437
    114          6           0       11.663507   -2.363513    0.750018
    115          6           0       12.450462   -1.273697    0.232178
    116          6           0       12.129926   -4.253061    2.500457
    117          6           0       10.390448   -2.294741    0.150696
    118          8           0        9.417999   -2.999903    0.302742
    119          6           0       10.446822   -1.136112   -0.869798
    120          6           0       10.103065   -1.653925   -2.203649
    121          8           0       10.897919   -2.171339   -3.006451
    122          8           0        8.737398   -1.626119   -2.369949
    123          6           0        8.146212   -1.993549   -3.646375
    124          1           0       15.139700    3.773275   -2.433355
    125          1           0       19.379010    0.091519    1.219139
    126          1           0       14.759738   -3.343746    3.350913
    127          1           0       11.496488    1.197458   -3.210093
    128          1           0       12.448036    3.768151   -2.081804
    129          1           0       11.849696    2.846997   -4.454349
    130          1           0       13.685744    2.852617   -4.559590
    131          1           0       12.816496    4.285890   -4.133157
    132          1           0       10.366141    3.383784   -1.420800
    133          1           0       10.176812    1.774597   -0.642563
    134          1           0        8.451570    1.584785   -1.859132
    135          1           0        9.419098    1.618525   -3.383129
    136          1           0       17.072130    4.717180   -2.310840
    137          1           0       18.682156    4.375168   -2.779261
    138          1           0       18.345297    5.033021   -1.132086
    139          1           0       20.946944    0.938046    0.168944
    140          1           0       20.752159    2.061347    1.561670
    141          1           0       22.117133    2.296761    0.369072
    142          1           0       18.970117   -1.125820    3.005897
    143          1           0       17.034735   -3.324314    3.471734
    144          1           0       19.500718   -2.846491    0.900349
    145          1           0       18.983774   -3.985741    2.235204
    146          1           0       20.306058   -2.879561    2.335715
    147          1           0       16.463400   -0.523194    4.421682
    148          1           0       17.990120   -1.104601    4.984460
    149          1           0       17.192101   -2.668219    6.297618
    150          1           0       15.601832   -2.798898    5.449276
    151          1           0       16.122711   -1.410394    6.520244
    152          1           0       13.010528   -4.883953    2.620596
    153          1           0       11.289775   -4.842723    2.133301
    154          1           0       11.951849   -3.837437    3.492292
    155          1           0        9.650084   -0.406027   -0.726753
    156          1           0        8.140019   -3.041633   -3.945855
    157          1           0        8.589019   -1.390389   -4.438719
    158          1           0        7.088856   -1.763830   -3.520068
 ---------------------------------------------------------------------

 SCF Done:  E(RCAM-B3LYP) =  -4069.78699187     A.U. after   19 cycles

 Excitation energies and oscillator strengths:

 Excited State   1:      Singlet-A      1.6606 eV  746.60 nm  f=0.4219  <S**2>=0.000
     310 -> 316       -0.16190
     312 -> 314        0.68777
     310 <- 316       -0.10389
 This state for optimization and/or second-order correction.
 Total Energy, E(TD-HF/TD-DFT) =  -4069.72596432
 Copying the excited state density for this state as the 1-particle RhoCI density.

 Excited State   2:      Singlet-A      1.6751 eV  740.14 nm  f=0.3280  <S**2>=0.000
     309 -> 315       -0.18796
     311 -> 313        0.68225
     309 <- 315       -0.11073

 Excited State   3:      Singlet-A      2.1860 eV  567.17 nm  f=0.1038  <S**2>=0.000
     309 -> 313        0.63556
     311 -> 315        0.29757

 Excited State   4:      Singlet-A      2.2189 eV  558.76 nm  f=0.1276  <S**2>=0.000
     310 -> 314        0.64341
     312 -> 316        0.27217

 Excited State   5:      Singlet-A      2.9306 eV  423.07 nm  f=0.0000  <S**2>=0.000
     312 -> 313        0.70707

 The electronic state is 1-A.
 Alpha  occ. eigenvalues --  -46.89014 -46.88307 -19.24961 -19.24724 -19.19992
 Alpha  occ. eigenvalues --  -19.19450 -19.18726 -19.18435 -19.17639 -19.17444
 Alpha  occ. eigenvalues --  -14.42398 -14.42001 -14.41927 -14.41469 -14.40338
 Alpha  occ. eigenvalues --  -14.39333 -14.39241 -14.38490 -10.40011 -10.39176
 Alpha  occ. eigenvalues --  -10.35276 -10.34289 -10.33768 -10.33621 -10.31955
 Alpha  occ. eigenvalues --  -10.31776 -10.31694 -10.31645 -10.31640 -10.31135
 Alpha  occ. eigenvalues --  -10.31121 -10.30940 -10.30541 -10.30540 -10.30309
 Alpha  occ. eigenvalues --  -10.30228 -10.30213 -10.29935 -10.29296 -10.29191
 Alpha  occ. eigenvalues --  -10.29164 -10.29081 -10.28628 -10.28617 -10.28449
 Alpha  occ. eigenvalues --  -10.28397 -10.28308 -10.28285 -10.28283 -10.28233
 Alpha  occ. eigenvalues --  -10.28200 -10.28195 -10.28040 -10.27892 -10.27888
 Alpha  occ. eigenvalues --  -10.27856 -10.27657 -10.27543 -10.27441 -10.27430
 Alpha  occ. eigenvalues --  -10.27359 -10.27278 -10.27263 -10.27210 -10.27161
 Alpha  occ. eigenvalues --  -10.27004 -10.27000 -10.26855 -10.26718 -10.26543
 Alpha  occ. eigenvalues --  -10.26514 -10.26504 -10.26375 -10.26368 -10.26295
 Alpha  occ. eigenvalues --  -10.25938 -10.25926 -10.25822 -10.25727 -10.25726
 Alpha  occ. eigenvalues --  -10.25613 -10.25561 -10.25246 -10.24930 -10.24794
 Alpha  occ. eigenvalues --  -10.23769  -3.17503  -3.16903  -1.92406  -1.91967
 Alpha  occ. eigenvalues --   -1.91793  -1.91784  -1.91362  -1.91205  -1.15538
 Alpha  occ. eigenvalues --   -1.14398  -1.10136  -1.09906  -1.09466  -1.07931
 Alpha  occ. eigenvalues --   -1.06796  -1.06630  -1.05054  -1.04796  -1.03889
 Alpha  occ. eigenvalues --   -1.03874  -1.03505  -1.03060  -1.02211  -1.01643
 Alpha  occ. eigenvalues --   -0.92729  -0.92517  -0.90830  -0.89674  -0.89119
 Alpha  occ. eigenvalues --   -0.89076  -0.89033  -0.88576  -0.87785  -0.87780
 Alpha  occ. eigenvalues --   -0.87313  -0.87116  -0.86523  -0.86365  -0.85333
 Alpha  occ. eigenvalues --   -0.84614  -0.84581  -0.83536  -0.83493  -0.82644
 Alpha  occ. eigenvalues --   -0.82153  -0.81616  -0.81483  -0.80974  -0.80897
 Alpha  occ. eigenvalues --   -0.80377  -0.78737  -0.78195  -0.78050  -0.77193
 Alpha  occ. eigenvalues --   -0.77060  -0.76916  -0.76387  -0.76016  -0.75456
 Alpha  occ. eigenvalues --   -0.75453  -0.73480  -0.73236  -0.72105  -0.72034
 Alpha  occ. eigenvalues --   -0.69780  -0.69408  -0.69174  -0.68752  -0.68073
 Alpha  occ. eigenvalues --   -0.67591  -0.67519  -0.66535  -0.66517  -0.66006
 Alpha  occ. eigenvalues --   -0.65346  -0.65323  -0.64758  -0.64642  -0.64440
 Alpha  occ. eigenvalues --   -0.64054  -0.62115  -0.61547  -0.60810  -0.59875
 Alpha  occ. eigenvalues --   -0.59768  -0.59573  -0.59534  -0.59125  -0.59032
 Alpha  occ. eigenvalues --   -0.58421  -0.57989  -0.57553  -0.57490  -0.56983
 Alpha  occ. eigenvalues --   -0.56475  -0.55977  -0.55969  -0.55603  -0.55547
 Alpha  occ. eigenvalues --   -0.55317  -0.55214  -0.55062  -0.54747  -0.54515
 Alpha  occ. eigenvalues --   -0.54324  -0.53527  -0.53266  -0.53032  -0.52918
 Alpha  occ. eigenvalues --   -0.52898  -0.52792  -0.52625  -0.52450  -0.52359
 Alpha  occ. eigenvalues --   -0.52167  -0.51920  -0.51817  -0.51749  -0.51656
 Alpha  occ. eigenvalues --   -0.51447  -0.51358  -0.51303  -0.50487  -0.50481
 Alpha  occ. eigenvalues --   -0.50336  -0.50083  -0.49725  -0.49617  -0.49457
 Alpha  occ. eigenvalues --   -0.49376  -0.49198  -0.49183  -0.48920  -0.48897
 Alpha  occ. eigenvalues --   -0.48747  -0.48626  -0.48587  -0.48502  -0.48071
 Alpha  occ. eigenvalues --   -0.47964  -0.47686  -0.47671  -0.47350  -0.47204
 Alpha  occ. eigenvalues --   -0.47070  -0.47018  -0.46862  -0.46671  -0.46595
 Alpha  occ. eigenvalues --   -0.46384  -0.46281  -0.46275  -0.45975  -0.45812
 Alpha  occ. eigenvalues --   -0.45689  -0.45456  -0.45378  -0.45005  -0.44664
 Alpha  occ. eigenvalues --   -0.44594  -0.44555  -0.44475  -0.44169  -0.44114
 Alpha  occ. eigenvalues --   -0.43757  -0.43733  -0.43505  -0.43453  -0.43427
 Alpha  occ. eigenvalues --   -0.43304  -0.43171  -0.43131  -0.43041  -0.43035
 Alpha  occ. eigenvalues --   -0.42682  -0.42642  -0.42351  -0.42154  -0.41948
 Alpha  occ. eigenvalues --   -0.41734  -0.41730  -0.41671  -0.41576  -0.41398
 Alpha  occ. eigenvalues --   -0.41239  -0.41051  -0.40833  -0.40744  -0.40630
 Alpha  occ. eigenvalues --   -0.40328  -0.40282  -0.39936  -0.39277  -0.39140
 Alpha  occ. eigenvalues --   -0.38569  -0.38191  -0.38016  -0.37812  -0.37407
 Alpha  occ. eigenvalues --   -0.37353  -0.37047  -0.36815  -0.36582  -0.36461
 Alpha  occ. eigenvalues --   -0.36406  -0.36057  -0.34419  -0.34167  -0.34076
 Alpha  occ. eigenvalues --   -0.33794  -0.33212  -0.33100  -0.31454  -0.31302
 Alpha  occ. eigenvalues --   -0.30816  -0.30756  -0.30040  -0.29952  -0.29720
 Alpha  occ. eigenvalues --   -0.29708  -0.29508  -0.29389  -0.24379  -0.24227
 Alpha  occ. eigenvalues --   -0.21645  -0.21178
 Alpha virt. eigenvalues --   -0.09233  -0.08990  -0.02581  -0.01499   0.00177
 Alpha virt. eigenvalues --    0.00545   0.02207   0.02278   0.02438   0.02605
 Alpha virt. eigenvalues --    0.03995   0.04920   0.04977   0.05087   0.05377

 Mulliken charges:
               1
     1  Mg   0.820625
     2  C   -0.060313
     3  C   -0.109660
     4  C   -0.010575
     5  C   -0.097861
     6  N   -0.340009
     7  C   -0.020858
     8  C   -0.061508
     9  C   -0.031295
    10  C    0.010381
    11  C    0.081223
    12  C    0.079385
    13  C   -0.068981
    14  H    0.035448
    15  N   -0.383338
    16  C    0.220965
    17  C   -0.158637
    18  C   -0.040041
    19  C    0.171618
    20  C    0.117531
    21  C    0.010809
    22  O   -0.218720
    23  C    0.055167
    24  N   -0.251724
    25  C   -0.075005
    26  C   -0.004070
    27  C   -0.051239
    28  C    0.088294
    29  C    0.063741
    30  C    0.024264
    31  C    0.002187
    32  N   -0.340229
    33  C    0.098569
    34  C   -0.182229
    35  C    0.104033
    36  C    0.159800
    37  C    0.133475
    38  C   -0.059259
    39  O   -0.207732
    40  C    0.035658
    41  C    0.229337
    42  O   -0.241954
    43  O   -0.360264
    44  C    0.180285
    45  H   -0.026079
    46  H   -0.008882
    47  H   -0.021125
    48  H   -0.002180
    49  H   -0.007268
    50  H    0.013801
    51  H    0.031658
    52  H    0.021375
    53  H   -0.004191
    54  H    0.042557
    55  H    0.020635
    56  H    0.016965
    57  H    0.018608
    58  H    0.045564
    59  H    0.019726
    60  H    0.029452
    61  H    0.051843
    62  H    0.006387
    63  H    0.019222
    64  H    0.003014
    65  H    0.017824
    66  H    0.011208
    67  H    0.020549
    68  H    0.005192
    69  H   -0.001528
    70  H    0.023071
    71  H    0.027973
    72  H    0.019102
    73  H    0.034973
    74  H    0.045117
    75  H   -0.002663
    76  H    0.036161
    77  H    0.050342
    78  H    0.051235
    79  H    0.043071
    80  Mg   0.815999
    81  C    0.061214
    82  C   -0.041723
    83  C   -0.115175
    84  C   -0.090417
    85  N   -0.274156
    86  C   -0.072866
    87  C    0.029097
    88  C   -0.105853
    89  C    0.020246
    90  C    0.061885
    91  C    0.063558
    92  C   -0.082723
    93  H    0.022762
    94  N   -0.454290
    95  C    0.183592
    96  C   -0.155228
    97  C   -0.020193
    98  C    0.249226
    99  C    0.147964
   100  C   -0.059464
   101  O   -0.208303
   102  C    0.069703
   103  N   -0.300502
   104  C    0.044396
   105  C   -0.028522
   106  C   -0.022861
   107  C    0.032434
   108  C    0.076672
   109  C    0.046869
   110  C    0.037652
   111  N   -0.321489
   112  C    0.100569
   113  C   -0.177565
   114  C    0.038545
   115  C    0.077980
   116  C    0.134565
   117  C    0.030779
   118  O   -0.149836
   119  C   -0.065430
   120  C    0.186047
   121  O   -0.240096
   122  O   -0.329609
   123  C    0.188618
   124  H   -0.024495
   125  H   -0.026354
   126  H   -0.025893
   127  H    0.025417
   128  H    0.016545
   129  H    0.017345
   130  H    0.029787
   131  H    0.010101
   132  H    0.027877
   133  H    0.028696
   134  H    0.041747
   135  H    0.032903
   136  H   -0.022426
   137  H    0.032841
   138  H    0.041454
   139  H    0.021189
   140  H    0.040069
   141  H    0.031177
   142  H    0.007608
   143  H    0.001065
   144  H    0.012677
   145  H    0.023917
   146  H    0.006027
   147  H    0.014760
   148  H   -0.004745
   149  H    0.004564
   150  H    0.009356
   151  H    0.010879
   152  H    0.014780
   153  H    0.043066
   154  H    0.027799
   155  H    0.023548
   156  H    0.040305
   157  H    0.030032
   158  H    0.032313
 Sum of Mulliken charges =  -0.00000

 Dipole moment (field-independent basis, Debye):
    X=              4.1207    Y=              1.6355    Z=              2.1212  Tot=              4.9147
 Quadrupole moment (field-independent basis, Debye-Ang):
   XX=           -569.5151   YY=           -529.5506   ZZ=           -496.8159
   XY=            -74.9457   XZ=             41.0260   YZ=            -10.7998

 Normal termination of Gaussian 16 at Wed Sep 15 09:56:39 2021.
