 Gaussian 16, Revision A.03,
 Gaussian 16:  ES64L-G16RevA.03 25-Dec-2016

 -----------------------------------
 #p cam-b3lyp/Def2SVP td=(nstates=5)
 -----------------------------------

 --------------------------------
 TDDFT excited states in gaussian
 --------------------------------
 Symbolic Z-matrix:
 Charge =  0 Multiplicity = 1

                         Standard orientation:
 ---------------------------------------------------------------------
 Center     Atomic      Atomic             Coordinates (Angstroms)
 Number     Number       Type             X           Y           Z
 ---------------------------------------------------------------------
      1         12           0       31.391196    0.397560   -0.209206
      2          6           0       28.727653   -1.667739    0.889339
      3          6           0       29.423263    3.082966    0.456718
      4          6           0       34.181492    2.323196   -0.465256
      5          6           0       33.397074   -2.426683   -0.322570
      6          7           0       29.348089    0.554730    0.743461
      7          6           0       28.384067   -0.376701    1.024850
      8          6           0       27.099264    0.252587    1.417568
      9          6           0       27.276005    1.769240    0.936726
     10          6           0       28.748458    1.827883    0.712552
     11          6           0       26.445810    2.072258   -0.300182
     12          6           0       26.911330    0.005606    2.922660
     13          6           0       25.558734   -0.679019    3.391367
     14          1           0       24.642822   -0.013779    4.462471
     15          7           0       31.806437    2.413229   -0.085883
     16          6           0       30.805235    3.373602    0.114852
     17          6           0       31.391862    4.663102   -0.094929
     18          6           0       32.797826    4.502014   -0.337697
     19          6           0       32.965555    3.024583   -0.377749
     20          6           0       30.538845    5.924477   -0.053811
     21          6           0       33.853920    5.563446   -0.550503
     22          8           0       33.382605    6.735219   -0.623212
     23          6           0       35.400504    5.405235   -0.579854
     24          7           0       33.532708    0.021445   -0.383826
     25          6           0       34.469110    0.987888   -0.506498
     26          6           0       35.913941    0.430283   -0.602714
     27          6           0       35.638845   -1.111677   -0.668733
     28          6           0       34.064850   -1.178561   -0.384200
     29          6           0       36.598439    0.995341   -1.834425
     30          6           0       36.393976   -1.942246    0.323587
     31          6           0       37.427462   -2.842358   -0.297405
     32          7           0       31.163750   -1.606130    0.003826
     33          6           0       32.031714   -2.699147   -0.113300
     34          6           0       31.358547   -3.896091   -0.097656
     35          6           0       30.040670   -3.543664    0.258179
     36          6           0       29.997733   -2.156938    0.382977
     37          6           0       31.973007   -5.211107   -0.528377
     38          6           0       28.674556   -4.096178    0.458176
     39          8           0       28.295596   -5.222698    0.369725
     40          6           0       27.855715   -2.844696    0.953726
     41          6           0       26.495748   -2.918540    0.294426
     42          8           0       25.461132   -3.269578    0.861690
     43          8           0       26.575432   -2.476969   -1.048674
     44          6           0       25.263833   -2.410178   -1.692475
     45          1           0       28.742415    3.937007    0.452151
     46          1           0       35.088943    2.902415   -0.651501
     47          1           0       33.994353   -3.318291   -0.123903
     48          1           0       26.281466   -0.227180    0.879709
     49          1           0       26.934592    2.421115    1.740396
     50          1           0       26.405542    1.242716   -1.004779
     51          1           0       26.936243    2.874763   -0.852155
     52          1           0       25.441070    2.431860   -0.078298
     53          1           0       26.999552    0.972775    3.417324
     54          1           0       27.735225   -0.536739    3.386519
     55          1           0       25.954885   -1.605726    3.807362
     56          1           0       24.993789   -1.042834    2.533934
     57          1           0       29.932197    5.958321    0.851152
     58          1           0       29.864752    5.859809   -0.907844
     59          1           0       31.057972    6.882695   -0.005721
     60          1           0       35.575711    4.865734   -1.510082
     61          1           0       35.704445    4.811581    0.282370
     62          1           0       35.920533    6.362480   -0.534454
     63          1           0       36.547179    0.686987    0.246153
     64          1           0       35.735465   -1.461869   -1.696095
     65          1           0       36.478917    2.078638   -1.810596
     66          1           0       36.101926    0.586720   -2.715126
     67          1           0       37.634414    0.729010   -2.040563
     68          1           0       35.762897   -2.624576    0.893037
     69          1           0       36.915406   -1.406137    1.116311
     70          1           0       38.381380   -2.639890    0.188011
     71          1           0       37.602814   -2.621112   -1.350213
     72          1           0       37.173576   -3.902494   -0.267556
     73          1           0       31.136307   -5.881662   -0.726942
     74          1           0       32.610260   -5.642638    0.243130
     75          1           0       32.554043   -4.965610   -1.417045
     76          1           0       27.644939   -3.113345    1.989505
     77          1           0       25.266339   -1.664765   -2.487858
     78          1           0       24.508598   -2.013032   -1.015728
     79          1           0       24.916354   -3.377387   -2.056650
     80         12           0      -31.547768    0.032181    0.494633
     81          6           0      -29.249878   -1.591463   -1.672784
     82          6           0      -32.450087    1.977028   -2.318800
     83          6           0      -33.435453    1.849362    2.438556
     84          6           0      -30.267574   -1.815389    3.148720
     85          7           0      -30.901253    0.185416   -1.786175
     86          6           0      -30.017467   -0.678899   -2.384486
     87          6           0      -29.931833   -0.499025   -3.890686
     88          6           0      -30.891728    0.758042   -4.041110
     89          6           0      -31.491575    0.978731   -2.643915
     90          6           0      -30.159253    1.931444   -4.685177
     91          6           0      -30.446455   -1.758138   -4.622346
     92          6           0      -29.743208   -2.189918   -5.965302
     93          1           0      -28.924216   -1.126070   -6.733606
     94          7           0      -32.842571    1.644656    0.110979
     95          6           0      -33.000643    2.336469   -1.090235
     96          6           0      -33.991855    3.402604   -0.875369
     97          6           0      -34.361749    3.304934    0.505696
     98          6           0      -33.551289    2.194886    1.042322
     99          6           0      -34.367455    4.345706   -1.889258
    100          6           0      -35.354910    4.160481    1.285713
    101          8           0      -35.498944    4.017496    2.510278
    102          6           0      -36.296030    5.057171    0.581754
    103          7           0      -31.738037    0.088308    2.529326
    104          6           0      -32.667981    0.865967    3.089992
    105          6           0      -32.662512    0.715955    4.646059
    106          6           0      -31.802596   -0.574831    4.828674
    107          6           0      -31.211137   -0.799219    3.472380
    108          6           0      -32.167378    1.991972    5.417474
    109          6           0      -32.833974   -1.708274    5.198513
    110          6           0      -33.443695   -2.619581    4.078188
    111          7           0      -30.154649   -1.473764    0.728850
    112          6           0      -29.731780   -2.121522    1.903710
    113          6           0      -28.634531   -3.055872    1.549581
    114          6           0      -28.403261   -2.820616    0.199326
    115          6           0      -29.316162   -1.914690   -0.297774
    116          6           0      -27.866399   -3.714295    2.592115
    117          6           0      -27.455362   -3.148089   -0.862885
    118          8           0      -26.466556   -3.869363   -0.794133
    119          6           0      -27.948465   -2.333691   -2.149518
    120          6           0      -26.885392   -1.430273   -2.652946
    121          8           0      -26.745835   -0.244770   -2.366190
    122          8           0      -26.058274   -2.145596   -3.539439
    123          6           0      -24.895466   -1.537508   -4.145598
    124          1           0      -32.958874    2.445542   -3.164304
    125          1           0      -34.059482    2.405162    3.142036
    126          1           0      -29.981944   -2.362464    4.049272
    127          1           0      -28.919962   -0.276739   -4.230504
    128          1           0      -31.625043    0.481940   -4.798323
    129          1           0      -30.631868    2.332478   -5.581099
    130          1           0      -29.115192    1.760682   -4.947734
    131          1           0      -30.218507    2.756924   -3.974585
    132          1           0      -31.511800   -1.673554   -4.836450
    133          1           0      -30.319975   -2.505000   -3.837803
    134          1           0      -30.487920   -2.482243   -6.704853
    135          1           0      -29.269616   -3.145527   -5.740358
    136          1           0      -35.456177    4.319929   -1.939661
    137          1           0      -33.763870    4.214812   -2.786879
    138          1           0      -33.959429    5.260305   -1.457842
    139          1           0      -35.821825    5.946588    0.165724
    140          1           0      -37.041322    5.423571    1.287464
    141          1           0      -36.666763    4.523423   -0.292855
    142          1           0      -33.736324    0.595876    4.789810
    143          1           0      -31.095916   -0.479097    5.653399
    144          1           0      -33.021563    2.587119    5.740653
    145          1           0      -31.460240    2.498145    4.761118
    146          1           0      -31.626117    1.620951    6.287648
    147          1           0      -33.566065   -1.311296    5.902044
    148          1           0      -32.202401   -2.465835    5.663489
    149          1           0      -34.498587   -2.671013    4.346179
    150          1           0      -33.043252   -3.634131    4.088041
    151          1           0      -33.392052   -2.231153    3.061632
    152          1           0      -27.575657   -2.968384    3.330736
    153          1           0      -26.960653   -4.090717    2.115608
    154          1           0      -28.370599   -4.615513    2.939902
    155          1           0      -28.130727   -3.118234   -2.884593
    156          1           0      -23.968498   -1.751787   -3.614258
    157          1           0      -25.093296   -0.506477   -4.439144
    158          1           0      -24.908335   -2.015673   -5.125450
 ---------------------------------------------------------------------

 SCF Done:  E(RCAM-B3LYP) =  -4069.80781846     A.U. after   19 cycles

 Excitation energies and oscillator strengths:

 Excited State   1:      Singlet-A      1.6837 eV  736.38 nm  f=0.3603  <S**2>=0.000
     309 -> 315       -0.17392
     311 -> 313        0.68685
     309 <- 315       -0.10795
 This state for optimization and/or second-order correction.
 Total Energy, E(TD-HF/TD-DFT) =  -4069.74594364
 Copying the excited state density for this state as the 1-particle RhoCI density.

 Excited State   2:      Singlet-A      1.7491 eV  708.84 nm  f=0.3747  <S**2>=0.000
     310 -> 316       -0.18984
     312 -> 314        0.68132
     310 <- 316       -0.10804

 Excited State   3:      Singlet-A      2.2196 eV  558.59 nm  f=0.1597  <S**2>=0.000
     309 -> 313        0.64872
     311 -> 315        0.26683

 Excited State   4:      Singlet-A      2.2728 eV  545.50 nm  f=0.0723  <S**2>=0.000
     310 -> 314        0.62313
     312 -> 316        0.32197

 Excited State   5:      Singlet-A      2.9591 eV  418.99 nm  f=0.0000  <S**2>=0.000
     312 -> 313        0.70711

 The electronic state is 1-A.
 Alpha  occ. eigenvalues --  -46.89020 -46.88495 -19.25639 -19.23970 -19.21020
 Alpha  occ. eigenvalues --  -19.19873 -19.19865 -19.19308 -19.18726 -19.18315
 Alpha  occ. eigenvalues --  -14.42382 -14.42241 -14.42114 -14.41274 -14.40100
 Alpha  occ. eigenvalues --  -14.39674 -14.39010 -14.38907 -10.40365 -10.39472
 Alpha  occ. eigenvalues --  -10.35675 -10.35491 -10.35365 -10.35275 -10.31997
 Alpha  occ. eigenvalues --  -10.31674 -10.31174 -10.31135 -10.30998 -10.30867
 Alpha  occ. eigenvalues --  -10.30759 -10.30678 -10.30647 -10.30562 -10.30441
 Alpha  occ. eigenvalues --  -10.30378 -10.30305 -10.30205 -10.29224 -10.29177
 Alpha  occ. eigenvalues --  -10.29071 -10.29018 -10.28875 -10.28861 -10.28579
 Alpha  occ. eigenvalues --  -10.28552 -10.28549 -10.28417 -10.28339 -10.28331
 Alpha  occ. eigenvalues --  -10.28225 -10.28215 -10.28030 -10.27998 -10.27739
 Alpha  occ. eigenvalues --  -10.27572 -10.27543 -10.27490 -10.27436 -10.27384
 Alpha  occ. eigenvalues --  -10.27383 -10.27312 -10.27271 -10.27229 -10.27130
 Alpha  occ. eigenvalues --  -10.27045 -10.27031 -10.26981 -10.26800 -10.26770
 Alpha  occ. eigenvalues --  -10.26597 -10.26503 -10.26496 -10.26419 -10.26359
 Alpha  occ. eigenvalues --  -10.26305 -10.25965 -10.25741 -10.25379 -10.25328
 Alpha  occ. eigenvalues --  -10.25300 -10.25268 -10.25214 -10.25096 -10.25084
 Alpha  occ. eigenvalues --  -10.24686  -3.17583  -3.17038  -1.92464  -1.92044
 Alpha  occ. eigenvalues --   -1.91945  -1.91888  -1.91505  -1.91326  -1.15601
 Alpha  occ. eigenvalues --   -1.14644  -1.12053  -1.09647  -1.09194  -1.07963
 Alpha  occ. eigenvalues --   -1.07641  -1.07236  -1.05266  -1.04748  -1.04285
 Alpha  occ. eigenvalues --   -1.04030  -1.03369  -1.03082  -1.02765  -1.01363
 Alpha  occ. eigenvalues --   -0.93330  -0.91968  -0.89948  -0.89871  -0.89335
 Alpha  occ. eigenvalues --   -0.89074  -0.88647  -0.88374  -0.87878  -0.87322
 Alpha  occ. eigenvalues --   -0.87026  -0.86724  -0.86172  -0.85967  -0.84852
 Alpha  occ. eigenvalues --   -0.84293  -0.84120  -0.83287  -0.82647  -0.82632
 Alpha  occ. eigenvalues --   -0.81981  -0.81965  -0.80819  -0.80718  -0.80509
 Alpha  occ. eigenvalues --   -0.80427  -0.78933  -0.77828  -0.77476  -0.77092
 Alpha  occ. eigenvalues --   -0.76913  -0.76842  -0.76513  -0.75773  -0.75524
 Alpha  occ. eigenvalues --   -0.74766  -0.73542  -0.72241  -0.72114  -0.71289
 Alpha  occ. eigenvalues --   -0.69428  -0.69222  -0.69005  -0.68897  -0.67826
 Alpha  occ. eigenvalues --   -0.67729  -0.67252  -0.66693  -0.66368  -0.65712
 Alpha  occ. eigenvalues --   -0.65368  -0.64989  -0.64949  -0.64666  -0.64446
 Alpha  occ. eigenvalues --   -0.64171  -0.63138  -0.61519  -0.60548  -0.60315
 Alpha  occ. eigenvalues --   -0.60111  -0.59613  -0.59349  -0.59029  -0.58978
 Alpha  occ. eigenvalues --   -0.58075  -0.58048  -0.57859  -0.57151  -0.56906
 Alpha  occ. eigenvalues --   -0.56263  -0.56246  -0.55845  -0.55647  -0.55476
 Alpha  occ. eigenvalues --   -0.55315  -0.54965  -0.54366  -0.54262  -0.53941
 Alpha  occ. eigenvalues --   -0.53917  -0.53835  -0.53607  -0.53309  -0.53223
 Alpha  occ. eigenvalues --   -0.53137  -0.52752  -0.52717  -0.52311  -0.52303
 Alpha  occ. eigenvalues --   -0.52063  -0.51794  -0.51732  -0.51484  -0.51290
 Alpha  occ. eigenvalues --   -0.51138  -0.50894  -0.50748  -0.50591  -0.50563
 Alpha  occ. eigenvalues --   -0.50308  -0.50059  -0.49888  -0.49884  -0.49768
 Alpha  occ. eigenvalues --   -0.49674  -0.49543  -0.49009  -0.48930  -0.48892
 Alpha  occ. eigenvalues --   -0.48665  -0.48509  -0.48370  -0.48359  -0.48064
 Alpha  occ. eigenvalues --   -0.48012  -0.47747  -0.47578  -0.47346  -0.47230
 Alpha  occ. eigenvalues --   -0.46934  -0.46904  -0.46662  -0.46623  -0.46478
 Alpha  occ. eigenvalues --   -0.46088  -0.46036  -0.45977  -0.45926  -0.45763
 Alpha  occ. eigenvalues --   -0.45510  -0.45375  -0.45324  -0.45168  -0.45002
 Alpha  occ. eigenvalues --   -0.44902  -0.44597  -0.44237  -0.44216  -0.44070
 Alpha  occ. eigenvalues --   -0.44032  -0.43986  -0.43914  -0.43681  -0.43647
 Alpha  occ. eigenvalues --   -0.43403  -0.43299  -0.43285  -0.42941  -0.42669
 Alpha  occ. eigenvalues --   -0.42537  -0.42516  -0.42451  -0.42427  -0.42090
 Alpha  occ. eigenvalues --   -0.41935  -0.41750  -0.41677  -0.41596  -0.41410
 Alpha  occ. eigenvalues --   -0.41286  -0.41126  -0.41004  -0.40648  -0.40328
 Alpha  occ. eigenvalues --   -0.40147  -0.39836  -0.39355  -0.39053  -0.38790
 Alpha  occ. eigenvalues --   -0.38561  -0.38238  -0.37824  -0.37732  -0.37407
 Alpha  occ. eigenvalues --   -0.37344  -0.37267  -0.37095  -0.36619  -0.36437
 Alpha  occ. eigenvalues --   -0.36105  -0.35665  -0.35427  -0.34713  -0.34159
 Alpha  occ. eigenvalues --   -0.34020  -0.33278  -0.33203  -0.31762  -0.31179
 Alpha  occ. eigenvalues --   -0.31138  -0.30944  -0.30806  -0.30596  -0.30138
 Alpha  occ. eigenvalues --   -0.30031  -0.29802  -0.29326  -0.24425  -0.23863
 Alpha  occ. eigenvalues --   -0.21657  -0.20766
 Alpha virt. eigenvalues --   -0.09340  -0.08126  -0.01846  -0.01688   0.00216
 Alpha virt. eigenvalues --    0.00254   0.01789   0.02201   0.02393   0.03348
 Alpha virt. eigenvalues --    0.04135   0.04846   0.05009   0.05105   0.05697

 Mulliken charges:
               1
     1  Mg   0.834374
     2  C    0.054432
     3  C   -0.069497
     4  C   -0.042643
     5  C   -0.089404
     6  N   -0.294795
     7  C   -0.091739
     8  C   -0.014631
     9  C   -0.026237
    10  C    0.046653
    11  C    0.078052
    12  C    0.043285
    13  C   -0.061171
    14  H    0.031841
    15  N   -0.389573
    16  C    0.137838
    17  C   -0.128907
    18  C   -0.023668
    19  C    0.152815
    20  C    0.116425
    21  C   -0.020005
    22  O   -0.248443
    23  C    0.085879
    24  N   -0.230560
    25  C   -0.019167
    26  C    0.006704
    27  C   -0.010751
    28  C    0.025323
    29  C    0.055037
    30  C    0.043156
    31  C   -0.008601
    32  N   -0.375672
    33  C    0.100466
    34  C   -0.182937
    35  C   -0.033734
    36  C    0.116697
    37  C    0.133509
    38  C    0.043071
    39  O   -0.120463
    40  C    0.002781
    41  C    0.187323
    42  O   -0.212249
    43  O   -0.363352
    44  C    0.180000
    45  H   -0.018608
    46  H   -0.075978
    47  H   -0.016212
    48  H    0.012636
    49  H    0.010836
    50  H    0.016017
    51  H    0.003192
    52  H    0.023995
    53  H    0.006981
    54  H    0.023789
    55  H    0.028349
    56  H    0.033081
    57  H    0.012513
    58  H    0.023910
    59  H    0.040145
    60  H    0.042587
    61  H    0.043388
    62  H    0.036484
    63  H    0.016284
    64  H    0.018826
    65  H    0.011199
    66  H    0.003367
    67  H    0.016379
    68  H    0.007505
    69  H    0.001218
    70  H    0.009127
    71  H    0.000917
    72  H    0.018434
    73  H    0.037282
    74  H    0.028799
    75  H    0.024974
    76  H    0.038887
    77  H    0.028870
    78  H    0.028190
    79  H    0.045176
    80  Mg   0.821071
    81  C    0.030401
    82  C   -0.107819
    83  C   -0.061728
    84  C   -0.079794
    85  N   -0.200752
    86  C   -0.088511
    87  C   -0.039411
    88  C   -0.030691
    89  C    0.038607
    90  C    0.062996
    91  C    0.035501
    92  C   -0.045794
    93  H    0.027974
    94  N   -0.333884
    95  C    0.142454
    96  C   -0.171143
    97  C   -0.048873
    98  C    0.118337
    99  C    0.141188
   100  C    0.013179
   101  O   -0.220263
   102  C    0.057287
   103  N   -0.336838
   104  C    0.016391
   105  C   -0.060061
   106  C    0.004133
   107  C    0.025594
   108  C    0.091678
   109  C   -0.015101
   110  C    0.015175
   111  N   -0.395350
   112  C    0.152191
   113  C   -0.185230
   114  C    0.030585
   115  C    0.122667
   116  C    0.129679
   117  C    0.041177
   118  O   -0.160934
   119  C   -0.039300
   120  C    0.232539
   121  O   -0.216963
   122  O   -0.361699
   123  C    0.186991
   124  H   -0.014576
   125  H   -0.010695
   126  H   -0.032460
   127  H    0.024586
   128  H    0.002110
   129  H    0.003001
   130  H    0.024004
   131  H    0.005977
   132  H    0.006715
   133  H    0.011622
   134  H    0.020925
   135  H    0.030084
   136  H    0.040055
   137  H    0.014426
   138  H    0.038054
   139  H    0.028237
   140  H    0.036998
   141  H    0.029778
   142  H    0.014465
   143  H    0.008527
   144  H    0.034315
   145  H    0.027503
   146  H    0.007525
   147  H    0.020652
   148  H    0.002250
   149  H    0.010455
   150  H    0.021422
   151  H    0.027516
   152  H    0.036509
   153  H    0.019142
   154  H    0.021709
   155  H    0.045242
   156  H    0.053689
   157  H    0.030212
   158  H    0.022368
 Sum of Mulliken charges =  -0.00000

 Dipole moment (field-independent basis, Debye):
    X=             -0.1814    Y=              2.7330    Z=             -4.3638  Tot=              5.1522
 Quadrupole moment (field-independent basis, Debye-Ang):
   XX=            -92.1384   YY=           -563.5837   ZZ=           -480.4185
   XY=            -31.8887   XZ=             35.9731   YZ=             -6.6701

 Normal termination of Gaussian 16 at Wed Sep 15 17:40:36 2021.
