 Gaussian 16, Revision A.03,
 Gaussian 16:  ES64L-G16RevA.03 25-Dec-2016

 -----------------------------------
 #p cam-b3lyp/Def2SVP td=(nstates=5)
 -----------------------------------

 --------------------------------
 TDDFT excited states in gaussian
 --------------------------------
 Symbolic Z-matrix:
 Charge =  0 Multiplicity = 1

                         Standard orientation:
 ---------------------------------------------------------------------
 Center     Atomic      Atomic             Coordinates (Angstroms)
 Number     Number       Type             X           Y           Z
 ---------------------------------------------------------------------
      1         12           0       21.256129    0.577421   -0.043979
      2          6           0       20.117415   -2.711954   -0.410879
      3          6           0       18.443549    1.090680    1.901948
      4          6           0       22.429755    3.623458    0.653349
      5          6           0       24.374775   -0.385657   -1.295742
      6          7           0       19.506697   -0.854733    0.837125
      7          6           0       19.222820   -2.105250    0.425427
      8          6           0       17.970930   -2.676288    1.046967
      9          6           0       17.360787   -1.301575    1.518582
     10          6           0       18.480692   -0.266678    1.484844
     11          6           0       16.247121   -0.851464    0.535758
     12          6           0       18.303979   -3.767004    2.072829
     13          6           0       19.511772   -3.590182    3.016466
     14          1           0       19.246483   -3.850100    4.494623
     15          7           0       20.549017    2.126988    1.088977
     16          6           0       19.323363    2.165389    1.699236
     17          6           0       18.968885    3.565570    1.965625
     18          6           0       20.178038    4.343389    1.761161
     19          6           0       21.102655    3.352950    1.129856
     20          6           0       17.643898    3.984016    2.710618
     21          6           0       20.395734    5.815693    2.118929
     22          8           0       19.481482    6.493957    2.496895
     23          6           0       21.752919    6.436261    1.953342
     24          7           0       23.267036    1.399946   -0.116472
     25          6           0       23.506523    2.765228    0.126417
     26          6           0       24.998623    3.199372   -0.196765
     27          6           0       25.567322    1.869870   -0.887851
     28          6           0       24.308262    0.890647   -0.805286
     29          6           0       25.291964    4.541084   -1.036748
     30          6           0       26.904647    1.240383   -0.284284
     31          6           0       27.785558    0.563167   -1.446774
     32          7           0       22.130322   -1.169152   -0.787431
     33          6           0       23.376961   -1.377235   -1.341675
     34          6           0       23.447472   -2.737022   -1.862523
     35          6           0       22.185894   -3.333219   -1.605769
     36          6           0       21.433769   -2.349109   -0.868221
     37          6           0       24.564126   -3.326912   -2.683494
     38          6           0       21.321755   -4.557565   -1.651194
     39          8           0       21.579808   -5.684161   -2.012150
     40          6           0       19.970562   -4.137777   -0.930807
     41          6           0       18.878243   -4.273134   -1.955785
     42          8           0       18.378938   -5.370541   -2.309610
     43          8           0       18.423980   -3.014052   -2.320646
     44          6           0       17.238245   -2.994967   -3.110380
     45          1           0       17.512220    1.281367    2.439434
     46          1           0       22.846893    4.632814    0.643037
     47          1           0       25.281338   -0.609919   -1.861922
     48          1           0       17.280845   -3.052521    0.291998
     49          1           0       16.921384   -1.253164    2.513995
     50          1           0       16.293322    0.237606    0.513812
     51          1           0       15.287483   -1.278984    0.822861
     52          1           0       16.362938   -1.056520   -0.528961
     53          1           0       18.564919   -4.648004    1.487251
     54          1           0       17.407383   -3.961742    2.661420
     55          1           0       19.852774   -2.556634    2.961802
     56          1           0       20.277925   -4.306609    2.721482
     57          1           0       17.652668    3.831220    3.790162
     58          1           0       16.799553    3.444107    2.281906
     59          1           0       17.311421    5.009867    2.556132
     60          1           0       21.800349    7.435690    2.386998
     61          1           0       22.069776    6.504311    0.912443
     62          1           0       22.362564    5.810282    2.605485
     63          1           0       25.374273    3.306837    0.820106
     64          1           0       25.748865    2.029320   -1.950342
     65          1           0       25.387172    5.353471   -0.317229
     66          1           0       24.495312    4.748091   -1.750771
     67          1           0       26.209858    4.395835   -1.606743
     68          1           0       26.680652    0.394013    0.364912
     69          1           0       27.463398    1.980353    0.289261
     70          1           0       27.910339   -0.505236   -1.270109
     71          1           0       28.771362    1.026744   -1.469806
     72          1           0       27.392255    0.538720   -2.462465
     73          1           0       25.482074   -3.278486   -2.098702
     74          1           0       24.699258   -2.739579   -3.591977
     75          1           0       24.395384   -4.377330   -2.920098
     76          1           0       19.801712   -4.937198   -0.209683
     77          1           0       16.920629   -1.962592   -3.254937
     78          1           0       16.478704   -3.660089   -2.699146
     79          1           0       17.426040   -3.305870   -4.138048
     80         12           0      -21.783119    0.068535   -0.575363
     81          6           0      -18.354899    0.217022    0.473192
     82          6           0      -21.909462   -3.010949    1.230376
     83          6           0      -25.141324    0.153851   -0.511783
     84          6           0      -21.544275    3.330470   -1.574883
     85          7           0      -20.303890   -1.170537    0.703333
     86          6           0      -18.985418   -0.933073    0.961642
     87          6           0      -18.347747   -2.068207    1.836502
     88          6           0      -19.442756   -3.228356    1.675874
     89          6           0      -20.645528   -2.401498    1.250145
     90          6           0      -19.115805   -4.265784    0.626348
     91          6           0      -17.969692   -1.612893    3.236285
     92          6           0      -16.592531   -2.063797    3.788674
     93          1           0      -16.478241   -3.288038    4.811430
     94          7           0      -23.378922   -1.323668    0.173725
     95          6           0      -23.173051   -2.570951    0.799384
     96          6           0      -24.477748   -3.205057    1.024727
     97          6           0      -25.442881   -2.280574    0.461162
     98          6           0      -24.712051   -1.085020    0.099686
     99          6           0      -24.741339   -4.487868    1.719232
    100          6           0      -26.915857   -2.559674    0.297101
    101          8           0      -27.310614   -3.684305    0.508291
    102          6           0      -27.938033   -1.530705   -0.127670
    103          7           0      -23.061762    1.558785   -0.869511
    104          6           0      -24.423788    1.280036   -0.940022
    105          6           0      -25.134529    2.574532   -1.341792
    106          6           0      -23.977074    3.494455   -1.877498
    107          6           0      -22.774004    2.722587   -1.451688
    108          6           0      -26.388987    2.472812   -2.285076
    109          6           0      -23.973006    4.994292   -1.450020
    110          6           0      -23.933946    6.029602   -2.526392
    111          7           0      -20.291328    1.469168   -0.691265
    112          6           0      -20.307592    2.757073   -1.197657
    113          6           0      -18.935941    3.285638   -1.327462
    114          6           0      -18.158263    2.301485   -0.602337
    115          6           0      -19.037399    1.272163   -0.252093
    116          6           0      -18.439926    4.563376   -1.951565
    117          6           0      -16.767342    1.977977   -0.167952
    118          8           0      -15.759668    2.622263   -0.236810
    119          6           0      -16.905260    0.685167    0.629545
    120          6           0      -15.956479   -0.317326    0.043415
    121          8           0      -16.151412   -0.717005   -1.084368
    122          8           0      -14.937106   -0.800736    0.917620
    123          6           0      -14.117057   -1.945520    0.417346
    124          1           0      -21.978035   -3.981014    1.727413
    125          1           0      -26.215342    0.334568   -0.580457
    126          1           0      -21.483536    4.295210   -2.082277
    127          1           0      -17.473762   -2.507076    1.356062
    128          1           0      -19.695202   -3.673580    2.638166
    129          1           0      -19.383367   -3.862166   -0.349907
    130          1           0      -19.658157   -5.172568    0.893755
    131          1           0      -18.077292   -4.570688    0.493272
    132          1           0      -18.712942   -2.048620    3.903271
    133          1           0      -18.160826   -0.541722    3.300235
    134          1           0      -16.217966   -1.161869    4.273345
    135          1           0      -15.875519   -2.317266    3.007714
    136          1           0      -24.859572   -5.236972    0.936896
    137          1           0      -25.718648   -4.439273    2.199546
    138          1           0      -24.041252   -4.863523    2.466427
    139          1           0      -28.975995   -1.860616   -0.088819
    140          1           0      -27.700908   -1.298924   -1.166083
    141          1           0      -27.940412   -0.551510    0.349720
    142          1           0      -25.571687    2.882972   -0.391688
    143          1           0      -23.929629    3.380139   -2.960037
    144          1           0      -26.391553    1.522825   -2.820185
    145          1           0      -26.431167    3.329679   -2.957216
    146          1           0      -27.305303    2.555475   -1.700993
    147          1           0      -23.128547    5.165198   -0.782433
    148          1           0      -24.828553    5.138925   -0.790440
    149          1           0      -22.942439    6.481292   -2.549847
    150          1           0      -24.652507    6.817523   -2.301076
    151          1           0      -24.139469    5.705471   -3.546359
    152          1           0      -17.383990    4.488351   -2.210507
    153          1           0      -18.615719    5.351535   -1.218907
    154          1           0      -19.096693    4.800649   -2.788698
    155          1           0      -16.758035    0.934209    1.680560
    156          1           0      -13.363994   -1.568874   -0.275059
    157          1           0      -14.729827   -2.642502   -0.153952
    158          1           0      -13.661143   -2.486403    1.246393
 ---------------------------------------------------------------------

 SCF Done:  E(RCAM-B3LYP) =  -4069.80287689     A.U. after   17 cycles

 Excitation energies and oscillator strengths:

 Excited State   1:      Singlet-A      1.6714 eV  741.79 nm  f=0.3985  <S**2>=0.000
     309 -> 316        0.16934
     312 -> 313        0.68866
     309 <- 316        0.10660
 This state for optimization and/or second-order correction.
 Total Energy, E(TD-HF/TD-DFT) =  -4069.74145361
 Copying the excited state density for this state as the 1-particle RhoCI density.

 Excited State   2:      Singlet-A      1.7469 eV  709.75 nm  f=0.3591  <S**2>=0.000
     310 -> 315        0.19411
     311 -> 314        0.68068
     310 <- 315        0.10946

 Excited State   3:      Singlet-A      2.2361 eV  554.48 nm  f=0.1384  <S**2>=0.000
     309 -> 313        0.63570
     312 -> 316       -0.27900

 Excited State   4:      Singlet-A      2.2375 eV  554.13 nm  f=0.0942  <S**2>=0.000
     310 -> 314        0.62978
     311 -> 315       -0.29657

 Excited State   5:      Singlet-A      3.1550 eV  392.97 nm  f=0.0000  <S**2>=0.000
     311 -> 313        0.70710

 The electronic state is 1-A.
 Alpha  occ. eigenvalues --  -46.90391 -46.89330 -19.26035 -19.25263 -19.20734
 Alpha  occ. eigenvalues --  -19.20008 -19.19733 -19.19541 -19.19034 -19.17988
 Alpha  occ. eigenvalues --  -14.42765 -14.42255 -14.41807 -14.41720 -14.40518
 Alpha  occ. eigenvalues --  -14.39470 -14.39343 -14.39163 -10.40226 -10.39970
 Alpha  occ. eigenvalues --  -10.35783 -10.35414 -10.35300 -10.34517 -10.32827
 Alpha  occ. eigenvalues --  -10.32273 -10.31974 -10.31826 -10.31391 -10.31300
 Alpha  occ. eigenvalues --  -10.31124 -10.30845 -10.30701 -10.30582 -10.30520
 Alpha  occ. eigenvalues --  -10.30286 -10.30239 -10.30206 -10.29882 -10.29577
 Alpha  occ. eigenvalues --  -10.29544 -10.29495 -10.29260 -10.29228 -10.29109
 Alpha  occ. eigenvalues --  -10.28952 -10.28841 -10.28668 -10.28643 -10.28561
 Alpha  occ. eigenvalues --  -10.28534 -10.28520 -10.28437 -10.28387 -10.28065
 Alpha  occ. eigenvalues --  -10.28061 -10.27996 -10.27989 -10.27904 -10.27797
 Alpha  occ. eigenvalues --  -10.27788 -10.27784 -10.27742 -10.27717 -10.27607
 Alpha  occ. eigenvalues --  -10.27227 -10.27017 -10.26922 -10.26871 -10.26573
 Alpha  occ. eigenvalues --  -10.26529 -10.26528 -10.26499 -10.26423 -10.26319
 Alpha  occ. eigenvalues --  -10.26287 -10.26257 -10.26214 -10.26172 -10.26052
 Alpha  occ. eigenvalues --  -10.25942 -10.25897 -10.25882 -10.25741 -10.25537
 Alpha  occ. eigenvalues --  -10.25376  -3.18754  -3.17899  -1.93617  -1.93229
 Alpha  occ. eigenvalues --   -1.93044  -1.92748  -1.92360  -1.92207  -1.16452
 Alpha  occ. eigenvalues --   -1.15373  -1.11733  -1.11499  -1.10653  -1.10219
 Alpha  occ. eigenvalues --   -1.07873  -1.07045  -1.04781  -1.04600  -1.03883
 Alpha  occ. eigenvalues --   -1.03583  -1.02958  -1.02782  -1.01892  -1.01517
 Alpha  occ. eigenvalues --   -0.92761  -0.92508  -0.89414  -0.89015  -0.88891
 Alpha  occ. eigenvalues --   -0.88463  -0.88332  -0.87736  -0.87620  -0.87341
 Alpha  occ. eigenvalues --   -0.86236  -0.86044  -0.85660  -0.85655  -0.84846
 Alpha  occ. eigenvalues --   -0.84499  -0.83967  -0.83346  -0.82708  -0.82500
 Alpha  occ. eigenvalues --   -0.81877  -0.81849  -0.80803  -0.80562  -0.80363
 Alpha  occ. eigenvalues --   -0.80210  -0.78171  -0.77532  -0.77494  -0.77285
 Alpha  occ. eigenvalues --   -0.76805  -0.76702  -0.76416  -0.76355  -0.75318
 Alpha  occ. eigenvalues --   -0.75231  -0.72810  -0.72653  -0.72055  -0.71787
 Alpha  occ. eigenvalues --   -0.69929  -0.69557  -0.69400  -0.68942  -0.68216
 Alpha  occ. eigenvalues --   -0.67928  -0.67155  -0.66718  -0.65951  -0.65894
 Alpha  occ. eigenvalues --   -0.65102  -0.64891  -0.64834  -0.64625  -0.64548
 Alpha  occ. eigenvalues --   -0.64324  -0.63714  -0.62331  -0.60027  -0.59802
 Alpha  occ. eigenvalues --   -0.59562  -0.59270  -0.59198  -0.59074  -0.58953
 Alpha  occ. eigenvalues --   -0.58334  -0.58175  -0.57792  -0.57654  -0.57343
 Alpha  occ. eigenvalues --   -0.56544  -0.56290  -0.56088  -0.55668  -0.55487
 Alpha  occ. eigenvalues --   -0.55441  -0.55060  -0.54335  -0.54298  -0.53872
 Alpha  occ. eigenvalues --   -0.53661  -0.53371  -0.53212  -0.53088  -0.53058
 Alpha  occ. eigenvalues --   -0.52966  -0.52783  -0.52248  -0.51926  -0.51841
 Alpha  occ. eigenvalues --   -0.51730  -0.51633  -0.51439  -0.51320  -0.51107
 Alpha  occ. eigenvalues --   -0.51084  -0.50932  -0.50695  -0.50550  -0.50442
 Alpha  occ. eigenvalues --   -0.50043  -0.49945  -0.49936  -0.49878  -0.49746
 Alpha  occ. eigenvalues --   -0.49714  -0.49548  -0.49309  -0.49118  -0.48931
 Alpha  occ. eigenvalues --   -0.48712  -0.48688  -0.48601  -0.48373  -0.48193
 Alpha  occ. eigenvalues --   -0.47696  -0.47567  -0.47310  -0.47235  -0.47091
 Alpha  occ. eigenvalues --   -0.46983  -0.46946  -0.46668  -0.46427  -0.46389
 Alpha  occ. eigenvalues --   -0.46313  -0.46189  -0.46079  -0.46061  -0.45979
 Alpha  occ. eigenvalues --   -0.45833  -0.45687  -0.45554  -0.45322  -0.45256
 Alpha  occ. eigenvalues --   -0.45202  -0.44966  -0.44880  -0.44667  -0.44246
 Alpha  occ. eigenvalues --   -0.43952  -0.43854  -0.43780  -0.43635  -0.43622
 Alpha  occ. eigenvalues --   -0.43455  -0.43382  -0.43313  -0.43264  -0.42982
 Alpha  occ. eigenvalues --   -0.42906  -0.42781  -0.42647  -0.42557  -0.42435
 Alpha  occ. eigenvalues --   -0.42222  -0.42210  -0.41999  -0.41925  -0.41732
 Alpha  occ. eigenvalues --   -0.41557  -0.41232  -0.41128  -0.40836  -0.40580
 Alpha  occ. eigenvalues --   -0.40372  -0.40270  -0.39917  -0.39295  -0.39096
 Alpha  occ. eigenvalues --   -0.38942  -0.38475  -0.38119  -0.37707  -0.37347
 Alpha  occ. eigenvalues --   -0.37273  -0.37189  -0.37164  -0.36780  -0.36515
 Alpha  occ. eigenvalues --   -0.36316  -0.35828  -0.35053  -0.34686  -0.34406
 Alpha  occ. eigenvalues --   -0.34391  -0.33191  -0.33154  -0.31610  -0.31369
 Alpha  occ. eigenvalues --   -0.31202  -0.31116  -0.30900  -0.30605  -0.30500
 Alpha  occ. eigenvalues --   -0.29728  -0.29681  -0.28747  -0.24314  -0.24031
 Alpha  occ. eigenvalues --   -0.21391  -0.21132
 Alpha virt. eigenvalues --   -0.08993  -0.08632  -0.02076  -0.01504   0.00097
 Alpha virt. eigenvalues --    0.00461   0.00770   0.01237   0.02011   0.02629
 Alpha virt. eigenvalues --    0.04390   0.04396   0.04438   0.05492   0.05596

 Mulliken charges:
               1
     1  Mg   0.821381
     2  C    0.141376
     3  C   -0.072399
     4  C   -0.088183
     5  C   -0.079407
     6  N   -0.220256
     7  C   -0.143113
     8  C    0.066473
     9  C   -0.054788
    10  C   -0.010678
    11  C    0.063585
    12  C    0.064044
    13  C   -0.078555
    14  H    0.015471
    15  N   -0.372567
    16  C    0.163216
    17  C   -0.137161
    18  C   -0.058524
    19  C    0.190609
    20  C    0.093533
    21  C   -0.010336
    22  O   -0.168265
    23  C    0.051843
    24  N   -0.300582
    25  C   -0.021027
    26  C   -0.011931
    27  C   -0.040264
    28  C    0.044991
    29  C    0.055020
    30  C    0.036447
    31  C   -0.036871
    32  N   -0.352649
    33  C    0.125099
    34  C   -0.196535
    35  C    0.022494
    36  C    0.045506
    37  C    0.117941
    38  C    0.063997
    39  O   -0.137434
    40  C   -0.139056
    41  C    0.228305
    42  O   -0.237496
    43  O   -0.322908
    44  C    0.183473
    45  H   -0.018119
    46  H   -0.048434
    47  H   -0.045710
    48  H    0.002311
    49  H   -0.000444
    50  H    0.003847
    51  H    0.026715
    52  H    0.004886
    53  H    0.013092
    54  H    0.020346
    55  H    0.050688
    56  H    0.037461
    57  H    0.040190
    58  H    0.005513
    59  H    0.031884
    60  H    0.019351
    61  H    0.059878
    62  H    0.032458
    63  H    0.026032
    64  H    0.015642
    65  H    0.028252
    66  H    0.025968
    67  H    0.028338
    68  H    0.025545
    69  H    0.018993
    70  H    0.017219
    71  H    0.020676
    72  H    0.021745
    73  H    0.015697
    74  H    0.029792
    75  H    0.034181
    76  H    0.055816
    77  H    0.031253
    78  H    0.037705
    79  H    0.027415
    80  Mg   0.850182
    81  C   -0.068710
    82  C   -0.046550
    83  C   -0.070143
    84  C   -0.117771
    85  N   -0.248514
    86  C   -0.056111
    87  C   -0.029271
    88  C   -0.067524
    89  C    0.027851
    90  C    0.088675
    91  C    0.079558
    92  C   -0.054261
    93  H    0.008702
    94  N   -0.346054
    95  C    0.095285
    96  C   -0.125926
    97  C   -0.029142
    98  C    0.139835
    99  C    0.130524
   100  C   -0.009053
   101  O   -0.204437
   102  C    0.048537
   103  N   -0.372413
   104  C    0.069205
   105  C   -0.081044
   106  C    0.022200
   107  C    0.057897
   108  C    0.063541
   109  C    0.049696
   110  C    0.008707
   111  N   -0.354579
   112  C    0.126928
   113  C   -0.181007
   114  C   -0.063991
   115  C    0.147744
   116  C    0.135421
   117  C    0.053052
   118  O   -0.136319
   119  C    0.059768
   120  C    0.212857
   121  O   -0.206827
   122  O   -0.375236
   123  C    0.175413
   124  H   -0.030886
   125  H   -0.056680
   126  H   -0.037327
   127  H    0.003953
   128  H    0.001859
   129  H    0.021995
   130  H    0.020351
   131  H    0.014397
   132  H    0.012531
   133  H    0.016694
   134  H    0.032654
   135  H    0.027189
   136  H    0.030830
   137  H    0.030824
   138  H    0.014453
   139  H    0.024100
   140  H    0.029760
   141  H    0.037076
   142  H    0.024832
   143  H    0.007138
   144  H    0.023796
   145  H    0.015796
   146  H    0.009096
   147  H    0.014430
   148  H   -0.000379
   149  H    0.015701
   150  H    0.013731
   151  H    0.015191
   152  H    0.047870
   153  H    0.030546
   154  H    0.013035
   155  H    0.042048
   156  H    0.044642
   157  H    0.034786
   158  H    0.047273
 Sum of Mulliken charges =  -0.00000

 Dipole moment (field-independent basis, Debye):
    X=              0.2092    Y=              6.0561    Z=             -1.3875  Tot=              6.2166
 Quadrupole moment (field-independent basis, Debye-Ang):
   XX=           -379.0165   YY=           -559.6771   ZZ=           -512.9554
   XY=             53.7624   XZ=              8.5352   YZ=            -34.4733

 Normal termination of Gaussian 16 at Thu Sep  2 01:36:25 2021.
