 Gaussian 16, Revision A.03,
 Gaussian 16:  ES64L-G16RevA.03 25-Dec-2016

 -----------------------------------
 #p cam-b3lyp/Def2SVP td=(nstates=5)
 -----------------------------------

 --------------------------------
 TDDFT excited states in gaussian
 --------------------------------
 Symbolic Z-matrix:
 Charge =  0 Multiplicity = 1

                         Standard orientation:
 ---------------------------------------------------------------------
 Center     Atomic      Atomic             Coordinates (Angstroms)
 Number     Number       Type             X           Y           Z
 ---------------------------------------------------------------------
      1         12           0       -4.915473    0.667434   -0.108062
      2          6           0       -2.933479   -2.177050   -0.804883
      3          6           0       -7.585093   -1.426773    0.357231
      4          6           0       -6.882921    3.331445   -0.104004
      5          6           0       -2.215451    2.667320   -1.088775
      6          7           0       -5.254269   -1.546739   -0.374150
      7          6           0       -4.247791   -2.499208   -0.554558
      8          6           0       -4.800488   -3.913971   -0.252541
      9          6           0       -6.308723   -3.643607    0.100401
     10          6           0       -6.433984   -2.094980    0.076945
     11          6           0       -7.351410   -4.463511   -0.639238
     12          6           0       -4.066055   -4.720920    0.829444
     13          6           0       -3.585221   -6.119694    0.354771
     14          1           0       -4.071693   -7.289595    1.180997
     15          7           0       -6.956365    0.894403    0.187681
     16          6           0       -7.915042   -0.065342    0.329978
     17          6           0       -9.152979    0.597788    0.663969
     18          6           0       -8.993841    2.022207    0.384057
     19          6           0       -7.564835    2.091875    0.120005
     20          6           0      -10.516843   -0.212646    0.969910
     21          6           0       -9.972612    3.080754    0.107091
     22          8           0       -9.753053    4.238415   -0.109398
     23          6           0      -11.434702    2.645343    0.080079
     24          7           0       -4.608340    2.707775   -0.751658
     25          6           0       -5.582977    3.622419   -0.582224
     26          6           0       -5.028971    5.039974   -0.743268
     27          6           0       -3.508736    4.818075   -0.694546
     28          6           0       -3.402588    3.314024   -0.812574
     29          6           0       -5.501791    5.698309   -2.119737
     30          6           0       -2.967062    5.304807    0.744624
     31          6           0       -3.329431    4.389443    1.945884
     32          7           0       -2.901067    0.408990   -0.704220
     33          6           0       -1.957696    1.301317   -1.046283
     34          6           0       -0.754940    0.581415   -1.368225
     35          6           0       -1.077425   -0.756473   -1.239042
     36          6           0       -2.428075   -0.845589   -0.891203
     37          6           0        0.597331    1.119144   -1.796000
     38          6           0       -0.482578   -2.082468   -1.426643
     39          8           0        0.539177   -2.558837   -1.834141
     40          6           0       -1.634474   -3.061582   -1.077548
     41          6           0       -1.827486   -3.896611   -2.289092
     42          8           0       -2.032403   -3.400782   -3.368497
     43          8           0       -1.659683   -5.252575   -2.058595
     44          6           0       -1.542196   -6.125645   -3.274198
     45          1           0       -8.367171   -2.105020    0.705133
     46          1           0       -7.460276    4.252710    0.001669
     47          1           0       -1.271691    3.205445   -1.199465
     48          1           0       -4.819708   -4.485367   -1.180802
     49          1           0       -6.481545   -3.995372    1.117690
     50          1           0       -6.927720   -4.931371   -1.526654
     51          1           0       -8.240280   -3.896490   -0.916970
     52          1           0       -7.606666   -5.287385    0.026753
     53          1           0       -4.611288   -4.972222    1.739223
     54          1           0       -3.198214   -4.173188    1.196090
     55          1           0       -2.506465   -6.140061    0.200293
     56          1           0       -4.018890   -6.297344   -0.628516
     57          1           0      -10.953401    0.202889    1.878054
     58          1           0      -10.409495   -1.276689    1.177183
     59          1           0      -11.284367   -0.257073    0.197267
     60          1           0      -11.606528    2.285776    1.094888
     61          1           0      -11.470551    1.844388   -0.657680
     62          1           0      -12.147424    3.451351   -0.097237
     63          1           0       -5.271348    5.700147    0.090192
     64          1           0       -2.867771    5.219435   -1.479828
     65          1           0       -5.538641    6.775780   -1.956974
     66          1           0       -6.478738    5.425910   -2.520511
     67          1           0       -4.697052    5.459470   -2.814872
     68          1           0       -3.271881    6.322373    0.988269
     69          1           0       -1.880848    5.217258    0.772265
     70          1           0       -3.114490    4.802433    2.930881
     71          1           0       -2.744133    3.475044    1.847612
     72          1           0       -4.387330    4.139342    1.859487
     73          1           0        1.091897    1.738545   -1.048115
     74          1           0        0.362274    1.740297   -2.659907
     75          1           0        1.263895    0.338729   -2.163035
     76          1           0       -1.208521   -3.670712   -0.280486
     77          1           0       -2.193802   -6.939083   -2.955098
     78          1           0       -0.532584   -6.504413   -3.432234
     79          1           0       -1.839238   -5.749023   -4.252666
     80         12           0        4.915021    0.704458    0.315951
     81          6           0        2.769872   -1.966438    1.144723
     82          6           0        7.335906   -1.671943   -0.344854
     83          6           0        7.140928    3.191402   -0.401709
     84          6           0        2.587442    2.906873    1.316456
     85          7           0        5.025236   -1.592230    0.359947
     86          6           0        3.993648   -2.493042    0.595673
     87          6           0        4.414607   -3.894557    0.201576
     88          6           0        5.978577   -3.789889    0.082456
     89          6           0        6.109078   -2.284913    0.013503
     90          6           0        6.802314   -4.497875    1.228522
     91          6           0        3.820108   -4.350873   -1.139135
     92          6           0        3.435280   -5.832109   -1.217978
     93          1           0        4.570520   -6.893343   -1.227076
     94          7           0        6.913544    0.764092   -0.371064
     95          6           0        7.684890   -0.337484   -0.519557
     96          6           0        9.009172    0.076515   -0.852391
     97          6           0        9.014606    1.502538   -1.035322
     98          6           0        7.694394    1.867790   -0.552924
     99          6           0       10.135205   -0.905075   -1.023026
    100          6           0       10.120273    2.474099   -1.448589
    101          8           0        9.877890    3.672381   -1.713015
    102          6           0       11.590942    2.074711   -1.489688
    103          7           0        4.836073    2.730618    0.354079
    104          6           0        5.895331    3.592047    0.084792
    105          6           0        5.462172    4.995802    0.358042
    106          6           0        3.971032    4.994609    0.852777
    107          6           0        3.728111    3.477192    0.812475
    108          6           0        6.453828    5.825836    1.227624
    109          6           0        2.973350    5.768770   -0.035737
    110          6           0        2.697937    7.203316    0.454855
    111          7           0        3.106665    0.574126    1.105768
    112          6           0        2.175477    1.558552    1.433660
    113          6           0        0.853986    0.982589    1.882783
    114          6           0        1.119715   -0.393578    1.795094
    115          6           0        2.441009   -0.594856    1.281177
    116          6           0       -0.381533    1.756865    2.304424
    117          6           0        0.488763   -1.685091    2.021510
    118          8           0       -0.624365   -1.974419    2.462289
    119          6           0        1.532745   -2.749588    1.476208
    120          6           0        1.701692   -3.771649    2.617537
    121          8           0        1.766532   -3.524139    3.804009
    122          8           0        1.599727   -5.054374    2.082511
    123          6           0        1.740526   -6.106110    3.089721
    124          1           0        8.050669   -2.449666   -0.621140
    125          1           0        7.764728    4.062709   -0.610754
    126          1           0        1.938068    3.678340    1.734682
    127          1           0        4.191215   -4.661202    0.943094
    128          1           0        6.397538   -4.239986   -0.817576
    129          1           0        6.215446   -5.084670    1.935762
    130          1           0        7.374715   -3.848373    1.890363
    131          1           0        7.494969   -5.228103    0.810042
    132          1           0        4.502105   -4.148380   -1.964633
    133          1           0        2.885375   -3.828529   -1.343911
    134          1           0        2.770027   -6.035419   -2.057032
    135          1           0        2.791199   -6.117545   -0.386500
    136          1           0       10.041281   -1.507734   -0.119529
    137          1           0       11.152917   -0.515007   -1.023732
    138          1           0       10.039348   -1.566385   -1.883875
    139          1           0       11.886223    1.584274   -0.561974
    140          1           0       12.080567    3.037391   -1.635988
    141          1           0       11.784050    1.369167   -2.297774
    142          1           0        5.594823    5.547145   -0.573327
    143          1           0        3.825842    5.305358    1.888208
    144          1           0        7.267002    5.163401    1.525116
    145          1           0        5.936199    6.161940    2.125667
    146          1           0        6.794984    6.614103    0.555711
    147          1           0        2.092868    5.138261   -0.157481
    148          1           0        3.398587    5.958657   -1.021484
    149          1           0        3.535207    7.553529    1.058855
    150          1           0        1.850422    7.335333    1.127711
    151          1           0        2.638524    7.850780   -0.420497
    152          1           0       -0.811981    2.190815    1.401755
    153          1           0       -0.207113    2.586387    2.989392
    154          1           0       -1.055122    1.019157    2.740215
    155          1           0        1.238060   -3.278573    0.570072
    156          1           0        2.763102   -6.445826    3.256874
    157          1           0        1.103024   -6.907315    2.716133
    158          1           0        1.425902   -5.907064    4.114156
 ---------------------------------------------------------------------

 SCF Done:  E(RCAM-B3LYP) =  -4069.86020045     A.U. after   19 cycles

 Excitation energies and oscillator strengths:

 Excited State   1:      Singlet-A      1.6364 eV  757.65 nm  f=0.9353  <S**2>=0.000
     309 -> 316       -0.11080
     310 -> 315        0.11319
     311 -> 313        0.48749
     311 -> 314       -0.10171
     312 -> 313       -0.14324
     312 -> 314       -0.45431
 This state for optimization and/or second-order correction.
 Total Energy, E(TD-HF/TD-DFT) =  -4069.80006290
 Copying the excited state density for this state as the 1-particle RhoCI density.

 Excited State   2:      Singlet-A      1.7263 eV  718.22 nm  f=0.0097  <S**2>=0.000
     310 -> 315       -0.10273
     311 -> 313        0.46791
     312 -> 313        0.13309
     312 -> 314        0.47388

 Excited State   3:      Singlet-A      2.1515 eV  576.26 nm  f=0.0131  <S**2>=0.000
     309 -> 313       -0.27645
     309 -> 314        0.14114
     310 -> 313       -0.23182
     310 -> 314       -0.11928
     311 -> 316       -0.12372
     312 -> 313        0.53339
     312 -> 314       -0.14662

 Excited State   4:      Singlet-A      2.1758 eV  569.83 nm  f=0.0593  <S**2>=0.000
     309 -> 313        0.44519
     309 -> 314       -0.11041
     310 -> 313        0.27578
     311 -> 316        0.18679
     312 -> 313        0.39495
     312 -> 314       -0.11597

 Excited State   5:      Singlet-A      2.2294 eV  556.14 nm  f=0.1264  <S**2>=0.000
     309 -> 313       -0.20060
     309 -> 314       -0.25423
     310 -> 314        0.53078
     312 -> 313        0.12125
     312 -> 315        0.26991

 The electronic state is 1-A.
 Alpha  occ. eigenvalues --  -46.89278 -46.87500 -19.25610 -19.25178 -19.20252
 Alpha  occ. eigenvalues --  -19.20149 -19.19328 -19.19282 -19.19117 -19.18242
 Alpha  occ. eigenvalues --  -14.42464 -14.41838 -14.41714 -14.41174 -14.39781
 Alpha  occ. eigenvalues --  -14.39549 -14.39358 -14.38983 -10.39500 -10.38772
 Alpha  occ. eigenvalues --  -10.35757 -10.35465 -10.35143 -10.34218 -10.31924
 Alpha  occ. eigenvalues --  -10.31341 -10.31217 -10.31163 -10.30686 -10.30684
 Alpha  occ. eigenvalues --  -10.30650 -10.30606 -10.30590 -10.30509 -10.30302
 Alpha  occ. eigenvalues --  -10.30192 -10.30056 -10.29762 -10.29474 -10.29453
 Alpha  occ. eigenvalues --  -10.29139 -10.29068 -10.28916 -10.28654 -10.28633
 Alpha  occ. eigenvalues --  -10.28504 -10.28409 -10.28334 -10.28227 -10.28202
 Alpha  occ. eigenvalues --  -10.28034 -10.27910 -10.27903 -10.27811 -10.27781
 Alpha  occ. eigenvalues --  -10.27626 -10.27612 -10.27595 -10.27450 -10.27215
 Alpha  occ. eigenvalues --  -10.27206 -10.27161 -10.27012 -10.26936 -10.26927
 Alpha  occ. eigenvalues --  -10.26806 -10.26496 -10.26472 -10.26434 -10.26338
 Alpha  occ. eigenvalues --  -10.26324 -10.26309 -10.26183 -10.26071 -10.26004
 Alpha  occ. eigenvalues --  -10.25877 -10.25872 -10.25812 -10.25749 -10.25722
 Alpha  occ. eigenvalues --  -10.25688 -10.25662 -10.25594 -10.25517 -10.24919
 Alpha  occ. eigenvalues --  -10.24867  -3.17676  -3.16282  -1.92558  -1.92146
 Alpha  occ. eigenvalues --   -1.91971  -1.91179  -1.90713  -1.90627  -1.16144
 Alpha  occ. eigenvalues --   -1.15722  -1.12176  -1.10912  -1.09374  -1.08840
 Alpha  occ. eigenvalues --   -1.08047  -1.07647  -1.04981  -1.04488  -1.04077
 Alpha  occ. eigenvalues --   -1.03628  -1.03533  -1.02951  -1.01703  -1.01393
 Alpha  occ. eigenvalues --   -0.92363  -0.92173  -0.89021  -0.88810  -0.88762
 Alpha  occ. eigenvalues --   -0.88396  -0.88243  -0.88035  -0.87549  -0.87387
 Alpha  occ. eigenvalues --   -0.86905  -0.86351  -0.86150  -0.86023  -0.84148
 Alpha  occ. eigenvalues --   -0.84060  -0.83539  -0.83374  -0.82303  -0.82065
 Alpha  occ. eigenvalues --   -0.81565  -0.80992  -0.80836  -0.80749  -0.79983
 Alpha  occ. eigenvalues --   -0.79930  -0.78375  -0.78210  -0.77440  -0.77327
 Alpha  occ. eigenvalues --   -0.76938  -0.76535  -0.75961  -0.75947  -0.75015
 Alpha  occ. eigenvalues --   -0.74964  -0.72874  -0.72576  -0.71576  -0.71511
 Alpha  occ. eigenvalues --   -0.69276  -0.69198  -0.69061  -0.68820  -0.67881
 Alpha  occ. eigenvalues --   -0.67831  -0.67027  -0.66896  -0.65508  -0.65289
 Alpha  occ. eigenvalues --   -0.65259  -0.65115  -0.64955  -0.64364  -0.64255
 Alpha  occ. eigenvalues --   -0.64023  -0.62477  -0.62258  -0.60255  -0.60138
 Alpha  occ. eigenvalues --   -0.59988  -0.59544  -0.59165  -0.58825  -0.58537
 Alpha  occ. eigenvalues --   -0.58382  -0.58147  -0.57582  -0.57450  -0.57187
 Alpha  occ. eigenvalues --   -0.55932  -0.55743  -0.55376  -0.55244  -0.55134
 Alpha  occ. eigenvalues --   -0.54999  -0.54557  -0.54371  -0.54206  -0.53635
 Alpha  occ. eigenvalues --   -0.53295  -0.53144  -0.53058  -0.52959  -0.52749
 Alpha  occ. eigenvalues --   -0.52593  -0.52507  -0.52490  -0.51977  -0.51923
 Alpha  occ. eigenvalues --   -0.51805  -0.51761  -0.51669  -0.51483  -0.51070
 Alpha  occ. eigenvalues --   -0.50822  -0.50338  -0.50315  -0.50159  -0.50062
 Alpha  occ. eigenvalues --   -0.50011  -0.49807  -0.49562  -0.49420  -0.49226
 Alpha  occ. eigenvalues --   -0.49184  -0.49083  -0.49066  -0.48912  -0.48628
 Alpha  occ. eigenvalues --   -0.48299  -0.48220  -0.48138  -0.48079  -0.47806
 Alpha  occ. eigenvalues --   -0.47708  -0.47516  -0.47452  -0.47341  -0.47279
 Alpha  occ. eigenvalues --   -0.47035  -0.46560  -0.46531  -0.46395  -0.46332
 Alpha  occ. eigenvalues --   -0.46064  -0.45961  -0.45841  -0.45805  -0.45591
 Alpha  occ. eigenvalues --   -0.45502  -0.45412  -0.45154  -0.45067  -0.44812
 Alpha  occ. eigenvalues --   -0.44387  -0.44330  -0.44304  -0.44271  -0.44164
 Alpha  occ. eigenvalues --   -0.43841  -0.43602  -0.43596  -0.43465  -0.43309
 Alpha  occ. eigenvalues --   -0.43190  -0.43020  -0.42930  -0.42734  -0.42665
 Alpha  occ. eigenvalues --   -0.42571  -0.42263  -0.42224  -0.42108  -0.41887
 Alpha  occ. eigenvalues --   -0.41843  -0.41825  -0.41658  -0.41343  -0.41256
 Alpha  occ. eigenvalues --   -0.41133  -0.41102  -0.40620  -0.40606  -0.40302
 Alpha  occ. eigenvalues --   -0.40134  -0.39739  -0.39685  -0.39416  -0.39006
 Alpha  occ. eigenvalues --   -0.38698  -0.38179  -0.37899  -0.37821  -0.37752
 Alpha  occ. eigenvalues --   -0.37537  -0.37035  -0.36847  -0.36508  -0.36265
 Alpha  occ. eigenvalues --   -0.36114  -0.35976  -0.35009  -0.34791  -0.34152
 Alpha  occ. eigenvalues --   -0.34038  -0.33206  -0.32793  -0.31673  -0.31431
 Alpha  occ. eigenvalues --   -0.31346  -0.31034  -0.30779  -0.30605  -0.30186
 Alpha  occ. eigenvalues --   -0.30032  -0.29918  -0.29787  -0.23983  -0.23768
 Alpha  occ. eigenvalues --   -0.21356  -0.20954
 Alpha virt. eigenvalues --   -0.09036  -0.08451  -0.01657  -0.01196  -0.00244
 Alpha virt. eigenvalues --    0.00646   0.01793   0.02256   0.02687   0.04061
 Alpha virt. eigenvalues --    0.04950   0.05208   0.05455   0.05749   0.06036

 Mulliken charges:
               1
     1  Mg   0.816736
     2  C   -0.006807
     3  C   -0.076784
     4  C   -0.062753
     5  C   -0.056496
     6  N   -0.303243
     7  C   -0.035439
     8  C    0.005474
     9  C   -0.058639
    10  C    0.053144
    11  C    0.068916
    12  C    0.049415
    13  C   -0.088221
    14  H    0.004918
    15  N   -0.362877
    16  C    0.161384
    17  C   -0.116332
    18  C   -0.041997
    19  C    0.131181
    20  C    0.062478
    21  C   -0.022353
    22  O   -0.176755
    23  C    0.054569
    24  N   -0.262885
    25  C    0.029691
    26  C   -0.033899
    27  C   -0.013637
    28  C    0.026346
    29  C    0.066777
    30  C    0.005543
    31  C   -0.015621
    32  N   -0.320615
    33  C    0.047547
    34  C   -0.163235
    35  C   -0.025485
    36  C    0.147019
    37  C    0.119555
    38  C    0.069260
    39  O   -0.148606
    40  C    0.013315
    41  C    0.178544
    42  O   -0.201254
    43  O   -0.349497
    44  C    0.164543
    45  H   -0.033821
    46  H   -0.001610
    47  H   -0.031540
    48  H    0.016122
    49  H    0.009727
    50  H    0.007524
    51  H    0.021355
    52  H    0.009311
    53  H    0.019788
    54  H    0.028925
    55  H    0.045836
    56  H    0.012271
    57  H    0.027259
    58  H    0.004221
    59  H    0.032801
    60  H    0.021984
    61  H    0.036665
    62  H    0.022132
    63  H    0.016288
    64  H    0.012005
    65  H    0.016721
    66  H    0.035598
    67  H    0.015938
    68  H    0.019532
    69  H   -0.002437
    70  H    0.022345
    71  H    0.022643
    72  H    0.021264
    73  H    0.047801
    74  H    0.013022
    75  H    0.032298
    76  H    0.032424
    77  H    0.037490
    78  H    0.040295
    79  H    0.056603
    80  Mg   0.854038
    81  C   -0.036399
    82  C   -0.108477
    83  C   -0.072488
    84  C   -0.093706
    85  N   -0.243005
    86  C   -0.008790
    87  C    0.010441
    88  C   -0.050429
    89  C   -0.004172
    90  C    0.053160
    91  C    0.054802
    92  C   -0.066399
    93  H   -0.008175
    94  N   -0.343037
    95  C    0.212274
    96  C   -0.158949
    97  C   -0.006498
    98  C    0.105031
    99  C    0.108303
   100  C    0.005966
   101  O   -0.228446
   102  C    0.038014
   103  N   -0.379029
   104  C    0.086325
   105  C   -0.051778
   106  C   -0.000168
   107  C    0.030196
   108  C    0.063162
   109  C    0.045169
   110  C   -0.000896
   111  N   -0.388724
   112  C    0.116025
   113  C   -0.155088
   114  C   -0.011652
   115  C    0.151912
   116  C    0.115486
   117  C    0.080839
   118  O   -0.180380
   119  C   -0.063888
   120  C    0.198458
   121  O   -0.193927
   122  O   -0.336295
   123  C    0.167387
   124  H   -0.032985
   125  H   -0.011490
   126  H   -0.040258
   127  H    0.005011
   128  H    0.015126
   129  H    0.012453
   130  H    0.018665
   131  H    0.012293
   132  H    0.012548
   133  H    0.035695
   134  H    0.024737
   135  H    0.025276
   136  H    0.025092
   137  H    0.003603
   138  H    0.035803
   139  H    0.040138
   140  H    0.037718
   141  H    0.041964
   142  H    0.016467
   143  H    0.017289
   144  H    0.022566
   145  H    0.011979
   146  H    0.021652
   147  H    0.008474
   148  H    0.004005
   149  H    0.005582
   150  H    0.018021
   151  H    0.018538
   152  H    0.034748
   153  H    0.021680
   154  H    0.039634
   155  H    0.060506
   156  H    0.026178
   157  H    0.037443
   158  H    0.045950
 Sum of Mulliken charges =  -0.00000

 Dipole moment (field-independent basis, Debye):
    X=              1.7269    Y=             -2.7197    Z=              0.9313  Tot=              3.3535
 Quadrupole moment (field-independent basis, Debye-Ang):
   XX=           -482.4357   YY=           -475.1623   ZZ=           -532.3637
   XY=              0.2251   XZ=             -3.9666   YZ=             12.1492

 Normal termination of Gaussian 16 at Wed Sep  1 23:06:06 2021.
