 Gaussian 16, Revision A.03,
 Gaussian 16:  ES64L-G16RevA.03 25-Dec-2016

 -----------------------------------
 #p cam-b3lyp/Def2SVP td=(nstates=5)
 -----------------------------------

 --------------------------------
 TDDFT excited states in gaussian
 --------------------------------
 Symbolic Z-matrix:
 Charge =  0 Multiplicity = 1

                         Standard orientation:
 ---------------------------------------------------------------------
 Center     Atomic      Atomic             Coordinates (Angstroms)
 Number     Number       Type             X           Y           Z
 ---------------------------------------------------------------------
      1         12           0       -9.060275    0.247165   -0.721659
      2          6           0       -7.998597    0.043073    2.618621
      3          6           0       -8.832249    3.629138   -0.492328
      4          6           0       -9.626500    0.259312   -3.942782
      5          6           0       -8.371437   -3.284725   -0.854546
      6          7           0       -8.550813    1.626751    0.893757
      7          6           0       -8.130263    1.337696    2.161203
      8          6           0       -7.576453    2.625782    2.788479
      9          6           0       -8.354527    3.699591    2.035997
     10          6           0       -8.503084    2.958820    0.693191
     11          6           0       -9.728189    4.007154    2.675603
     12          6           0       -6.022865    2.748777    2.571434
     13          6           0       -5.062757    2.667239    3.857800
     14          1           0       -4.022738    1.537163    3.943579
     15          7           0       -9.152929    1.731703   -2.050702
     16          6           0       -9.056292    3.073904   -1.763524
     17          6           0       -9.371247    3.806766   -2.949760
     18          6           0       -9.737449    2.887621   -3.987955
     19          6           0       -9.514356    1.547468   -3.372082
     20          6           0       -9.345821    5.371805   -3.026644
     21          6           0      -10.266194    3.300576   -5.409393
     22          8           0      -10.478274    4.447415   -5.658149
     23          6           0      -10.750761    2.250857   -6.297422
     24          7           0       -8.697337   -1.252859   -2.258962
     25          6           0       -9.389329   -1.017312   -3.398985
     26          6           0       -9.842280   -2.288078   -4.098208
     27          6           0       -9.127888   -3.383987   -3.322162
     28          6           0       -8.682209   -2.599058   -2.039704
     29          6           0      -11.404895   -2.472279   -4.085179
     30          6           0       -7.914382   -4.173664   -4.005514
     31          6           0       -8.047286   -5.602995   -4.458198
     32          7           0       -8.545113   -1.341721    0.599687
     33          6           0       -8.302462   -2.708910    0.414823
     34          6           0       -7.870429   -3.345124    1.640466
     35          6           0       -7.768762   -2.302050    2.527843
     36          6           0       -8.156294   -1.081956    1.882094
     37          6           0       -7.545978   -4.772589    1.795350
     38          6           0       -7.415729   -1.963802    3.898118
     39          8           0       -7.112308   -2.706227    4.840179
     40          6           0       -7.651642   -0.474961    4.041335
     41          6           0       -8.737623   -0.288511    5.095340
     42          8           0       -9.847371   -0.797127    4.954087
     43          8           0       -8.250911    0.386775    6.225405
     44          6           0       -9.216318    0.567382    7.276446
     45          1           0       -8.900360    4.707887   -0.339070
     46          1           0      -10.125793    0.302194   -4.911981
     47          1           0       -8.272926   -4.372224   -0.877077
     48          1           0       -7.707457    2.529662    3.866591
     49          1           0       -7.736632    4.595637    1.992935
     50          1           0       -9.647720    5.092859    2.716251
     51          1           0       -9.691204    3.523991    3.652370
     52          1           0      -10.611398    3.675185    2.129724
     53          1           0       -5.835188    3.732505    2.141308
     54          1           0       -5.739228    2.028322    1.804643
     55          1           0       -5.729693    2.481569    4.700058
     56          1           0       -4.539081    3.592893    4.093606
     57          1           0       -8.801758    5.834839   -3.849286
     58          1           0       -8.893073    5.702415   -2.091295
     59          1           0      -10.344572    5.807309   -3.062066
     60          1           0      -10.011203    1.486272   -6.536246
     61          1           0      -11.089807    2.714906   -7.223562
     62          1           0      -11.699542    1.859705   -5.932682
     63          1           0       -9.595454   -2.292760   -5.160410
     64          1           0       -9.844417   -4.126957   -2.971863
     65          1           0      -11.883746   -2.161005   -5.013414
     66          1           0      -11.817439   -2.018666   -3.184002
     67          1           0      -11.597762   -3.541699   -3.988706
     68          1           0       -6.923477   -4.071768   -3.564306
     69          1           0       -7.885967   -3.554692   -4.902664
     70          1           0       -7.991098   -5.723563   -5.539590
     71          1           0       -9.013069   -5.997405   -4.141357
     72          1           0       -7.229804   -6.120590   -3.956807
     73          1           0       -7.251515   -5.153442    0.817044
     74          1           0       -8.483659   -5.255127    2.072509
     75          1           0       -6.814505   -4.931791    2.586305
     76          1           0       -6.695975   -0.123197    4.427639
     77          1           0       -9.942457    1.360169    7.094717
     78          1           0       -8.735425    0.797974    8.226645
     79          1           0       -9.806322   -0.320451    7.502310
     80         12           0        9.240542    0.382140   -0.046115
     81          6           0        7.151359   -2.250075    0.577337
     82          6           0        7.057088    2.529562    1.266672
     83          6           0       11.270668    2.774055   -0.929220
     84          6           0       11.200128   -1.909301   -1.946609
     85          7           0        7.207017    0.190039    0.687332
     86          6           0        6.698820   -1.003822    1.082866
     87          6           0        5.581446   -0.836633    2.075941
     88          6           0        5.393975    0.733391    2.050008
     89          6           0        6.569169    1.202428    1.219887
     90          6           0        4.010792    1.210719    1.546099
     91          6           0        5.866374   -1.531515    3.543368
     92          6           0        4.761759   -2.392498    4.174859
     93          1           0        3.295924   -2.105288    3.721277
     94          7           0        9.256813    2.274760    0.283826
     95          6           0        8.285166    3.047960    0.834974
     96          6           0        8.580263    4.458994    0.779023
     97          6           0        9.867871    4.526829    0.339697
     98          6           0       10.129815    3.171661   -0.237141
     99          6           0        7.466794    5.416111    1.163322
    100          6           0       10.786209    5.759720    0.224577
    101          8           0       11.902891    5.731990   -0.237997
    102          6           0       10.157582    7.032710    0.709245
    103          7           0       10.901331    0.412783   -1.423181
    104          6           0       11.621628    1.547593   -1.477409
    105          6           0       12.903429    1.343392   -2.291066
    106          6           0       13.038658   -0.216320   -2.343806
    107          6           0       11.616515   -0.620081   -1.903651
    108          6           0       13.008525    2.028258   -3.719927
    109          6           0       14.092728   -0.860850   -1.366748
    110          6           0       14.034743   -0.684244    0.127805
    111          7           0        9.313556   -1.682721   -0.558273
    112          6           0       10.097847   -2.474618   -1.403218
    113          6           0        9.627757   -3.865517   -1.431368
    114          6           0        8.463115   -3.827282   -0.650098
    115          6           0        8.353984   -2.485826   -0.165547
    116          6           0       10.274431   -5.058578   -2.087067
    117          6           0        7.391927   -4.565752   -0.157701
    118          8           0        7.033730   -5.722675   -0.313654
    119          6           0        6.630319   -3.655893    0.840631
    120          6           0        5.217509   -3.864620    0.448847
    121          8           0        4.653016   -3.326083   -0.506429
    122          8           0        4.630408   -4.828723    1.215999
    123          6           0        3.342191   -5.394103    0.802533
    124          1           0        6.413803    3.171449    1.872536
    125          1           0       12.022762    3.511823   -1.213875
    126          1           0       11.913647   -2.502332   -2.523815
    127          1           0        4.648639   -1.233236    1.674947
    128          1           0        5.574123    1.124944    3.050938
    129          1           0        4.114296    1.572407    0.523153
    130          1           0        3.684527    2.042422    2.170556
    131          1           0        3.349635    0.345274    1.592144
    132          1           0        6.089254   -0.694070    4.204623
    133          1           0        6.720247   -2.205874    3.486416
    134          1           0        4.707063   -2.206785    5.247199
    135          1           0        5.017808   -3.447731    4.080623
    136          1           0        6.573201    5.361472    0.541349
    137          1           0        7.589747    6.490374    1.026993
    138          1           0        7.337867    5.166666    2.216553
    139          1           0        9.819624    6.926928    1.739845
    140          1           0        9.399161    7.209075   -0.053227
    141          1           0       10.777012    7.924554    0.797263
    142          1           0       13.642733    1.838333   -1.660326
    143          1           0       13.155362   -0.520883   -3.384102
    144          1           0       12.096470    2.589961   -3.920345
    145          1           0       13.011563    1.276856   -4.508646
    146          1           0       13.880962    2.659927   -3.893921
    147          1           0       15.005151   -0.432424   -1.782309
    148          1           0       14.141509   -1.944301   -1.470861
    149          1           0       13.279829    0.062527    0.377300
    150          1           0       14.984353   -0.304670    0.504681
    151          1           0       13.734070   -1.555842    0.708851
    152          1           0        9.733411   -5.390460   -2.972103
    153          1           0       10.347918   -5.877316   -1.371066
    154          1           0       11.225452   -4.657144   -2.437978
    155          1           0        6.864183   -3.903095    1.876313
    156          1           0        3.192301   -6.403053    1.188601
    157          1           0        3.164765   -5.267816   -0.264396
    158          1           0        2.494567   -4.819221    1.175104
 ---------------------------------------------------------------------

 SCF Done:  E(RCAM-B3LYP) =  -4069.80815074     A.U. after   19 cycles

 Excitation energies and oscillator strengths:

 Excited State   1:      Singlet-A      1.7231 eV  719.53 nm  f=0.3230  <S**2>=0.000
     309 -> 315        0.19110
     311 -> 313        0.68121
     309 <- 315        0.11087
 This state for optimization and/or second-order correction.
 Total Energy, E(TD-HF/TD-DFT) =  -4069.74482686
 Copying the excited state density for this state as the 1-particle RhoCI density.

 Excited State   2:      Singlet-A      1.7683 eV  701.17 nm  f=0.3972  <S**2>=0.000
     310 -> 316        0.19109
     312 -> 314        0.67997
     310 <- 316        0.10570

 Excited State   3:      Singlet-A      2.2753 eV  544.91 nm  f=0.0588  <S**2>=0.000
     310 -> 314        0.61590
     312 -> 316       -0.33736

 Excited State   4:      Singlet-A      2.2830 eV  543.07 nm  f=0.0519  <S**2>=0.000
     309 -> 313        0.60466
     311 -> 315       -0.35585

 Excited State   5:      Singlet-A      2.8174 eV  440.07 nm  f=0.0000  <S**2>=0.000
     312 -> 313        0.70700

 The electronic state is 1-A.
 Alpha  occ. eigenvalues --  -46.88691 -46.87911 -19.26067 -19.23835 -19.20613
 Alpha  occ. eigenvalues --  -19.19901 -19.19091 -19.18779 -19.18270 -19.17601
 Alpha  occ. eigenvalues --  -14.42133 -14.42090 -14.41658 -14.41017 -14.39957
 Alpha  occ. eigenvalues --  -14.39387 -14.39354 -14.38704 -10.40283 -10.38185
 Alpha  occ. eigenvalues --  -10.35931 -10.35053 -10.34585 -10.33495 -10.31556
 Alpha  occ. eigenvalues --  -10.31128 -10.31122 -10.30852 -10.30786 -10.30657
 Alpha  occ. eigenvalues --  -10.30570 -10.30565 -10.30531 -10.30397 -10.30202
 Alpha  occ. eigenvalues --  -10.30090 -10.29794 -10.29545 -10.29389 -10.28925
 Alpha  occ. eigenvalues --  -10.28913 -10.28886 -10.28674 -10.28624 -10.28439
 Alpha  occ. eigenvalues --  -10.28138 -10.28047 -10.28016 -10.27930 -10.27916
 Alpha  occ. eigenvalues --  -10.27823 -10.27821 -10.27811 -10.27767 -10.27750
 Alpha  occ. eigenvalues --  -10.27710 -10.27675 -10.27558 -10.27556 -10.27525
 Alpha  occ. eigenvalues --  -10.27419 -10.27320 -10.27267 -10.27187 -10.26931
 Alpha  occ. eigenvalues --  -10.26895 -10.26877 -10.26872 -10.26831 -10.26493
 Alpha  occ. eigenvalues --  -10.26447 -10.26378 -10.26269 -10.26231 -10.26226
 Alpha  occ. eigenvalues --  -10.26010 -10.25991 -10.25958 -10.25865 -10.25624
 Alpha  occ. eigenvalues --  -10.25524 -10.25522 -10.25183 -10.25143 -10.25013
 Alpha  occ. eigenvalues --  -10.24014  -3.17300  -3.16766  -1.92175  -1.91771
 Alpha  occ. eigenvalues --   -1.91631  -1.91600  -1.91236  -1.91099  -1.16004
 Alpha  occ. eigenvalues --   -1.14769  -1.11909  -1.11495  -1.09128  -1.08951
 Alpha  occ. eigenvalues --   -1.08255  -1.05850  -1.05539  -1.04796  -1.04649
 Alpha  occ. eigenvalues --   -1.04272  -1.04070  -1.02951  -1.02865  -1.02078
 Alpha  occ. eigenvalues --   -0.93062  -0.92288  -0.89588  -0.89123  -0.89010
 Alpha  occ. eigenvalues --   -0.88510  -0.88381  -0.87952  -0.87917  -0.87616
 Alpha  occ. eigenvalues --   -0.87419  -0.87112  -0.86515  -0.85000  -0.84609
 Alpha  occ. eigenvalues --   -0.84310  -0.84219  -0.83543  -0.82675  -0.82622
 Alpha  occ. eigenvalues --   -0.82538  -0.82523  -0.81058  -0.81008  -0.80869
 Alpha  occ. eigenvalues --   -0.80469  -0.78981  -0.77998  -0.77422  -0.77242
 Alpha  occ. eigenvalues --   -0.76920  -0.76404  -0.76354  -0.75634  -0.75164
 Alpha  occ. eigenvalues --   -0.75118  -0.72895  -0.72595  -0.72131  -0.71636
 Alpha  occ. eigenvalues --   -0.69604  -0.68994  -0.68977  -0.68643  -0.68204
 Alpha  occ. eigenvalues --   -0.68088  -0.67256  -0.66787  -0.65862  -0.65609
 Alpha  occ. eigenvalues --   -0.65344  -0.64935  -0.64877  -0.64695  -0.64475
 Alpha  occ. eigenvalues --   -0.63709  -0.62738  -0.61650  -0.61077  -0.60266
 Alpha  occ. eigenvalues --   -0.60055  -0.59259  -0.59236  -0.59116  -0.58905
 Alpha  occ. eigenvalues --   -0.58518  -0.57866  -0.57751  -0.57687  -0.57509
 Alpha  occ. eigenvalues --   -0.56264  -0.56238  -0.56082  -0.55317  -0.55258
 Alpha  occ. eigenvalues --   -0.55076  -0.55003  -0.54633  -0.54376  -0.53954
 Alpha  occ. eigenvalues --   -0.53570  -0.53524  -0.53182  -0.53151  -0.53027
 Alpha  occ. eigenvalues --   -0.52779  -0.52684  -0.52570  -0.52563  -0.52365
 Alpha  occ. eigenvalues --   -0.52260  -0.52202  -0.51756  -0.51584  -0.51207
 Alpha  occ. eigenvalues --   -0.51038  -0.50897  -0.50557  -0.50448  -0.50410
 Alpha  occ. eigenvalues --   -0.50182  -0.50145  -0.49852  -0.49665  -0.49456
 Alpha  occ. eigenvalues --   -0.49303  -0.49274  -0.49113  -0.49037  -0.48730
 Alpha  occ. eigenvalues --   -0.48710  -0.48534  -0.48326  -0.48093  -0.48012
 Alpha  occ. eigenvalues --   -0.47971  -0.47724  -0.47525  -0.47117  -0.47103
 Alpha  occ. eigenvalues --   -0.46758  -0.46599  -0.46585  -0.46468  -0.46349
 Alpha  occ. eigenvalues --   -0.46310  -0.46149  -0.45983  -0.45665  -0.45442
 Alpha  occ. eigenvalues --   -0.45434  -0.45355  -0.45207  -0.44773  -0.44455
 Alpha  occ. eigenvalues --   -0.44441  -0.44302  -0.44144  -0.44058  -0.43869
 Alpha  occ. eigenvalues --   -0.43850  -0.43788  -0.43583  -0.43429  -0.43298
 Alpha  occ. eigenvalues --   -0.43136  -0.43102  -0.42859  -0.42784  -0.42602
 Alpha  occ. eigenvalues --   -0.42410  -0.42392  -0.42141  -0.42085  -0.41974
 Alpha  occ. eigenvalues --   -0.41785  -0.41729  -0.41608  -0.41511  -0.41192
 Alpha  occ. eigenvalues --   -0.41108  -0.41015  -0.40887  -0.40735  -0.40684
 Alpha  occ. eigenvalues --   -0.40452  -0.40362  -0.40055  -0.39527  -0.39158
 Alpha  occ. eigenvalues --   -0.38935  -0.38430  -0.38150  -0.37997  -0.37515
 Alpha  occ. eigenvalues --   -0.37182  -0.36907  -0.36697  -0.36543  -0.36391
 Alpha  occ. eigenvalues --   -0.36218  -0.35076  -0.34876  -0.34712  -0.34313
 Alpha  occ. eigenvalues --   -0.33486  -0.33221  -0.32885  -0.32455  -0.31407
 Alpha  occ. eigenvalues --   -0.31326  -0.31214  -0.30963  -0.30667  -0.30152
 Alpha  occ. eigenvalues --   -0.30040  -0.29665  -0.29655  -0.24396  -0.23765
 Alpha  occ. eigenvalues --   -0.20997  -0.20562
 Alpha virt. eigenvalues --   -0.08323  -0.07784  -0.02228  -0.01705   0.00267
 Alpha virt. eigenvalues --    0.00489   0.01824   0.02325   0.02740   0.03070
 Alpha virt. eigenvalues --    0.04170   0.04986   0.05132   0.05816   0.06174

 Mulliken charges:
               1
     1  Mg   0.819204
     2  C   -0.027621
     3  C   -0.090521
     4  C   -0.046011
     5  C   -0.086971
     6  N   -0.261327
     7  C   -0.073481
     8  C   -0.067353
     9  C   -0.064223
    10  C    0.017926
    11  C    0.108113
    12  C    0.065190
    13  C   -0.081356
    14  H    0.028935
    15  N   -0.432482
    16  C    0.196419
    17  C   -0.155283
    18  C   -0.066127
    19  C    0.129222
    20  C    0.128408
    21  C    0.011711
    22  O   -0.165314
    23  C    0.046876
    24  N   -0.260858
    25  C    0.045699
    26  C   -0.043781
    27  C   -0.030038
    28  C    0.050064
    29  C    0.066731
    30  C    0.022529
    31  C    0.021345
    32  N   -0.342408
    33  C    0.111539
    34  C   -0.193666
    35  C    0.033565
    36  C    0.152621
    37  C    0.142329
    38  C    0.016846
    39  O   -0.185337
    40  C    0.043521
    41  C    0.222843
    42  O   -0.215869
    43  O   -0.330878
    44  C    0.180797
    45  H   -0.024555
    46  H   -0.052407
    47  H   -0.026997
    48  H   -0.005662
    49  H   -0.002812
    50  H    0.020328
    51  H    0.016766
    52  H    0.033126
    53  H    0.008002
    54  H    0.031774
    55  H    0.028665
    56  H    0.034649
    57  H    0.032187
    58  H   -0.009451
    59  H    0.027742
    60  H    0.050608
    61  H    0.014729
    62  H    0.046874
    63  H    0.006836
    64  H    0.001262
    65  H    0.023868
    66  H    0.019499
    67  H    0.008453
    68  H    0.019838
    69  H   -0.007567
    70  H    0.022251
    71  H    0.005457
    72  H    0.020581
    73  H    0.016499
    74  H    0.034126
    75  H    0.041487
    76  H    0.030394
    77  H    0.024024
    78  H    0.031237
    79  H    0.036668
    80  Mg   0.850567
    81  C    0.012125
    82  C   -0.109413
    83  C   -0.070432
    84  C   -0.108823
    85  N   -0.257999
    86  C   -0.051744
    87  C   -0.000889
    88  C   -0.101399
    89  C    0.045322
    90  C    0.094738
    91  C    0.048980
    92  C   -0.073003
    93  H    0.014110
    94  N   -0.419465
    95  C    0.163725
    96  C   -0.108922
    97  C   -0.091289
    98  C    0.161841
    99  C    0.094055
   100  C    0.026178
   101  O   -0.168523
   102  C    0.036236
   103  N   -0.251385
   104  C    0.003044
   105  C   -0.036947
   106  C    0.002004
   107  C   -0.034644
   108  C    0.070334
   109  C    0.035421
   110  C    0.008536
   111  N   -0.312660
   112  C    0.155305
   113  C   -0.183176
   114  C    0.078787
   115  C    0.062756
   116  C    0.144282
   117  C   -0.022554
   118  O   -0.177600
   119  C    0.001795
   120  C    0.195402
   121  O   -0.239545
   122  O   -0.323609
   123  C    0.190362
   124  H   -0.033037
   125  H   -0.010664
   126  H   -0.035181
   127  H    0.022232
   128  H    0.005903
   129  H    0.023284
   130  H    0.016487
   131  H    0.025545
   132  H    0.008862
   133  H    0.017933
   134  H    0.026186
   135  H    0.040004
   136  H    0.037376
   137  H    0.007284
   138  H    0.045227
   139  H    0.040672
   140  H    0.049161
   141  H    0.021162
   142  H    0.008451
   143  H    0.002435
   144  H    0.016657
   145  H    0.004976
   146  H    0.028115
   147  H    0.006469
   148  H    0.007596
   149  H    0.009914
   150  H    0.017831
   151  H    0.021374
   152  H    0.036140
   153  H    0.041560
   154  H   -0.001635
   155  H    0.044225
   156  H    0.042930
   157  H    0.039847
   158  H    0.012792
 Sum of Mulliken charges =  -0.00000

 Dipole moment (field-independent basis, Debye):
    X=             -0.8311    Y=              3.9155    Z=              1.3749  Tot=              4.2323
 Quadrupole moment (field-independent basis, Debye-Ang):
   XX=           -476.1952   YY=           -515.8968   ZZ=           -500.9246
   XY=             27.4428   XZ=             26.1954   YZ=             49.3982

 Normal termination of Gaussian 16 at Thu Sep  2 23:06:07 2021.
