 Gaussian 16, Revision A.03,
 Gaussian 16:  ES64L-G16RevA.03 25-Dec-2016

 -----------------------------------
 #p cam-b3lyp/Def2SVP td=(nstates=5)
 -----------------------------------

 --------------------------------
 TDDFT excited states in gaussian
 --------------------------------
 Symbolic Z-matrix:
 Charge =  0 Multiplicity = 1

                         Standard orientation:
 ---------------------------------------------------------------------
 Center     Atomic      Atomic             Coordinates (Angstroms)
 Number     Number       Type             X           Y           Z
 ---------------------------------------------------------------------
      1         12           0       24.790942    0.390115   -0.344132
      2          6           0       22.737851   -1.590134    2.038503
      3          6           0       23.282382    3.056304    1.084013
      4          6           0       26.366127    1.954415   -2.606737
      5          6           0       25.420599   -2.699933   -1.996117
      6          7           0       23.171852    0.653998    1.315205
      7          6           0       22.658818   -0.256317    2.223661
      8          6           0       21.919195    0.373100    3.409753
      9          6           0       21.722557    1.807562    2.829237
     10          6           0       22.775444    1.885408    1.656897
     11          6           0       20.339632    2.117126    2.349036
     12          6           0       22.613057    0.291664    4.810764
     13          6           0       21.744258    0.230499    6.022444
     14          1           0       22.266845    0.988408    7.238704
     15          7           0       24.873115    2.309191   -0.710301
     16          6           0       24.217868    3.315091    0.030398
     17          6           0       24.707682    4.582744   -0.428953
     18          6           0       25.733802    4.226672   -1.408216
     19          6           0       25.672724    2.820163   -1.580936
     20          6           0       24.317116    5.979076    0.182244
     21          6           0       26.651350    5.195418   -2.089359
     22          8           0       27.470092    4.831984   -2.968554
     23          6           0       26.706074    6.640316   -1.750435
     24          7           0       25.628632   -0.201323   -2.143716
     25          6           0       26.271065    0.655827   -2.939658
     26          6           0       26.943555   -0.013874   -4.180755
     27          6           0       26.978356   -1.498857   -3.659623
     28          6           0       25.900782   -1.497860   -2.540980
     29          6           0       26.073393    0.124388   -5.471298
     30          6           0       28.390788   -1.892254   -3.053830
     31          6           0       29.663560   -1.685697   -3.901641
     32          7           0       24.256832   -1.720769   -0.045268
     33          6           0       24.660455   -2.830912   -0.778344
     34          6           0       24.064713   -4.022663   -0.221083
     35          6           0       23.341493   -3.588523    0.897164
     36          6           0       23.406398   -2.168400    0.929019
     37          6           0       24.305817   -5.430173   -0.652499
     38          6           0       22.516958   -4.047444    2.007314
     39          8           0       22.174170   -5.150439    2.412106
     40          6           0       22.193622   -2.691758    2.825218
     41          6           0       20.753721   -2.686571    3.018533
     42          8           0       19.883349   -2.638826    2.135101
     43          8           0       20.501098   -3.179805    4.266499
     44          6           0       19.148826   -3.344144    4.694068
     45          1           0       22.872840    3.871300    1.684736
     46          1           0       26.922680    2.452303   -3.403253
     47          1           0       25.662308   -3.617488   -2.537311
     48          1           0       20.947330   -0.116404    3.476215
     49          1           0       22.078196    2.557689    3.534968
     50          1           0       20.375000    2.117699    1.259591
     51          1           0       20.063383    3.126898    2.652254
     52          1           0       19.541607    1.439379    2.651578
     53          1           0       23.199354    1.203129    4.923795
     54          1           0       23.315853   -0.540315    4.775121
     55          1           0       21.708837   -0.833656    6.254858
     56          1           0       20.693335    0.408804    5.794281
     57          1           0       25.081493    6.453482    0.796975
     58          1           0       23.371628    5.926297    0.721363
     59          1           0       24.132813    6.560428   -0.722027
     60          1           0       25.830471    7.125380   -2.182626
     61          1           0       27.619152    7.015080   -2.213774
     62          1           0       26.791442    6.699739   -0.665917
     63          1           0       27.910001    0.478126   -4.295460
     64          1           0       26.696350   -2.260894   -4.385539
     65          1           0       26.624952    0.781513   -6.144123
     66          1           0       25.049108    0.464049   -5.321228
     67          1           0       26.094004   -0.896343   -5.855746
     68          1           0       28.390476   -2.962602   -2.849166
     69          1           0       28.447666   -1.401359   -2.082453
     70          1           0       30.284206   -1.016332   -3.306139
     71          1           0       29.307649   -1.161949   -4.789301
     72          1           0       30.197328   -2.616845   -4.091197
     73          1           0       25.175992   -5.364825   -1.306069
     74          1           0       23.419850   -5.727780   -1.213315
     75          1           0       24.421146   -6.134889    0.170996
     76          1           0       22.714445   -2.711057    3.782370
     77          1           0       18.441058   -3.005060    3.937316
     78          1           0       19.046811   -2.691890    5.561486
     79          1           0       18.969533   -4.353886    5.060605
     80         12           0      -24.255626    0.577157    0.465760
     81          6           0      -23.728765   -2.635243   -0.745003
     82          6           0      -20.892835    1.352913   -0.339472
     83          6           0      -24.990006    3.836393    0.512846
     84          6           0      -27.701931   -0.159798    0.558216
     85          7           0      -22.566064   -0.470628   -0.799001
     86          6           0      -22.566300   -1.839847   -0.915500
     87          6           0      -21.250202   -2.348544   -1.414185
     88          6           0      -20.277663   -1.137217   -1.041042
     89          6           0      -21.273669    0.034078   -0.725098
     90          6           0      -19.250363   -1.405259    0.171181
     91          6           0      -21.361112   -2.792510   -2.962744
     92          6           0      -20.406399   -3.794894   -3.375010
     93          1           0      -19.552630   -3.373353   -4.589707
     94          7           0      -23.102798    2.345010    0.318853
     95          6           0      -21.723479    2.453609   -0.013877
     96          6           0      -21.368054    3.861195    0.049882
     97          6           0      -22.533810    4.619000    0.318452
     98          6           0      -23.611502    3.586501    0.483500
     99          6           0      -20.012314    4.346928   -0.305284
    100          6           0      -22.580528    6.203808    0.357662
    101          8           0      -21.521264    6.796304    0.157921
    102          6           0      -23.774905    6.963914    0.924034
    103          7           0      -26.092832    1.622918    0.424743
    104          6           0      -26.081103    2.971458    0.576940
    105          6           0      -27.595588    3.632056    0.539842
    106          6           0      -28.471882    2.309796    0.775067
    107          6           0      -27.418962    1.168374    0.611706
    108          6           0      -27.903285    4.707776    1.649246
    109          6           0      -29.618487    2.162264   -0.226909
    110          6           0      -31.085896    2.066169    0.255078
    111          7           0      -25.430356   -1.111513    0.286201
    112          6           0      -26.783638   -1.256201    0.386625
    113          6           0      -27.114841   -2.651785    0.300058
    114          6           0      -25.889988   -3.220815   -0.215520
    115          6           0      -24.925577   -2.198791   -0.233150
    116          6           0      -28.486635   -3.252851    0.405662
    117          6           0      -25.322036   -4.431983   -0.769890
    118          8           0      -25.754546   -5.544199   -0.787225
    119          6           0      -23.807557   -4.149749   -1.113365
    120          6           0      -22.793101   -4.942726   -0.260195
    121          8           0      -22.814899   -5.010664    0.949959
    122          8           0      -21.912606   -5.647454   -1.106745
    123          6           0      -21.016618   -6.571612   -0.479765
    124          1           0      -19.831727    1.508919   -0.540972
    125          1           0      -25.312272    4.857651    0.300033
    126          1           0      -28.775935   -0.345417    0.617541
    127          1           0      -20.834638   -3.125539   -0.771723
    128          1           0      -19.702100   -0.882107   -1.931575
    129          1           0      -18.259122   -1.276926   -0.263457
    130          1           0      -19.363686   -2.395036    0.612366
    131          1           0      -19.437498   -0.622128    0.906453
    132          1           0      -21.156058   -1.868039   -3.502308
    133          1           0      -22.423592   -3.026715   -3.034250
    134          1           0      -20.989382   -4.681818   -3.620283
    135          1           0      -19.697342   -3.989309   -2.570357
    136          1           0      -19.293357    3.529591   -0.358631
    137          1           0      -19.627220    4.987426    0.488560
    138          1           0      -20.010619    4.841527   -1.276892
    139          1           0      -24.684097    6.858782    0.331235
    140          1           0      -23.486319    8.012637    1.001992
    141          1           0      -23.936371    6.600434    1.938943
    142          1           0      -27.690497    3.974143   -0.490361
    143          1           0      -28.819678    2.165067    1.798135
    144          1           0      -28.038215    5.684764    1.186060
    145          1           0      -27.065482    4.760724    2.345536
    146          1           0      -28.817805    4.386099    2.148678
    147          1           0      -29.435943    1.349331   -0.929336
    148          1           0      -29.662537    2.942565   -0.986535
    149          1           0      -31.592994    1.108100    0.137620
    150          1           0      -31.634338    2.759812   -0.382695
    151          1           0      -31.174812    2.335701    1.308165
    152          1           0      -28.352603   -4.316343    0.604998
    153          1           0      -29.004906   -3.391326   -0.542669
    154          1           0      -29.164169   -2.739720    1.087607
    155          1           0      -23.727853   -4.487861   -2.146909
    156          1           0      -20.199357   -6.564804   -1.201702
    157          1           0      -21.392499   -7.593964   -0.515854
    158          1           0      -20.799136   -6.269628    0.543957
 ---------------------------------------------------------------------

 SCF Done:  E(RCAM-B3LYP) =  -4069.77822099     A.U. after   18 cycles

 Excitation energies and oscillator strengths:

 Excited State   1:      Singlet-A      1.6590 eV  747.36 nm  f=0.3801  <S**2>=0.000
     310 -> 316       -0.15614
     311 -> 313        0.69161
     310 <- 316       -0.10433
 This state for optimization and/or second-order correction.
 Total Energy, E(TD-HF/TD-DFT) =  -4069.71725514
 Copying the excited state density for this state as the 1-particle RhoCI density.

 Excited State   2:      Singlet-A      1.6845 eV  736.02 nm  f=0.3965  <S**2>=0.000
     309 -> 315        0.17409
     312 -> 314        0.68813
     309 <- 315        0.10834

 Excited State   3:      Singlet-A      2.1781 eV  569.22 nm  f=0.2163  <S**2>=0.000
     310 -> 313        0.66760
     311 -> 316        0.21706

 Excited State   4:      Singlet-A      2.2457 eV  552.09 nm  f=0.1074  <S**2>=0.000
     309 -> 314        0.63696
     312 -> 315       -0.29186

 Excited State   5:      Singlet-A      2.9384 eV  421.95 nm  f=0.0000  <S**2>=0.000
     312 -> 313        0.70710

 The electronic state is 1-A.
 Alpha  occ. eigenvalues --  -46.89803 -46.88906 -19.25133 -19.24818 -19.20745
 Alpha  occ. eigenvalues --  -19.19900 -19.19700 -19.19426 -19.18260 -19.17443
 Alpha  occ. eigenvalues --  -14.42317 -14.42314 -14.42014 -14.41440 -14.40200
 Alpha  occ. eigenvalues --  -14.39714 -14.39580 -14.39083 -10.40084 -10.39152
 Alpha  occ. eigenvalues --  -10.36383 -10.35986 -10.34021 -10.34001 -10.31813
 Alpha  occ. eigenvalues --  -10.31623 -10.31458 -10.31416 -10.31191 -10.31131
 Alpha  occ. eigenvalues --  -10.30971 -10.30812 -10.30742 -10.30707 -10.30562
 Alpha  occ. eigenvalues --  -10.30478 -10.30460 -10.30373 -10.29860 -10.29656
 Alpha  occ. eigenvalues --  -10.29284 -10.29082 -10.29066 -10.28965 -10.28652
 Alpha  occ. eigenvalues --  -10.28511 -10.28510 -10.28481 -10.28319 -10.28224
 Alpha  occ. eigenvalues --  -10.28164 -10.28137 -10.28129 -10.28123 -10.28119
 Alpha  occ. eigenvalues --  -10.28119 -10.28024 -10.28010 -10.27933 -10.27814
 Alpha  occ. eigenvalues --  -10.27777 -10.27653 -10.27621 -10.27432 -10.27393
 Alpha  occ. eigenvalues --  -10.27059 -10.27044 -10.26868 -10.26723 -10.26697
 Alpha  occ. eigenvalues --  -10.26441 -10.26434 -10.26399 -10.26397 -10.26292
 Alpha  occ. eigenvalues --  -10.26202 -10.25952 -10.25862 -10.25741 -10.25699
 Alpha  occ. eigenvalues --  -10.25627 -10.25606 -10.25550 -10.25544 -10.25462
 Alpha  occ. eigenvalues --  -10.24634  -3.18221  -3.17567  -1.93070  -1.92730
 Alpha  occ. eigenvalues --   -1.92488  -1.92436  -1.92019  -1.91889  -1.16545
 Alpha  occ. eigenvalues --   -1.16082  -1.10798  -1.10295  -1.10234  -1.08737
 Alpha  occ. eigenvalues --   -1.07476  -1.07028  -1.04923  -1.04915  -1.04043
 Alpha  occ. eigenvalues --   -1.03670  -1.02918  -1.02543  -1.02387  -1.01599
 Alpha  occ. eigenvalues --   -0.93713  -0.92247  -0.89563  -0.89219  -0.88806
 Alpha  occ. eigenvalues --   -0.88374  -0.88188  -0.88056  -0.87471  -0.86877
 Alpha  occ. eigenvalues --   -0.86847  -0.86432  -0.86251  -0.85817  -0.84752
 Alpha  occ. eigenvalues --   -0.84094  -0.84050  -0.83373  -0.83155  -0.82702
 Alpha  occ. eigenvalues --   -0.82236  -0.82083  -0.81152  -0.81075  -0.80862
 Alpha  occ. eigenvalues --   -0.80257  -0.78576  -0.77839  -0.77498  -0.77335
 Alpha  occ. eigenvalues --   -0.77297  -0.76767  -0.76236  -0.76128  -0.75455
 Alpha  occ. eigenvalues --   -0.74938  -0.73368  -0.72665  -0.71349  -0.70954
 Alpha  occ. eigenvalues --   -0.69301  -0.69245  -0.68655  -0.68440  -0.68184
 Alpha  occ. eigenvalues --   -0.67457  -0.66952  -0.66510  -0.65923  -0.65711
 Alpha  occ. eigenvalues --   -0.65145  -0.64913  -0.64818  -0.64507  -0.64489
 Alpha  occ. eigenvalues --   -0.64098  -0.62824  -0.62067  -0.60761  -0.59791
 Alpha  occ. eigenvalues --   -0.59655  -0.59534  -0.59482  -0.58997  -0.58873
 Alpha  occ. eigenvalues --   -0.58569  -0.58408  -0.58012  -0.57691  -0.57469
 Alpha  occ. eigenvalues --   -0.56335  -0.55917  -0.55643  -0.55336  -0.54970
 Alpha  occ. eigenvalues --   -0.54897  -0.54836  -0.54635  -0.54208  -0.54010
 Alpha  occ. eigenvalues --   -0.53710  -0.53249  -0.53243  -0.52884  -0.52725
 Alpha  occ. eigenvalues --   -0.52601  -0.52572  -0.52452  -0.52426  -0.52096
 Alpha  occ. eigenvalues --   -0.51770  -0.51739  -0.51645  -0.51431  -0.51237
 Alpha  occ. eigenvalues --   -0.51045  -0.51032  -0.50802  -0.50311  -0.50207
 Alpha  occ. eigenvalues --   -0.50090  -0.49917  -0.49859  -0.49729  -0.49708
 Alpha  occ. eigenvalues --   -0.49618  -0.49507  -0.49221  -0.49220  -0.49153
 Alpha  occ. eigenvalues --   -0.48766  -0.48744  -0.48453  -0.48341  -0.48162
 Alpha  occ. eigenvalues --   -0.48017  -0.47896  -0.47870  -0.47582  -0.47310
 Alpha  occ. eigenvalues --   -0.47273  -0.47031  -0.46955  -0.46538  -0.46426
 Alpha  occ. eigenvalues --   -0.46396  -0.46208  -0.46173  -0.45961  -0.45926
 Alpha  occ. eigenvalues --   -0.45681  -0.45407  -0.45240  -0.45128  -0.44990
 Alpha  occ. eigenvalues --   -0.44961  -0.44850  -0.44768  -0.44514  -0.44374
 Alpha  occ. eigenvalues --   -0.44079  -0.43970  -0.43962  -0.43716  -0.43536
 Alpha  occ. eigenvalues --   -0.43386  -0.43283  -0.43114  -0.43102  -0.42856
 Alpha  occ. eigenvalues --   -0.42715  -0.42695  -0.42686  -0.42498  -0.42198
 Alpha  occ. eigenvalues --   -0.42123  -0.42023  -0.41644  -0.41431  -0.41350
 Alpha  occ. eigenvalues --   -0.41079  -0.40979  -0.40695  -0.40644  -0.40465
 Alpha  occ. eigenvalues --   -0.39824  -0.39808  -0.39498  -0.39278  -0.38656
 Alpha  occ. eigenvalues --   -0.38588  -0.38252  -0.38188  -0.37774  -0.37730
 Alpha  occ. eigenvalues --   -0.37194  -0.37071  -0.36696  -0.36414  -0.36232
 Alpha  occ. eigenvalues --   -0.35835  -0.35609  -0.34790  -0.34625  -0.34324
 Alpha  occ. eigenvalues --   -0.34266  -0.33283  -0.33146  -0.31588  -0.31578
 Alpha  occ. eigenvalues --   -0.31408  -0.31256  -0.30222  -0.30142  -0.29971
 Alpha  occ. eigenvalues --   -0.29901  -0.29818  -0.29176  -0.24320  -0.24280
 Alpha  occ. eigenvalues --   -0.21738  -0.21173
 Alpha virt. eigenvalues --   -0.09668  -0.08787  -0.01652  -0.00787   0.00281
 Alpha virt. eigenvalues --    0.00387   0.01328   0.01731   0.02160   0.02245
 Alpha virt. eigenvalues --    0.03917   0.04569   0.04666   0.04965   0.05830

 Mulliken charges:
               1
     1  Mg   0.846859
     2  C    0.005394
     3  C   -0.055082
     4  C   -0.031309
     5  C   -0.072622
     6  N   -0.231484
     7  C   -0.075654
     8  C   -0.050079
     9  C   -0.049632
    10  C   -0.041741
    11  C    0.095465
    12  C    0.083149
    13  C   -0.058017
    14  H    0.037253
    15  N   -0.406873
    16  C    0.180160
    17  C   -0.159271
    18  C   -0.027488
    19  C    0.117517
    20  C    0.116959
    21  C   -0.040712
    22  O   -0.244777
    23  C    0.073567
    24  N   -0.320036
    25  C    0.020738
    26  C   -0.057383
    27  C   -0.052489
    28  C    0.068237
    29  C    0.098074
    30  C    0.007918
    31  C    0.024829
    32  N   -0.315190
    33  C    0.105935
    34  C   -0.190314
    35  C    0.005575
    36  C    0.086722
    37  C    0.131693
    38  C    0.079953
    39  O   -0.155726
    40  C    0.008072
    41  C    0.184146
    42  O   -0.240414
    43  O   -0.318917
    44  C    0.170259
    45  H   -0.033455
    46  H   -0.013440
    47  H   -0.020859
    48  H    0.010331
    49  H   -0.000315
    50  H    0.022606
    51  H    0.011701
    52  H    0.026536
    53  H    0.008156
    54  H    0.007391
    55  H    0.024552
    56  H    0.021020
    57  H    0.046336
    58  H    0.017066
    59  H    0.021995
    60  H    0.041818
    61  H    0.028573
    62  H    0.025074
    63  H    0.021987
    64  H   -0.000192
    65  H    0.023675
    66  H    0.038023
    67  H    0.007176
    68  H   -0.000294
    69  H    0.009450
    70  H    0.020171
    71  H    0.016598
    72  H    0.025527
    73  H    0.010496
    74  H    0.036146
    75  H    0.041389
    76  H    0.041955
    77  H    0.049466
    78  H    0.016027
    79  H    0.044049
    80  Mg   0.828011
    81  C   -0.072417
    82  C   -0.057809
    83  C   -0.081643
    84  C   -0.081445
    85  N   -0.265420
    86  C   -0.081271
    87  C   -0.050703
    88  C   -0.081867
    89  C    0.007720
    90  C    0.060797
    91  C    0.092511
    92  C   -0.035278
    93  H    0.002961
    94  N   -0.385504
    95  C    0.158076
    96  C   -0.142466
    97  C   -0.067439
    98  C    0.178879
    99  C    0.144052
   100  C    0.031862
   101  O   -0.206498
   102  C    0.035043
   103  N   -0.335718
   104  C    0.049465
   105  C   -0.075297
   106  C    0.031382
   107  C    0.005888
   108  C    0.071055
   109  C    0.013962
   110  C   -0.000427
   111  N   -0.323379
   112  C    0.132929
   113  C   -0.155261
   114  C   -0.032964
   115  C    0.194958
   116  C    0.109652
   117  C    0.027410
   118  O   -0.143986
   119  C   -0.010141
   120  C    0.212584
   121  O   -0.191233
   122  O   -0.358183
   123  C    0.169344
   124  H   -0.013824
   125  H   -0.041838
   126  H   -0.032963
   127  H    0.008090
   128  H    0.010265
   129  H    0.021967
   130  H    0.030850
   131  H    0.021819
   132  H    0.012235
   133  H    0.014200
   134  H    0.040380
   135  H    0.028160
   136  H   -0.012254
   137  H    0.032689
   138  H    0.042221
   139  H    0.049854
   140  H    0.031266
   141  H    0.045622
   142  H    0.029952
   143  H    0.018150
   144  H    0.017698
   145  H    0.025632
   146  H    0.023968
   147  H    0.007636
   148  H   -0.005482
   149  H    0.018759
   150  H    0.012239
   151  H    0.011891
   152  H    0.026187
   153  H    0.020814
   154  H    0.022574
   155  H    0.044414
   156  H    0.028363
   157  H    0.035838
   158  H    0.050435
 Sum of Mulliken charges =  -0.00000

 Dipole moment (field-independent basis, Debye):
    X=              0.1080    Y=              5.2152    Z=              2.4474  Tot=              5.7619
 Quadrupole moment (field-independent basis, Debye-Ang):
   XX=           -409.4902   YY=           -542.9763   ZZ=           -503.0518
   XY=            -68.0659   XZ=             27.6905   YZ=             31.2685

 Normal termination of Gaussian 16 at Tue Sep 14 20:16:22 2021.
