 Gaussian 16, Revision A.03,
 Gaussian 16:  ES64L-G16RevA.03 25-Dec-2016

 -----------------------------------
 #p cam-b3lyp/Def2SVP td=(nstates=5)
 -----------------------------------

 --------------------------------
 TDDFT excited states in gaussian
 --------------------------------
 Symbolic Z-matrix:
 Charge =  0 Multiplicity = 1

                         Standard orientation:
 ---------------------------------------------------------------------
 Center     Atomic      Atomic             Coordinates (Angstroms)
 Number     Number       Type             X           Y           Z
 ---------------------------------------------------------------------
      1         12           0       31.322558    0.317660    0.458788
      2          6           0       28.026654    0.330107   -1.154433
      3          6           0       29.649762   -0.977443    3.198157
      4          6           0       34.166207   -0.693060    1.489307
      5          6           0       32.601894    1.253034   -2.766138
      6          7           0       29.004673   -0.396159    0.874298
      7          6           0       27.871705   -0.283489    0.098444
      8          6           0       26.661672   -0.957126    0.843297
      9          6           0       27.136704   -1.100734    2.299637
     10          6           0       28.676333   -0.812252    2.125881
     11          6           0       26.534776   -0.123734    3.393274
     12          6           0       26.175863   -2.290647    0.178769
     13          6           0       24.680121   -2.519683    0.145427
     14          1           0       24.097620   -3.507666    1.204268
     15          7           0       31.864633   -0.571111    2.142102
     16          6           0       31.084004   -0.938195    3.204361
     17          6           0       31.933016   -1.532117    4.273113
     18          6           0       33.251446   -1.467012    3.751801
     19          6           0       33.126590   -0.934672    2.397192
     20          6           0       31.459618   -2.152197    5.597918
     21          6           0       34.536167   -2.066671    4.330620
     22          8           0       34.462134   -2.587652    5.440217
     23          6           0       35.796918   -2.035806    3.700742
     24          7           0       33.110927    0.050054   -0.649831
     25          6           0       34.200625   -0.156678    0.172562
     26          6           0       35.507340    0.056273   -0.685609
     27          6           0       34.957492    0.373376   -2.122461
     28          6           0       33.474007    0.672415   -1.798808
     29          6           0       36.496016    1.129236   -0.152416
     30          6           0       35.145977   -0.701524   -3.267619
     31          6           0       36.515995   -0.785274   -3.962813
     32          7           0       30.568153    0.775116   -1.573829
     33          6           0       31.207603    1.253729   -2.699889
     34          6           0       30.270593    1.655277   -3.720958
     35          6           0       28.989511    1.320298   -3.142167
     36          6           0       29.168252    0.726002   -1.844285
     37          6           0       30.665955    2.186591   -5.064227
     38          6           0       27.623158    1.282623   -3.417787
     39          8           0       27.006886    1.475084   -4.457176
     40          6           0       26.943921    0.536500   -2.233030
     41          6           0       25.886677    1.495577   -1.737874
     42          8           0       24.715287    1.168354   -1.532058
     43          8           0       26.367908    2.811234   -1.352542
     44          6           0       25.389579    3.552386   -0.558130
     45          1           0       29.139792   -1.318109    4.101122
     46          1           0       35.212594   -0.818100    1.775466
     47          1           0       33.136140    1.604233   -3.651306
     48          1           0       25.861784   -0.221084    0.935820
     49          1           0       27.076661   -2.132596    2.645681
     50          1           0       25.851660   -0.746802    3.970157
     51          1           0       25.935744    0.661503    2.933031
     52          1           0       27.264814    0.397185    4.012694
     53          1           0       26.483241   -3.197251    0.700635
     54          1           0       26.495503   -2.332971   -0.862673
     55          1           0       24.424667   -2.791379   -0.878808
     56          1           0       24.198069   -1.562232    0.345500
     57          1           0       32.144285   -1.875378    6.400047
     58          1           0       31.421181   -3.220512    5.385335
     59          1           0       30.488609   -1.755091    5.890665
     60          1           0       36.126680   -0.997245    3.658728
     61          1           0       35.838158   -2.534753    2.732472
     62          1           0       36.368013   -2.691561    4.358854
     63          1           0       36.118281   -0.840463   -0.783551
     64          1           0       35.340840    1.323746   -2.493077
     65          1           0       36.609693    1.841413   -0.969835
     66          1           0       37.448527    0.642338    0.054426
     67          1           0       35.995222    1.515181    0.736319
     68          1           0       34.390118   -0.419903   -4.001467
     69          1           0       35.013985   -1.711771   -2.879658
     70          1           0       37.031621    0.050677   -3.489273
     71          1           0       36.442347   -0.509400   -5.015718
     72          1           0       37.079833   -1.709744   -3.840507
     73          1           0       31.304025    1.418410   -5.499130
     74          1           0       31.310638    3.063794   -5.012489
     75          1           0       29.829866    2.243483   -5.761337
     76          1           0       26.445032   -0.335691   -2.655076
     77          1           0       26.121292    4.180048   -0.048059
     78          1           0       24.728527    2.891566    0.002569
     79          1           0       24.858783    4.200075   -1.255989
     80         12           0      -31.208420   -0.401523   -0.260867
     81          6           0      -28.364175    1.666519   -0.132630
     82          6           0      -32.765694    1.835496    1.898123
     83          6           0      -33.741750   -2.545951   -0.154859
     84          6           0      -29.195754   -2.980443   -1.740337
     85          7           0      -30.630847    1.488868    0.769508
     86          6           0      -29.440112    2.196457    0.552844
     87          6           0      -29.630681    3.636641    0.991400
     88          6           0      -30.906922    3.621437    1.880043
     89          6           0      -31.478991    2.225538    1.488835
     90          6           0      -30.694455    3.881237    3.404543
     91          6           0      -29.673438    4.677494   -0.180603
     92          6           0      -29.103244    6.113828    0.202210
     93          1           0      -28.639396    6.337812    1.643975
     94          7           0      -32.991310   -0.296559    0.604057
     95          6           0      -33.483815    0.731637    1.389168
     96          6           0      -34.860346    0.502633    1.721501
     97          6           0      -35.141541   -0.819875    1.250871
     98          6           0      -33.962995   -1.241374    0.514815
     99          6           0      -35.715054    1.479125    2.585873
    100          6           0      -36.375914   -1.638845    1.443123
    101          8           0      -36.420757   -2.845994    1.105844
    102          6           0      -37.721200   -1.244715    2.120917
    103          7           0      -31.381270   -2.553921   -0.606296
    104          6           0      -32.578235   -3.170217   -0.587839
    105          6           0      -32.492912   -4.542035   -1.303031
    106          6           0      -31.047945   -4.699592   -1.789870
    107          6           0      -30.500750   -3.260706   -1.383318
    108          6           0      -33.077443   -5.642863   -0.471489
    109          6           0      -30.840404   -5.041951   -3.280862
    110          6           0      -31.428099   -4.018295   -4.283321
    111          7           0      -29.159560   -0.699542   -0.794617
    112          6           0      -28.580986   -1.698382   -1.501265
    113          6           0      -27.258015   -1.218891   -1.898171
    114          6           0      -27.087213    0.112887   -1.426850
    115          6           0      -28.272943    0.383277   -0.701356
    116          6           0      -26.274151   -1.962812   -2.797333
    117          6           0      -26.204049    1.233738   -1.370720
    118          8           0      -25.128274    1.498895   -1.900594
    119          6           0      -27.015175    2.333457   -0.419867
    120          6           0      -26.121027    2.750635    0.732567
    121          8           0      -25.965412    2.085492    1.737842
    122          8           0      -25.606620    4.009940    0.522788
    123          6           0      -24.446635    4.437037    1.298400
    124          1           0      -33.195959    2.661861    2.467402
    125          1           0      -34.639228   -3.167398   -0.169846
    126          1           0      -28.690719   -3.764184   -2.308271
    127          1           0      -28.783898    3.940268    1.606752
    128          1           0      -31.573947    4.388838    1.488326
    129          1           0      -31.144535    2.997312    3.855185
    130          1           0      -31.293814    4.729460    3.737467
    131          1           0      -29.684108    3.984443    3.800262
    132          1           0      -30.697327    4.892718   -0.484692
    133          1           0      -29.157417    4.252386   -1.040521
    134          1           0      -29.927683    6.821896    0.116869
    135          1           0      -28.292114    6.333717   -0.491493
    136          1           0      -36.347015    0.873146    3.236262
    137          1           0      -36.381024    2.097343    1.984829
    138          1           0      -35.247796    2.232390    3.220016
    139          1           0      -38.140775   -0.353747    1.652906
    140          1           0      -37.624159   -1.118108    3.199148
    141          1           0      -38.561717   -1.884669    1.855043
    142          1           0      -33.231466   -4.496599   -2.102359
    143          1           0      -30.582258   -5.362077   -1.059394
    144          1           0      -34.076957   -5.933176   -0.795741
    145          1           0      -33.069665   -5.357459    0.580578
    146          1           0      -32.486610   -6.559490   -0.464317
    147          1           0      -31.385986   -5.978667   -3.396711
    148          1           0      -29.781805   -5.204829   -3.485360
    149          1           0      -30.575750   -3.669027   -4.865733
    150          1           0      -31.873784   -3.219371   -3.690647
    151          1           0      -32.250575   -4.401803   -4.887305
    152          1           0      -25.812280   -1.313629   -3.540657
    153          1           0      -26.780899   -2.700798   -3.418511
    154          1           0      -25.570074   -2.496411   -2.158270
    155          1           0      -27.138492    3.202649   -1.066436
    156          1           0      -24.599641    4.066546    2.312362
    157          1           0      -24.310357    5.516686    1.361706
    158          1           0      -23.581798    4.030926    0.773715
 ---------------------------------------------------------------------

 SCF Done:  E(RCAM-B3LYP) =  -4069.76616292     A.U. after   18 cycles

 Excitation energies and oscillator strengths:

 Excited State   1:      Singlet-A      1.6591 eV  747.31 nm  f=0.4032  <S**2>=0.000
     310 -> 316        0.16730
     312 -> 313        0.68827
     310 <- 316        0.10535
 This state for optimization and/or second-order correction.
 Total Energy, E(TD-HF/TD-DFT) =  -4069.70519305
 Copying the excited state density for this state as the 1-particle RhoCI density.

 Excited State   2:      Singlet-A      1.7224 eV  719.84 nm  f=0.3533  <S**2>=0.000
     309 -> 315        0.19689
     311 -> 314        0.67936
     309 <- 315        0.11036

 Excited State   3:      Singlet-A      2.1919 eV  565.66 nm  f=0.1547  <S**2>=0.000
     310 -> 313        0.65715
     312 -> 316       -0.24517

 Excited State   4:      Singlet-A      2.2417 eV  553.08 nm  f=0.0693  <S**2>=0.000
     309 -> 314        0.61606
     311 -> 315       -0.33057

 Excited State   5:      Singlet-A      3.1776 eV  390.18 nm  f=0.0000  <S**2>=0.000
     311 -> 313        0.70710

 The electronic state is 1-A.
 Alpha  occ. eigenvalues --  -46.90758 -46.88886 -19.24232 -19.23709 -19.20081
 Alpha  occ. eigenvalues --  -19.19335 -19.19233 -19.18787 -19.18342 -19.17863
 Alpha  occ. eigenvalues --  -14.42711 -14.42528 -14.42012 -14.41410 -14.40807
 Alpha  occ. eigenvalues --  -14.40251 -14.39356 -14.39136 -10.39383 -10.39094
 Alpha  occ. eigenvalues --  -10.35565 -10.35456 -10.34931 -10.33502 -10.32308
 Alpha  occ. eigenvalues --  -10.31881 -10.31583 -10.31523 -10.31519 -10.31389
 Alpha  occ. eigenvalues --  -10.31363 -10.31007 -10.30914 -10.30777 -10.30774
 Alpha  occ. eigenvalues --  -10.30709 -10.30446 -10.30329 -10.29830 -10.29651
 Alpha  occ. eigenvalues --  -10.29494 -10.29392 -10.29269 -10.29234 -10.29016
 Alpha  occ. eigenvalues --  -10.28910 -10.28909 -10.28829 -10.28523 -10.28400
 Alpha  occ. eigenvalues --  -10.28319 -10.28315 -10.28221 -10.28211 -10.28179
 Alpha  occ. eigenvalues --  -10.28132 -10.28060 -10.27954 -10.27923 -10.27831
 Alpha  occ. eigenvalues --  -10.27501 -10.27497 -10.27458 -10.27453 -10.27434
 Alpha  occ. eigenvalues --  -10.27338 -10.26973 -10.26863 -10.26849 -10.26846
 Alpha  occ. eigenvalues --  -10.26798 -10.26703 -10.26653 -10.26644 -10.26569
 Alpha  occ. eigenvalues --  -10.26312 -10.26236 -10.26236 -10.26179 -10.26050
 Alpha  occ. eigenvalues --  -10.25842 -10.25594 -10.25576 -10.25270 -10.25231
 Alpha  occ. eigenvalues --  -10.24886  -3.19169  -3.17457  -1.94014  -1.93677
 Alpha  occ. eigenvalues --   -1.93434  -1.92327  -1.91912  -1.91770  -1.15424
 Alpha  occ. eigenvalues --   -1.13939  -1.10455  -1.09424  -1.08977  -1.08392
 Alpha  occ. eigenvalues --   -1.07431  -1.06341  -1.05029  -1.04307  -1.03446
 Alpha  occ. eigenvalues --   -1.03365  -1.03339  -1.03194  -1.02093  -1.01080
 Alpha  occ. eigenvalues --   -0.92885  -0.92165  -0.89188  -0.89002  -0.88941
 Alpha  occ. eigenvalues --   -0.88528  -0.88508  -0.88126  -0.87347  -0.86991
 Alpha  occ. eigenvalues --   -0.86927  -0.86779  -0.85929  -0.85293  -0.85020
 Alpha  occ. eigenvalues --   -0.83870  -0.83797  -0.83694  -0.83315  -0.82530
 Alpha  occ. eigenvalues --   -0.82164  -0.81152  -0.81044  -0.80605  -0.80019
 Alpha  occ. eigenvalues --   -0.79879  -0.78687  -0.78255  -0.77358  -0.77041
 Alpha  occ. eigenvalues --   -0.76929  -0.76751  -0.75827  -0.75815  -0.75273
 Alpha  occ. eigenvalues --   -0.74965  -0.72839  -0.72520  -0.71924  -0.71063
 Alpha  occ. eigenvalues --   -0.69904  -0.69143  -0.69115  -0.68600  -0.68313
 Alpha  occ. eigenvalues --   -0.67714  -0.67505  -0.67013  -0.65569  -0.65377
 Alpha  occ. eigenvalues --   -0.65196  -0.65050  -0.64892  -0.64131  -0.64112
 Alpha  occ. eigenvalues --   -0.64028  -0.61903  -0.61612  -0.60886  -0.60385
 Alpha  occ. eigenvalues --   -0.59812  -0.59468  -0.59270  -0.58922  -0.58773
 Alpha  occ. eigenvalues --   -0.58051  -0.57397  -0.57165  -0.57000  -0.56931
 Alpha  occ. eigenvalues --   -0.56762  -0.55878  -0.55742  -0.55608  -0.54901
 Alpha  occ. eigenvalues --   -0.54785  -0.54723  -0.54334  -0.53942  -0.53921
 Alpha  occ. eigenvalues --   -0.53785  -0.53551  -0.53454  -0.53299  -0.53028
 Alpha  occ. eigenvalues --   -0.52893  -0.52756  -0.52524  -0.52485  -0.52329
 Alpha  occ. eigenvalues --   -0.51990  -0.51967  -0.51742  -0.51440  -0.51299
 Alpha  occ. eigenvalues --   -0.51022  -0.51004  -0.50700  -0.50623  -0.49997
 Alpha  occ. eigenvalues --   -0.49891  -0.49859  -0.49519  -0.49495  -0.49258
 Alpha  occ. eigenvalues --   -0.49184  -0.49123  -0.49007  -0.48955  -0.48746
 Alpha  occ. eigenvalues --   -0.48642  -0.48584  -0.48392  -0.48168  -0.48160
 Alpha  occ. eigenvalues --   -0.47963  -0.47853  -0.47737  -0.47731  -0.47395
 Alpha  occ. eigenvalues --   -0.47277  -0.46734  -0.46661  -0.46525  -0.46354
 Alpha  occ. eigenvalues --   -0.46273  -0.46144  -0.45903  -0.45810  -0.45442
 Alpha  occ. eigenvalues --   -0.45369  -0.45182  -0.44971  -0.44698  -0.44687
 Alpha  occ. eigenvalues --   -0.44528  -0.44472  -0.44331  -0.44217  -0.44118
 Alpha  occ. eigenvalues --   -0.44055  -0.43977  -0.43803  -0.43593  -0.43381
 Alpha  occ. eigenvalues --   -0.43190  -0.43114  -0.43023  -0.42618  -0.42563
 Alpha  occ. eigenvalues --   -0.42454  -0.42393  -0.42306  -0.42063  -0.41933
 Alpha  occ. eigenvalues --   -0.41903  -0.41826  -0.41581  -0.41511  -0.41490
 Alpha  occ. eigenvalues --   -0.41349  -0.40713  -0.40583  -0.40267  -0.40211
 Alpha  occ. eigenvalues --   -0.40078  -0.39963  -0.39612  -0.39307  -0.39222
 Alpha  occ. eigenvalues --   -0.38859  -0.38659  -0.37863  -0.37781  -0.37613
 Alpha  occ. eigenvalues --   -0.37523  -0.37165  -0.36801  -0.36335  -0.36289
 Alpha  occ. eigenvalues --   -0.35944  -0.35363  -0.34478  -0.33990  -0.33859
 Alpha  occ. eigenvalues --   -0.33721  -0.33195  -0.33038  -0.31750  -0.31447
 Alpha  occ. eigenvalues --   -0.31398  -0.31039  -0.30771  -0.30716  -0.30275
 Alpha  occ. eigenvalues --   -0.30153  -0.29469  -0.28740  -0.24467  -0.24101
 Alpha  occ. eigenvalues --   -0.21455  -0.21362
 Alpha virt. eigenvalues --   -0.09223  -0.08787  -0.02700  -0.01389  -0.00363
 Alpha virt. eigenvalues --   -0.00029   0.00586   0.01380   0.02170   0.02188
 Alpha virt. eigenvalues --    0.04381   0.04823   0.05230   0.05408   0.05485

 Mulliken charges:
               1
     1  Mg   0.834487
     2  C   -0.008407
     3  C   -0.051062
     4  C   -0.074893
     5  C   -0.087911
     6  N   -0.224653
     7  C   -0.070862
     8  C    0.059344
     9  C   -0.071624
    10  C   -0.036595
    11  C    0.062109
    12  C    0.059731
    13  C   -0.072195
    14  H    0.007760
    15  N   -0.409460
    16  C    0.147833
    17  C   -0.174490
    18  C   -0.015343
    19  C    0.192171
    20  C    0.144603
    21  C   -0.033285
    22  O   -0.215711
    23  C    0.089250
    24  N   -0.319250
    25  C    0.023085
    26  C   -0.072991
    27  C   -0.047467
    28  C    0.019194
    29  C    0.084300
    30  C    0.042808
    31  C    0.012939
    32  N   -0.344576
    33  C    0.143221
    34  C   -0.151045
    35  C    0.030884
    36  C    0.129285
    37  C    0.139480
    38  C   -0.006502
    39  O   -0.179799
    40  C   -0.020529
    41  C    0.217703
    42  O   -0.226377
    43  O   -0.390011
    44  C    0.179638
    45  H   -0.026328
    46  H   -0.046931
    47  H   -0.027806
    48  H    0.012233
    49  H    0.017823
    50  H    0.026307
    51  H    0.015300
    52  H    0.028880
    53  H    0.025175
    54  H    0.019046
    55  H    0.034387
    56  H    0.030262
    57  H    0.044810
    58  H    0.045435
    59  H    0.008984
    60  H    0.054016
    61  H    0.041936
    62  H    0.028063
    63  H    0.008458
    64  H   -0.003910
    65  H    0.016875
    66  H    0.020061
    67  H    0.021284
    68  H    0.004889
    69  H    0.011213
    70  H   -0.004510
    71  H    0.017481
    72  H    0.028221
    73  H    0.012462
    74  H    0.025033
    75  H    0.037642
    76  H    0.040547
    77  H    0.031516
    78  H    0.052780
    79  H    0.033580
    80  Mg   0.835486
    81  C    0.031242
    82  C   -0.057087
    83  C   -0.053480
    84  C   -0.058908
    85  N   -0.269251
    86  C   -0.044955
    87  C    0.001998
    88  C   -0.047176
    89  C   -0.014833
    90  C    0.074623
    91  C    0.034746
    92  C   -0.076612
    93  H    0.020627
    94  N   -0.405714
    95  C    0.178225
    96  C   -0.125145
    97  C   -0.000863
    98  C    0.109734
    99  C    0.101761
   100  C   -0.004301
   101  O   -0.244052
   102  C    0.051034
   103  N   -0.270206
   104  C    0.053224
   105  C   -0.078171
   106  C    0.027879
   107  C   -0.007794
   108  C    0.069548
   109  C    0.031250
   110  C    0.009336
   111  N   -0.344260
   112  C    0.135690
   113  C   -0.189182
   114  C    0.048255
   115  C    0.088857
   116  C    0.113940
   117  C    0.043018
   118  O   -0.170925
   119  C   -0.068819
   120  C    0.209043
   121  O   -0.207538
   122  O   -0.347382
   123  C    0.172014
   124  H   -0.027415
   125  H   -0.004061
   126  H   -0.028288
   127  H    0.008156
   128  H    0.006972
   129  H    0.010111
   130  H    0.012669
   131  H    0.036574
   132  H    0.005602
   133  H    0.014516
   134  H    0.032432
   135  H    0.046732
   136  H    0.016007
   137  H    0.027830
   138  H    0.023615
   139  H    0.009456
   140  H    0.052508
   141  H    0.022982
   142  H    0.010395
   143  H    0.010002
   144  H    0.021266
   145  H    0.019811
   146  H   -0.000304
   147  H    0.007278
   148  H    0.015375
   149  H    0.024415
   150  H    0.019924
   151  H    0.019850
   152  H    0.034831
   153  H   -0.002150
   154  H    0.035985
   155  H    0.036135
   156  H    0.043644
   157  H    0.035898
   158  H    0.046371
 Sum of Mulliken charges =  -0.00000

 Dipole moment (field-independent basis, Debye):
    X=              0.8770    Y=              3.8861    Z=              1.6843  Tot=              4.3252
 Quadrupole moment (field-independent basis, Debye-Ang):
   XX=             13.7925   YY=           -486.3277   ZZ=           -531.2402
   XY=            -70.6041   XZ=             46.4431   YZ=             33.5672

 Normal termination of Gaussian 16 at Thu Sep  2 13:40:02 2021.
