 Gaussian 16, Revision A.03,
 Gaussian 16:  ES64L-G16RevA.03 25-Dec-2016

 -----------------------------------
 #p cam-b3lyp/Def2SVP td=(nstates=5)
 -----------------------------------

 --------------------------------
 TDDFT excited states in gaussian
 --------------------------------
 Symbolic Z-matrix:
 Charge =  0 Multiplicity = 1

                         Standard orientation:
 ---------------------------------------------------------------------
 Center     Atomic      Atomic             Coordinates (Angstroms)
 Number     Number       Type             X           Y           Z
 ---------------------------------------------------------------------
      1         12           0       -4.162245   -0.507185    1.064737
      2          6           0       -5.552409    2.210634   -0.586105
      3          6           0       -2.356935    1.576199    3.007541
      4          6           0       -2.759518   -3.207826    2.458930
      5          6           0       -5.954719   -2.588299   -1.107354
      6          7           0       -4.050069    1.675515    1.158109
      7          6           0       -4.738393    2.571959    0.492640
      8          6           0       -4.317644    4.010455    1.046868
      9          6           0       -2.912146    3.664691    1.491254
     10          6           0       -3.100328    2.190763    1.972347
     11          6           0       -1.915378    3.882241    0.332445
     12          6           0       -5.403660    4.556665    2.070333
     13          6           0       -5.365668    6.071821    2.292216
     14          1           0       -4.194644    6.863863    1.736736
     15          7           0       -2.906837   -0.779053    2.627935
     16          6           0       -2.315777    0.243190    3.366721
     17          6           0       -1.652487   -0.382905    4.549602
     18          6           0       -1.706369   -1.830097    4.367247
     19          6           0       -2.416502   -1.942787    3.065540
     20          6           0       -1.006135    0.426493    5.648843
     21          6           0       -1.208810   -3.031075    5.296955
     22          8           0       -1.396398   -4.224040    5.035170
     23          6           0       -0.487294   -2.643498    6.570849
     24          7           0       -4.238984   -2.536202    0.665919
     25          6           0       -3.569406   -3.454836    1.356946
     26          6           0       -3.742975   -4.892788    0.777741
     27          6           0       -4.931410   -4.659667   -0.166088
     28          6           0       -5.118072   -3.175035   -0.183688
     29          6           0       -2.476445   -5.472253    0.087949
     30          6           0       -6.247751   -5.533123    0.041642
     31          6           0       -7.416816   -4.871808    0.694472
     32          7           0       -5.326139   -0.296495   -0.658651
     33          6           0       -6.029543   -1.197684   -1.384594
     34          6           0       -6.772932   -0.607499   -2.440052
     35          6           0       -6.622635    0.788508   -2.166783
     36          6           0       -5.759435    0.860819   -1.097401
     37          6           0       -7.565743   -1.154978   -3.598471
     38          6           0       -6.974041    2.127529   -2.535486
     39          8           0       -7.677539    2.567396   -3.419168
     40          6           0       -6.437518    3.117322   -1.452749
     41          6           0       -5.713781    4.212963   -2.104591
     42          8           0       -4.713991    4.026330   -2.781323
     43          8           0       -6.377599    5.464129   -2.029040
     44          6           0       -5.752448    6.572282   -2.767957
     45          1           0       -1.741691    2.280398    3.569506
     46          1           0       -2.252374   -4.064469    2.906025
     47          1           0       -6.458821   -3.267958   -1.797071
     48          1           0       -4.341112    4.738129    0.236789
     49          1           0       -2.574757    4.204139    2.375922
     50          1           0       -1.321682    4.721083    0.697281
     51          1           0       -2.404635    4.140317   -0.607692
     52          1           0       -1.273069    3.001919    0.323211
     53          1           0       -5.268442    4.087720    3.045375
     54          1           0       -6.363211    4.340220    1.600164
     55          1           0       -5.423060    6.228515    3.368928
     56          1           0       -6.289372    6.472627    1.875531
     57          1           0       -1.536593    1.364301    5.817770
     58          1           0        0.050984    0.664366    5.534978
     59          1           0       -1.112434   -0.121468    6.584962
     60          1           0        0.288747   -1.961707    6.223771
     61          1           0        0.024435   -3.465147    7.071136
     62          1           0       -1.195214   -2.214784    7.280374
     63          1           0       -4.004864   -5.606606    1.558601
     64          1           0       -4.535659   -4.814587   -1.169157
     65          1           0       -2.844288   -5.950368   -0.820231
     66          1           0       -1.873729   -6.170027    0.667211
     67          1           0       -1.797428   -4.642552   -0.108788
     68          1           0       -5.967533   -6.463027    0.536606
     69          1           0       -6.656571   -5.790525   -0.935185
     70          1           0       -8.197757   -4.774720   -0.060092
     71          1           0       -7.291038   -3.820507    0.956326
     72          1           0       -7.853568   -5.434929    1.519313
     73          1           0       -7.490400   -2.240017   -3.678208
     74          1           0       -7.287212   -0.614990   -4.503886
     75          1           0       -8.650494   -1.071788   -3.528058
     76          1           0       -7.245180    3.543987   -0.858579
     77          1           0       -6.170166    7.557451   -2.561925
     78          1           0       -5.918192    6.296054   -3.809623
     79          1           0       -4.686263    6.490688   -2.559847
     80         12           0        4.146204   -0.828802   -0.917334
     81          6           0        6.220053    1.960277   -0.322053
     82          6           0        1.420487    1.252723   -0.695678
     83          6           0        2.098041   -3.446417   -1.400698
     84          6           0        6.887415   -2.973780   -0.559539
     85          7           0        3.959513    1.337455   -0.685465
     86          6           0        4.834990    2.314984   -0.469209
     87          6           0        4.259389    3.741000   -0.343784
     88          6           0        2.719821    3.314249   -0.189426
     89          6           0        2.699467    1.838414   -0.504308
     90          6           0        2.142598    3.605591    1.174490
     91          6           0        4.524348    4.687539   -1.641254
     92          6           0        4.546168    6.180633   -1.301194
     93          1           0        5.892927    6.882546   -1.613331
     94          7           0        2.021872   -1.072857   -1.202952
     95          6           0        1.065835   -0.044846   -1.011181
     96          6           0       -0.196963   -0.557015   -1.493627
     97          6           0       -0.030014   -1.918555   -1.730123
     98          6           0        1.411902   -2.223765   -1.470277
     99          6           0       -1.490905    0.234819   -1.481219
    100          6           0       -0.989996   -2.976001   -2.225101
    101          8           0       -0.595213   -4.086089   -2.432890
    102          6           0       -2.419346   -2.666870   -2.541229
    103          7           0        4.391372   -2.913474   -0.779076
    104          6           0        3.404886   -3.801577   -1.095050
    105          6           0        4.062766   -5.209286   -1.077559
    106          6           0        5.534713   -4.990794   -1.378484
    107          6           0        5.674498   -3.539876   -0.860731
    108          6           0        3.916924   -5.818186    0.316290
    109          6           0        5.912111   -5.175941   -2.801614
    110          6           0        5.066819   -4.534802   -3.874231
    111          7           0        6.162915   -0.616735   -0.555898
    112          6           0        7.170130   -1.553902   -0.422786
    113          6           0        8.441051   -0.852722   -0.183577
    114          6           0        8.100963    0.511136   -0.166004
    115          6           0        6.753912    0.596733   -0.389850
    116          6           0        9.751269   -1.474854    0.040533
    117          6           0        8.615867    1.854086   -0.149979
    118          8           0        9.804037    2.284930   -0.075184
    119          6           0        7.364280    2.843893   -0.287310
    120          6           0        7.345808    3.681268    0.965202
    121          8           0        7.451158    3.214028    2.060323
    122          8           0        7.132520    5.072681    0.769234
    123          6           0        6.792169    5.842862    2.004064
    124          1           0        0.540354    1.887276   -0.577351
    125          1           0        1.458070   -4.329992   -1.454671
    126          1           0        7.804937   -3.564132   -0.610774
    127          1           0        4.719982    4.256524    0.499866
    128          1           0        2.208836    3.908803   -0.947731
    129          1           0        1.608940    4.551231    1.080591
    130          1           0        2.891126    3.576446    1.966580
    131          1           0        1.348561    2.866875    1.283105
    132          1           0        3.736410    4.532583   -2.378956
    133          1           0        5.446844    4.398343   -2.145114
    134          1           0        4.282429    6.164135   -0.243510
    135          1           0        3.725048    6.721113   -1.771704
    136          1           0       -1.167304    1.272828   -1.414242
    137          1           0       -1.930192   -0.039532   -0.522549
    138          1           0       -2.081935    0.081873   -2.384439
    139          1           0       -2.276790   -2.085381   -3.452241
    140          1           0       -2.924371   -2.045855   -1.801865
    141          1           0       -2.977267   -3.587821   -2.714004
    142          1           0        3.615738   -5.939929   -1.750781
    143          1           0        6.220751   -5.662652   -0.863741
    144          1           0        4.765883   -5.814861    1.000003
    145          1           0        3.600269   -6.852890    0.185479
    146          1           0        3.091001   -5.312310    0.817626
    147          1           0        6.029998   -6.229187   -3.057422
    148          1           0        6.906984   -4.735583   -2.865382
    149          1           0        5.690366   -3.754431   -4.311422
    150          1           0        4.103131   -4.061782   -3.683079
    151          1           0        4.908219   -5.270526   -4.662525
    152          1           0        9.733793   -1.957486    1.017645
    153          1           0       10.449840   -0.642845   -0.047399
    154          1           0        9.945186   -2.269233   -0.681455
    155          1           0        7.541780    3.377907   -1.220993
    156          1           0        7.690403    6.029909    2.592445
    157          1           0        6.056731    5.341042    2.634529
    158          1           0        6.419784    6.854880    1.847761
 ---------------------------------------------------------------------

 SCF Done:  E(RCAM-B3LYP) =  -4069.81652949     A.U. after   18 cycles

 Excitation energies and oscillator strengths:

 Excited State   1:      Singlet-A      1.6885 eV  734.29 nm  f=0.3701  <S**2>=0.000
     310 -> 316       -0.17051
     312 -> 314        0.68619
     310 <- 316       -0.10482
 This state for optimization and/or second-order correction.
 Total Energy, E(TD-HF/TD-DFT) =  -4069.75447863
 Copying the excited state density for this state as the 1-particle RhoCI density.

 Excited State   2:      Singlet-A      1.7306 eV  716.41 nm  f=0.3960  <S**2>=0.000
     309 -> 315       -0.17387
     311 -> 313        0.68527
     309 <- 315       -0.10545

 Excited State   3:      Singlet-A      2.1767 eV  569.59 nm  f=0.0272  <S**2>=0.000
     309 -> 313       -0.24821
     310 -> 314        0.59708
     312 -> 316        0.24328

 Excited State   4:      Singlet-A      2.2025 eV  562.93 nm  f=0.0723  <S**2>=0.000
     309 -> 313       -0.31489
     310 -> 314       -0.19635
     311 -> 315       -0.12704
     312 -> 313        0.57853

 Excited State   5:      Singlet-A      2.2225 eV  557.85 nm  f=0.1227  <S**2>=0.000
     309 -> 313        0.51861
     310 -> 314        0.15463
     311 -> 315        0.20295
     312 -> 313        0.39415

 The electronic state is 1-A.
 Alpha  occ. eigenvalues --  -46.88599 -46.88509 -19.24584 -19.24564 -19.20857
 Alpha  occ. eigenvalues --  -19.20205 -19.20121 -19.19019 -19.18518 -19.18238
 Alpha  occ. eigenvalues --  -14.43406 -14.42728 -14.42097 -14.41315 -14.40773
 Alpha  occ. eigenvalues --  -14.39659 -14.39357 -14.39041 -10.39573 -10.39470
 Alpha  occ. eigenvalues --  -10.37609 -10.35024 -10.34743 -10.34731 -10.32103
 Alpha  occ. eigenvalues --  -10.31858 -10.31809 -10.31755 -10.31682 -10.31663
 Alpha  occ. eigenvalues --  -10.31260 -10.31149 -10.31148 -10.31107 -10.30914
 Alpha  occ. eigenvalues --  -10.30872 -10.30569 -10.30490 -10.30403 -10.29563
 Alpha  occ. eigenvalues --  -10.29462 -10.29356 -10.29341 -10.29257 -10.28891
 Alpha  occ. eigenvalues --  -10.28826 -10.28803 -10.28772 -10.28717 -10.28651
 Alpha  occ. eigenvalues --  -10.28484 -10.28373 -10.28350 -10.28324 -10.28276
 Alpha  occ. eigenvalues --  -10.28183 -10.28141 -10.28069 -10.28004 -10.27902
 Alpha  occ. eigenvalues --  -10.27709 -10.27452 -10.27428 -10.27405 -10.27216
 Alpha  occ. eigenvalues --  -10.27102 -10.27101 -10.27095 -10.27017 -10.26670
 Alpha  occ. eigenvalues --  -10.26646 -10.26625 -10.26613 -10.26489 -10.26298
 Alpha  occ. eigenvalues --  -10.26128 -10.26090 -10.25594 -10.25390 -10.25365
 Alpha  occ. eigenvalues --  -10.25115 -10.25086 -10.24827 -10.24827 -10.24416
 Alpha  occ. eigenvalues --  -10.24408  -3.17268  -3.17095  -1.92191  -1.92017
 Alpha  occ. eigenvalues --   -1.91683  -1.91611  -1.91526  -1.91411  -1.15694
 Alpha  occ. eigenvalues --   -1.15179  -1.12050  -1.10849  -1.10192  -1.07454
 Alpha  occ. eigenvalues --   -1.07426  -1.06667  -1.06296  -1.05436  -1.05295
 Alpha  occ. eigenvalues --   -1.04758  -1.03787  -1.03490  -1.02915  -1.01744
 Alpha  occ. eigenvalues --   -0.92952  -0.92802  -0.90022  -0.89707  -0.89461
 Alpha  occ. eigenvalues --   -0.89386  -0.88824  -0.88783  -0.87830  -0.87794
 Alpha  occ. eigenvalues --   -0.87578  -0.86904  -0.86876  -0.86201  -0.85052
 Alpha  occ. eigenvalues --   -0.84704  -0.84030  -0.83553  -0.83354  -0.82942
 Alpha  occ. eigenvalues --   -0.82495  -0.82324  -0.81532  -0.81072  -0.80696
 Alpha  occ. eigenvalues --   -0.79934  -0.79100  -0.78788  -0.77642  -0.77384
 Alpha  occ. eigenvalues --   -0.77326  -0.77103  -0.76667  -0.76342  -0.75471
 Alpha  occ. eigenvalues --   -0.74978  -0.73422  -0.72440  -0.71760  -0.71330
 Alpha  occ. eigenvalues --   -0.69682  -0.69639  -0.69344  -0.68821  -0.68570
 Alpha  occ. eigenvalues --   -0.67841  -0.67148  -0.67080  -0.65837  -0.65694
 Alpha  occ. eigenvalues --   -0.65142  -0.64930  -0.64838  -0.64621  -0.64200
 Alpha  occ. eigenvalues --   -0.63387  -0.61874  -0.61803  -0.61137  -0.60362
 Alpha  occ. eigenvalues --   -0.60224  -0.59951  -0.59730  -0.59120  -0.58980
 Alpha  occ. eigenvalues --   -0.58729  -0.58640  -0.58556  -0.58154  -0.57554
 Alpha  occ. eigenvalues --   -0.56351  -0.56331  -0.56274  -0.55993  -0.55705
 Alpha  occ. eigenvalues --   -0.55294  -0.54813  -0.54670  -0.54521  -0.54326
 Alpha  occ. eigenvalues --   -0.54159  -0.53965  -0.53769  -0.53671  -0.53566
 Alpha  occ. eigenvalues --   -0.53537  -0.53157  -0.53073  -0.52810  -0.52712
 Alpha  occ. eigenvalues --   -0.52477  -0.52428  -0.51941  -0.51825  -0.51664
 Alpha  occ. eigenvalues --   -0.51494  -0.51311  -0.51087  -0.50909  -0.50888
 Alpha  occ. eigenvalues --   -0.50758  -0.50667  -0.50130  -0.49989  -0.49925
 Alpha  occ. eigenvalues --   -0.49754  -0.49656  -0.49514  -0.49403  -0.49331
 Alpha  occ. eigenvalues --   -0.49241  -0.49068  -0.49042  -0.48691  -0.48347
 Alpha  occ. eigenvalues --   -0.48284  -0.48197  -0.47939  -0.47763  -0.47736
 Alpha  occ. eigenvalues --   -0.47443  -0.47215  -0.47074  -0.46896  -0.46682
 Alpha  occ. eigenvalues --   -0.46583  -0.46311  -0.46224  -0.46149  -0.45883
 Alpha  occ. eigenvalues --   -0.45716  -0.45531  -0.45283  -0.45274  -0.45242
 Alpha  occ. eigenvalues --   -0.44886  -0.44823  -0.44535  -0.44457  -0.44256
 Alpha  occ. eigenvalues --   -0.44147  -0.43948  -0.43883  -0.43727  -0.43686
 Alpha  occ. eigenvalues --   -0.43490  -0.43454  -0.43107  -0.43011  -0.42938
 Alpha  occ. eigenvalues --   -0.42812  -0.42743  -0.42573  -0.42492  -0.42401
 Alpha  occ. eigenvalues --   -0.41860  -0.41814  -0.41622  -0.41567  -0.41358
 Alpha  occ. eigenvalues --   -0.41039  -0.40950  -0.40875  -0.40797  -0.40390
 Alpha  occ. eigenvalues --   -0.40257  -0.40083  -0.39902  -0.39738  -0.39543
 Alpha  occ. eigenvalues --   -0.38845  -0.38658  -0.38327  -0.38011  -0.37673
 Alpha  occ. eigenvalues --   -0.37282  -0.37219  -0.37146  -0.36705  -0.36479
 Alpha  occ. eigenvalues --   -0.36282  -0.36202  -0.35104  -0.34742  -0.34645
 Alpha  occ. eigenvalues --   -0.34503  -0.33907  -0.33185  -0.32569  -0.31738
 Alpha  occ. eigenvalues --   -0.31635  -0.31236  -0.31109  -0.30803  -0.30318
 Alpha  occ. eigenvalues --   -0.30230  -0.29977  -0.29319  -0.24549  -0.24125
 Alpha  occ. eigenvalues --   -0.22035  -0.21370
 Alpha virt. eigenvalues --   -0.09456  -0.08935  -0.01936  -0.01734  -0.00512
 Alpha virt. eigenvalues --    0.00405   0.01835   0.02141   0.03005   0.03314
 Alpha virt. eigenvalues --    0.04123   0.04551   0.05071   0.05283   0.05494

 Mulliken charges:
               1
     1  Mg   0.790286
     2  C   -0.017559
     3  C   -0.078214
     4  C   -0.066067
     5  C   -0.107134
     6  N   -0.240642
     7  C   -0.067339
     8  C   -0.046543
     9  C   -0.057406
    10  C    0.010427
    11  C    0.104055
    12  C    0.057798
    13  C   -0.054331
    14  H    0.022560
    15  N   -0.390407
    16  C    0.179064
    17  C   -0.140211
    18  C   -0.071853
    19  C    0.102119
    20  C    0.095646
    21  C    0.059358
    22  O   -0.194606
    23  C    0.032454
    24  N   -0.305158
    25  C    0.060907
    26  C   -0.054160
    27  C    0.029500
    28  C    0.013081
    29  C    0.071904
    30  C    0.046558
    31  C    0.006130
    32  N   -0.282676
    33  C    0.106780
    34  C   -0.167566
    35  C    0.025092
    36  C    0.058606
    37  C    0.123978
    38  C    0.017335
    39  O   -0.165294
    40  C    0.052601
    41  C    0.179315
    42  O   -0.227344
    43  O   -0.369998
    44  C    0.187215
    45  H   -0.020944
    46  H   -0.007012
    47  H   -0.030812
    48  H   -0.002460
    49  H   -0.021085
    50  H    0.014535
    51  H    0.051352
    52  H    0.010307
    53  H    0.012677
    54  H    0.017946
    55  H    0.024402
    56  H    0.031513
    57  H    0.017807
    58  H    0.044887
    59  H    0.010472
    60  H    0.040116
    61  H    0.031342
    62  H    0.060447
    63  H    0.009042
    64  H   -0.002063
    65  H    0.022032
    66  H    0.019902
    67  H    0.027137
    68  H    0.010719
    69  H    0.002772
    70  H   -0.003651
    71  H    0.027085
    72  H    0.018181
    73  H   -0.004607
    74  H    0.043516
    75  H    0.025296
    76  H    0.038680
    77  H    0.046679
    78  H    0.039722
    79  H    0.030332
    80  Mg   0.813334
    81  C   -0.041070
    82  C   -0.081207
    83  C   -0.056712
    84  C   -0.065659
    85  N   -0.248322
    86  C   -0.045000
    87  C   -0.042416
    88  C   -0.087453
    89  C    0.093149
    90  C    0.101051
    91  C    0.047225
    92  C   -0.047150
    93  H    0.044967
    94  N   -0.366869
    95  C    0.132572
    96  C   -0.173225
    97  C   -0.001637
    98  C    0.117286
    99  C    0.107785
   100  C   -0.028443
   101  O   -0.183314
   102  C    0.035230
   103  N   -0.336580
   104  C    0.059277
   105  C   -0.035870
   106  C    0.001141
   107  C    0.092593
   108  C    0.078653
   109  C    0.053822
   110  C   -0.014116
   111  N   -0.352842
   112  C    0.067771
   113  C   -0.192546
   114  C    0.046182
   115  C    0.100580
   116  C    0.125894
   117  C    0.022773
   118  O   -0.217705
   119  C    0.038044
   120  C    0.193417
   121  O   -0.182783
   122  O   -0.372280
   123  C    0.179639
   124  H   -0.037447
   125  H   -0.007065
   126  H   -0.027050
   127  H    0.019056
   128  H    0.013621
   129  H    0.008701
   130  H    0.032191
   131  H    0.000466
   132  H    0.005139
   133  H    0.019380
   134  H    0.006703
   135  H    0.021528
   136  H    0.011396
   137  H    0.077481
   138  H    0.054924
   139  H    0.038649
   140  H    0.072697
   141  H    0.030647
   142  H   -0.003357
   143  H   -0.010193
   144  H    0.023561
   145  H    0.009517
   146  H    0.010230
   147  H    0.006298
   148  H   -0.008959
   149  H    0.008283
   150  H    0.038429
   151  H    0.006393
   152  H    0.029969
   153  H    0.042094
   154  H    0.013641
   155  H    0.047047
   156  H    0.037586
   157  H    0.031451
   158  H    0.033281
 Sum of Mulliken charges =  -0.00000

 Dipole moment (field-independent basis, Debye):
    X=             -4.9002    Y=              0.7415    Z=              3.9513  Tot=              6.3383
 Quadrupole moment (field-independent basis, Debye-Ang):
   XX=           -601.8214   YY=           -477.3301   ZZ=           -506.6512
   XY=            -17.2526   XZ=            -29.6161   YZ=             23.3977

 Normal termination of Gaussian 16 at Thu Sep 16 13:24:03 2021.
