 Gaussian 16, Revision A.03,
 Gaussian 16:  ES64L-G16RevA.03 25-Dec-2016

 ----------------------------------------------------------
 #p cam-b3lyp/Def2SVP td=(nstates=5) density=(transition=1)
 ----------------------------------------------------------

 --------------------------------
 TDDFT excited states in gaussian
 --------------------------------
 Symbolic Z-matrix:
 Charge =  0 Multiplicity = 1

                         Standard orientation:
 ---------------------------------------------------------------------
 Center     Atomic      Atomic             Coordinates (Angstroms)
 Number     Number       Type             X           Y           Z
 ---------------------------------------------------------------------
      1         12           0      -30.121976    0.159065    0.397460
      2          6           0      -27.756131   -1.924998   -0.833873
      3          6           0      -30.679464    1.411866   -2.793847
      4          6           0      -32.483875    2.247821    1.630341
      5          6           0      -29.228918   -0.729662    3.621690
      6          7           0      -29.372088   -0.324802   -1.509657
      7          6           0      -28.374381   -1.188741   -1.825217
      8          6           0      -28.229372   -1.382086   -3.312157
      9          6           0      -28.963858   -0.122920   -3.910940
     10          6           0      -29.756976    0.342384   -2.645944
     11          6           0      -28.136478    1.014848   -4.642848
     12          6           0      -28.944700   -2.718743   -3.807549
     13          6           0      -28.343373   -3.258846   -5.138537
     14          1           0      -27.674595   -2.328406   -6.164287
     15          7           0      -31.384813    1.713714   -0.425150
     16          6           0      -31.442224    2.042423   -1.804950
     17          6           0      -32.420059    3.068162   -2.009872
     18          6           0      -32.966683    3.354258   -0.708217
     19          6           0      -32.267900    2.392935    0.217777
     20          6           0      -32.813807    3.611557   -3.338561
     21          6           0      -34.038311    4.363233   -0.310772
     22          8           0      -34.388004    4.640851    0.873891
     23          6           0      -34.764230    5.143807   -1.393337
     24          7           0      -30.721933    0.739682    2.331893
     25          6           0      -31.867022    1.490833    2.601554
     26          6           0      -32.364365    1.409158    4.073712
     27          6           0      -31.257758    0.361648    4.653299
     28          6           0      -30.364953    0.069877    3.503313
     29          6           0      -32.304945    2.808010    4.700711
     30          6           0      -31.841486   -0.853809    5.311213
     31          6           0      -31.372221   -1.054226    6.723863
     32          7           0      -28.770149   -0.927934    1.303762
     33          6           0      -28.496112   -1.257987    2.625216
     34          6           0      -27.409390   -2.163609    2.687118
     35          6           0      -27.017382   -2.452878    1.352463
     36          6           0      -27.935984   -1.766363    0.530633
     37          6           0      -26.774270   -2.780359    3.873776
     38          6           0      -26.025669   -3.108745    0.528584
     39          8           0      -25.023242   -3.761561    0.744065
     40          6           0      -26.561537   -2.816929   -0.952706
     41          6           0      -25.459468   -2.522243   -1.905491
     42          8           0      -24.506714   -1.812737   -1.706303
     43          8           0      -25.580304   -3.170526   -3.074395
     44          6           0      -24.495249   -2.881030   -4.054631
     45          1           0      -30.650926    1.851316   -3.793235
     46          1           0      -33.149722    3.017027    2.026897
     47          1           0      -28.961856   -1.147230    4.594634
     48          1           0      -27.198134   -1.273258   -3.647602
     49          1           0      -29.729897   -0.472518   -4.602341
     50          1           0      -27.103910    0.671565   -4.707627
     51          1           0      -28.151623    2.011965   -4.205678
     52          1           0      -28.592611    1.144697   -5.624450
     53          1           0      -29.996607   -2.443962   -3.887513
     54          1           0      -28.815358   -3.462577   -3.021272
     55          1           0      -29.201959   -3.753083   -5.593506
     56          1           0      -27.681186   -4.078143   -4.859853
     57          1           0      -33.535753    3.017769   -3.899283
     58          1           0      -31.879957    3.733654   -3.885868
     59          1           0      -33.121524    4.656116   -3.300767
     60          1           0      -34.116757    5.985924   -1.637235
     61          1           0      -35.669614    5.511831   -0.911324
     62          1           0      -34.958083    4.571076   -2.300427
     63          1           0      -33.409375    1.103671    4.020073
     64          1           0      -30.673090    0.869608    5.421011
     65          1           0      -31.811023    3.576361    4.105553
     66          1           0      -31.923470    2.721935    5.717867
     67          1           0      -33.338239    3.152661    4.750271
     68          1           0      -31.564794   -1.785270    4.817151
     69          1           0      -32.931022   -0.882450    5.329940
     70          1           0      -32.186317   -1.245478    7.422400
     71          1           0      -30.840546   -0.177952    7.093811
     72          1           0      -30.621121   -1.840633    6.644004
     73          1           0      -26.780836   -2.182677    4.785763
     74          1           0      -25.710608   -2.725572    3.640215
     75          1           0      -27.190953   -3.772789    4.046039
     76          1           0      -26.909172   -3.829225   -1.160920
     77          1           0      -23.575240   -3.417678   -3.818595
     78          1           0      -24.370286   -1.810859   -4.220455
     79          1           0      -24.809897   -3.257916   -5.028107
     80         12           0       30.182272    0.297124   -0.319793
     81          6           0       27.131725   -1.206820   -0.308585
     82          6           0       28.580154    3.359085   -1.072187
     83          6           0       32.932533    1.882602    0.717757
     84          6           0       31.656450   -2.735083    0.974480
     85          7           0       28.129220    0.928730   -0.662755
     86          6           0       27.043870    0.229869   -0.614495
     87          6           0       25.790570    0.988757   -1.178820
     88          6           0       26.357445    2.367461   -1.690680
     89          6           0       27.825190    2.251988   -1.152488
     90          6           0       26.115222    2.697501   -3.164192
     91          6           0       24.575114    1.082812   -0.078488
     92          6           0       24.916401    0.962111    1.397898
     93          1           0       23.945292    1.468689    2.464291
     94          7           0       30.670464    2.344925   -0.191372
     95          6           0       29.933800    3.430449   -0.600459
     96          6           0       30.639968    4.606979   -0.331212
     97          6           0       31.918227    4.232221    0.237171
     98          6           0       31.881580    2.748243    0.319113
     99          6           0       30.116832    5.953237   -0.797396
    100          6           0       33.007015    5.237275    0.654577
    101          8           0       32.768256    6.455233    0.493426
    102          6           0       34.282378    4.903128    1.219589
    103          7           0       32.033246   -0.332810    0.880411
    104          6           0       33.017172    0.518438    0.947616
    105          6           0       34.342193   -0.121690    1.450932
    106          6           0       33.957515   -1.616931    1.486351
    107          6           0       32.431096   -1.643023    1.070890
    108          6           0       35.516981    0.118721    0.572988
    109          6           0       34.250880   -2.300850    2.903974
    110          6           0       35.419682   -3.369525    2.934615
    111          7           0       29.626277   -1.635511    0.133572
    112          6           0       30.292194   -2.773055    0.606798
    113          6           0       29.318121   -3.907298    0.662039
    114          6           0       28.093515   -3.298458    0.352918
    115          6           0       28.309760   -1.916921    0.070988
    116          6           0       29.544664   -5.294760    1.019453
    117          6           0       26.737525   -3.598097    0.276973
    118          8           0       26.078863   -4.638152    0.423564
    119          6           0       26.060592   -2.297743   -0.241995
    120          6           0       25.306212   -2.637106   -1.549521
    121          8           0       24.132927   -2.426685   -1.805790
    122          8           0       26.124305   -3.238916   -2.481104
    123          6           0       25.519393   -3.647426   -3.754465
    124          1           0       27.990566    4.259160   -1.257633
    125          1           0       33.910629    2.323433    0.920348
    126          1           0       32.148773   -3.682934    1.201267
    127          1           0       25.510074    0.468932   -2.095289
    128          1           0       25.959496    3.210747   -1.125373
    129          1           0       27.067195    2.728243   -3.693836
    130          1           0       25.649054    3.674515   -3.296754
    131          1           0       25.428616    2.034668   -3.690886
    132          1           0       23.901619    0.307114   -0.443669
    133          1           0       24.040960    2.032930   -0.055746
    134          1           0       25.855444    1.509536    1.474999
    135          1           0       25.156065   -0.090697    1.548169
    136          1           0       30.730690    6.579415   -1.445360
    137          1           0       29.788276    6.518433    0.075103
    138          1           0       29.196817    5.797667   -1.360512
    139          1           0       34.963559    4.300930    0.618643
    140          1           0       34.155503    4.240232    2.074903
    141          1           0       34.813319    5.757681    1.637885
    142          1           0       34.734897    0.184035    2.420595
    143          1           0       34.421427   -2.199750    0.690517
    144          1           0       36.228896    0.854863    0.945987
    145          1           0       35.212470    0.616013   -0.348617
    146          1           0       36.040223   -0.817720    0.380296
    147          1           0       33.368026   -2.875249    3.187838
    148          1           0       34.565650   -1.607065    3.682340
    149          1           0       36.061343   -3.184193    3.795109
    150          1           0       36.063543   -3.183949    2.074806
    151          1           0       34.917594   -4.326812    3.075866
    152          1           0       30.568382   -5.490677    0.699665
    153          1           0       28.862468   -5.948612    0.474958
    154          1           0       29.314271   -5.376398    2.081282
    155          1           0       25.176053   -2.016672    0.329110
    156          1           0       26.122283   -4.451425   -4.177041
    157          1           0       25.471640   -2.915050   -4.560184
    158          1           0       24.470644   -3.934232   -3.671804
 ---------------------------------------------------------------------

 SCF Done:  E(RCAM-B3LYP) =  -4069.78159970     A.U. after   19 cycles

 Excitation energies and oscillator strengths:

 Excited State   1:      Singlet-A      1.6462 eV  753.17 nm  f=0.3902  <S**2>=0.000
     310 -> 316        0.17001
     312 -> 314        0.68912
     310 <- 316        0.10749
 This state for optimization and/or second-order correction.
 Total Energy, E(TD-HF/TD-DFT) =  -4069.72110392
 Copying the excited state density for this state as the 1-particle RhoCI density.

 Excited State   2:      Singlet-A      1.7060 eV  726.77 nm  f=0.4341  <S**2>=0.000
     309 -> 315        0.16085
     311 -> 313        0.68877
     309 <- 315        0.10272

 Excited State   3:      Singlet-A      2.2270 eV  556.73 nm  f=0.1135  <S**2>=0.000
     310 -> 314        0.63819
     312 -> 316       -0.29162

 Excited State   4:      Singlet-A      2.2508 eV  550.84 nm  f=0.1195  <S**2>=0.000
     309 -> 313        0.64223
     311 -> 315       -0.27237

 Excited State   5:      Singlet-A      2.9717 eV  417.21 nm  f=0.0000  <S**2>=0.000
     312 -> 313        0.70711

 The electronic state is 1-A.
 Alpha  occ. eigenvalues --  -46.90323 -46.87133 -19.25151 -19.24904 -19.20120
 Alpha  occ. eigenvalues --  -19.19208 -19.18977 -19.18744 -19.18480 -19.17430
 Alpha  occ. eigenvalues --  -14.43207 -14.42839 -14.41934 -14.41670 -14.40548
 Alpha  occ. eigenvalues --  -14.39831 -14.39510 -14.38743 -10.39728 -10.38576
 Alpha  occ. eigenvalues --  -10.35210 -10.35131 -10.34724 -10.34268 -10.33011
 Alpha  occ. eigenvalues --  -10.32028 -10.31781 -10.31514 -10.31339 -10.31278
 Alpha  occ. eigenvalues --  -10.30937 -10.30761 -10.30748 -10.30714 -10.30655
 Alpha  occ. eigenvalues --  -10.30467 -10.30387 -10.30098 -10.29838 -10.29644
 Alpha  occ. eigenvalues --  -10.29330 -10.29311 -10.29274 -10.29035 -10.28932
 Alpha  occ. eigenvalues --  -10.28839 -10.28814 -10.28729 -10.28479 -10.28428
 Alpha  occ. eigenvalues --  -10.28303 -10.28233 -10.28128 -10.28017 -10.27851
 Alpha  occ. eigenvalues --  -10.27842 -10.27781 -10.27732 -10.27637 -10.27571
 Alpha  occ. eigenvalues --  -10.27519 -10.27498 -10.27460 -10.27185 -10.27185
 Alpha  occ. eigenvalues --  -10.27102 -10.27077 -10.27048 -10.26914 -10.26842
 Alpha  occ. eigenvalues --  -10.26799 -10.26715 -10.26412 -10.26165 -10.26017
 Alpha  occ. eigenvalues --  -10.25983 -10.25823 -10.25745 -10.25660 -10.25621
 Alpha  occ. eigenvalues --  -10.25591 -10.25461 -10.25368 -10.25223 -10.25106
 Alpha  occ. eigenvalues --  -10.24919  -3.18730  -3.15992  -1.93608  -1.93219
 Alpha  occ. eigenvalues --   -1.92997  -1.90882  -1.90426  -1.90337  -1.17292
 Alpha  occ. eigenvalues --   -1.16148  -1.10125  -1.09063  -1.07625  -1.07394
 Alpha  occ. eigenvalues --   -1.07360  -1.07241  -1.05044  -1.04519  -1.04510
 Alpha  occ. eigenvalues --   -1.03651  -1.03555  -1.02703  -1.02258  -1.01396
 Alpha  occ. eigenvalues --   -0.93359  -0.93008  -0.89703  -0.89680  -0.89440
 Alpha  occ. eigenvalues --   -0.88997  -0.88796  -0.88573  -0.88333  -0.87809
 Alpha  occ. eigenvalues --   -0.87666  -0.87211  -0.86401  -0.85305  -0.84657
 Alpha  occ. eigenvalues --   -0.84318  -0.84204  -0.83805  -0.82960  -0.82520
 Alpha  occ. eigenvalues --   -0.82466  -0.81647  -0.81471  -0.81044  -0.80494
 Alpha  occ. eigenvalues --   -0.80279  -0.78491  -0.78346  -0.77766  -0.77405
 Alpha  occ. eigenvalues --   -0.77347  -0.76976  -0.76516  -0.76366  -0.75290
 Alpha  occ. eigenvalues --   -0.75205  -0.73409  -0.72872  -0.71963  -0.71836
 Alpha  occ. eigenvalues --   -0.69575  -0.69080  -0.68933  -0.68677  -0.68418
 Alpha  occ. eigenvalues --   -0.68180  -0.66849  -0.66690  -0.66045  -0.65850
 Alpha  occ. eigenvalues --   -0.65664  -0.65343  -0.64879  -0.64764  -0.64554
 Alpha  occ. eigenvalues --   -0.64067  -0.63345  -0.62326  -0.60911  -0.60311
 Alpha  occ. eigenvalues --   -0.59967  -0.59922  -0.58956  -0.58955  -0.58532
 Alpha  occ. eigenvalues --   -0.58362  -0.58033  -0.57989  -0.57699  -0.57262
 Alpha  occ. eigenvalues --   -0.56340  -0.56077  -0.55626  -0.55611  -0.55488
 Alpha  occ. eigenvalues --   -0.55174  -0.54965  -0.54823  -0.54555  -0.53932
 Alpha  occ. eigenvalues --   -0.53875  -0.53516  -0.53333  -0.53261  -0.52988
 Alpha  occ. eigenvalues --   -0.52886  -0.52879  -0.52605  -0.52544  -0.52422
 Alpha  occ. eigenvalues --   -0.52238  -0.52135  -0.51964  -0.51498  -0.51298
 Alpha  occ. eigenvalues --   -0.51258  -0.51140  -0.50945  -0.50695  -0.50301
 Alpha  occ. eigenvalues --   -0.50274  -0.50087  -0.49968  -0.49910  -0.49599
 Alpha  occ. eigenvalues --   -0.49574  -0.49233  -0.49004  -0.48995  -0.48864
 Alpha  occ. eigenvalues --   -0.48829  -0.48562  -0.48375  -0.48302  -0.48214
 Alpha  occ. eigenvalues --   -0.47985  -0.47755  -0.47663  -0.47416  -0.47312
 Alpha  occ. eigenvalues --   -0.47203  -0.47192  -0.46844  -0.46761  -0.46697
 Alpha  occ. eigenvalues --   -0.46589  -0.46345  -0.46193  -0.45910  -0.45891
 Alpha  occ. eigenvalues --   -0.45731  -0.45257  -0.45184  -0.45018  -0.44899
 Alpha  occ. eigenvalues --   -0.44874  -0.44761  -0.44605  -0.44535  -0.44461
 Alpha  occ. eigenvalues --   -0.44038  -0.43879  -0.43829  -0.43596  -0.43500
 Alpha  occ. eigenvalues --   -0.43274  -0.43162  -0.42699  -0.42673  -0.42398
 Alpha  occ. eigenvalues --   -0.42336  -0.42258  -0.42078  -0.42032  -0.42010
 Alpha  occ. eigenvalues --   -0.41937  -0.41493  -0.41402  -0.40968  -0.40958
 Alpha  occ. eigenvalues --   -0.40880  -0.40858  -0.40721  -0.40483  -0.40421
 Alpha  occ. eigenvalues --   -0.40378  -0.40038  -0.39992  -0.39841  -0.39075
 Alpha  occ. eigenvalues --   -0.38724  -0.38238  -0.38042  -0.37958  -0.37850
 Alpha  occ. eigenvalues --   -0.37606  -0.37184  -0.37018  -0.36864  -0.36601
 Alpha  occ. eigenvalues --   -0.36529  -0.36399  -0.34815  -0.34583  -0.34302
 Alpha  occ. eigenvalues --   -0.34121  -0.34045  -0.33330  -0.31612  -0.31523
 Alpha  occ. eigenvalues --   -0.31082  -0.30923  -0.30721  -0.30700  -0.30178
 Alpha  occ. eigenvalues --   -0.29935  -0.29564  -0.29024  -0.24942  -0.24302
 Alpha  occ. eigenvalues --   -0.21669  -0.21023
 Alpha virt. eigenvalues --   -0.09527  -0.08952  -0.01899  -0.01606  -0.00030
 Alpha virt. eigenvalues --    0.00124   0.00624   0.02178   0.02210   0.03177
 Alpha virt. eigenvalues --    0.04780   0.05009   0.05259   0.05436   0.05480

 Mulliken charges:
               1
     1  Mg  11.995335
     2  C    6.026307
     3  C    5.990718
     4  C    5.964144
     5  C    5.990417
     6  N    7.013227
     7  C    5.963799
     8  C    6.013017
     9  C    5.989201
    10  C    6.036267
    11  C    5.994749
    12  C    6.002990
    13  C    6.000221
    14  H    0.993159
    15  N    6.992947
    16  C    6.049156
    17  C    6.012269
    18  C    6.025003
    19  C    6.036323
    20  C    5.995170
    21  C    6.013058
    22  O    8.038745
    23  C    5.994185
    24  N    6.978894
    25  C    6.038220
    26  C    5.989079
    27  C    6.013010
    28  C    5.981133
    29  C    5.999721
    30  C    6.006862
    31  C    6.000343
    32  N    7.005260
    33  C    5.974353
    34  C    5.964063
    35  C    5.997995
    36  C    5.964369
    37  C    6.004980
    38  C    5.987143
    39  O    7.974746
    40  C    5.995646
    41  C    5.997054
    42  O    7.997586
    43  O    7.997897
    44  C    6.002187
    45  H    1.015613
    46  H    0.997710
    47  H    0.984017
    48  H    1.000223
    49  H    1.004048
    50  H    1.016531
    51  H    0.999320
    52  H    1.003582
    53  H    0.987090
    54  H    1.007813
    55  H    0.997247
    56  H    1.004551
    57  H    1.020444
    58  H    1.014543
    59  H    1.015889
    60  H    1.010871
    61  H    1.015812
    62  H    1.007333
    63  H    0.996666
    64  H    0.995421
    65  H    0.995070
    66  H    1.008988
    67  H    0.995074
    68  H    1.002297
    69  H    0.986227
    70  H    0.992272
    71  H    0.995751
    72  H    1.004674
    73  H    0.980777
    74  H    0.982300
    75  H    0.976171
    76  H    0.996050
    77  H    0.999388
    78  H    0.994558
    79  H    0.994734
    80  Mg  11.999986
    81  C    6.000070
    82  C    6.000115
    83  C    5.999965
    84  C    5.999913
    85  N    7.000069
    86  C    6.000069
    87  C    5.999980
    88  C    6.000039
    89  C    5.999866
    90  C    6.000004
    91  C    5.999997
    92  C    5.999958
    93  H    1.000079
    94  N    6.999977
    95  C    5.999815
    96  C    5.999971
    97  C    5.999904
    98  C    5.999901
    99  C    6.000043
   100  C    5.999951
   101  O    7.999895
   102  C    6.000037
   103  N    6.999919
   104  C    5.999966
   105  C    6.000041
   106  C    5.999984
   107  C    6.000097
   108  C    6.000012
   109  C    5.999989
   110  C    6.000002
   111  N    7.000034
   112  C    6.000178
   113  C    6.000060
   114  C    6.000070
   115  C    6.000078
   116  C    5.999969
   117  C    6.000060
   118  O    8.000153
   119  C    5.999959
   120  C    6.000022
   121  O    8.000062
   122  O    7.999979
   123  C    5.999978
   124  H    0.999983
   125  H    0.999928
   126  H    1.000004
   127  H    1.000004
   128  H    1.000004
   129  H    0.999992
   130  H    0.999992
   131  H    0.999971
   132  H    1.000008
   133  H    1.000043
   134  H    1.000019
   135  H    0.999961
   136  H    0.999917
   137  H    0.999930
   138  H    0.999919
   139  H    0.999949
   140  H    0.999968
   141  H    0.999929
   142  H    0.999980
   143  H    0.999989
   144  H    0.999989
   145  H    1.000009
   146  H    0.999943
   147  H    0.999993
   148  H    1.000026
   149  H    1.000001
   150  H    1.000000
   151  H    0.999996
   152  H    1.000049
   153  H    1.000059
   154  H    1.000083
   155  H    1.000076
   156  H    1.000011
   157  H    1.000021
   158  H    1.000041
 Sum of Mulliken charges = 624.00000

 Dipole moment (field-independent basis, Debye):
    X=             -6.5428    Y=              6.9950    Z=             -5.7683  Tot=             11.1809
 Quadrupole moment (field-independent basis, Debye-Ang):
   XX=            389.7899   YY=              8.4169   ZZ=             -7.2420
   XY=           -216.8811   XZ=            172.0058   YZ=             -0.4885

 Normal termination of Gaussian 16 at Wed Sep 22 20:31:33 2021.
