 Gaussian 16, Revision A.03,
 Gaussian 16:  ES64L-G16RevA.03 25-Dec-2016

 -----------------------------------
 #p cam-b3lyp/Def2SVP td=(nstates=5)
 -----------------------------------

 --------------------------------
 TDDFT excited states in gaussian
 --------------------------------
 Symbolic Z-matrix:
 Charge =  0 Multiplicity = 1

                         Standard orientation:
 ---------------------------------------------------------------------
 Center     Atomic      Atomic             Coordinates (Angstroms)
 Number     Number       Type             X           Y           Z
 ---------------------------------------------------------------------
      1         12           0      -21.657956    0.108494   -0.400866
      2          6           0      -18.316757   -0.359428    0.367883
      3          6           0      -22.240197   -3.246634    0.205658
      4          6           0      -24.965770    0.781568   -0.413874
      5          6           0      -20.910182    3.547079   -0.634556
      6          7           0      -20.454381   -1.553198    0.498284
      7          6           0      -19.119316   -1.510603    0.522893
      8          6           0      -18.551272   -2.862385    1.055526
      9          6           0      -19.768969   -3.851402    0.733806
     10          6           0      -20.918262   -2.833231    0.375892
     11          6           0      -19.414137   -4.918768   -0.329365
     12          6           0      -18.318415   -2.785683    2.547273
     13          6           0      -17.045968   -3.451831    3.047006
     14          1           0      -16.972284   -4.235115    4.411618
     15          7           0      -23.370797   -1.162537   -0.303864
     16          6           0      -23.434061   -2.466562    0.015942
     17          6           0      -24.804528   -2.858756   -0.048585
     18          6           0      -25.615932   -1.738956   -0.404330
     19          6           0      -24.666026   -0.619794   -0.428816
     20          6           0      -25.211159   -4.283233    0.039919
     21          6           0      -27.101378   -1.772332   -0.473288
     22          8           0      -27.698857   -2.824759   -0.320522
     23          6           0      -27.913860   -0.525620   -0.802175
     24          7           0      -22.803998    1.993310   -0.602240
     25          6           0      -24.161385    1.938938   -0.498299
     26          6           0      -24.734717    3.311217   -0.354266
     27          6           0      -23.401919    4.197008   -0.420486
     28          6           0      -22.259733    3.234682   -0.632901
     29          6           0      -25.824763    3.667247   -1.382440
     30          6           0      -23.155634    5.179607    0.808653
     31          6           0      -22.862084    6.679362    0.569527
     32          7           0      -20.010709    1.346498   -0.214687
     33          6           0      -19.849211    2.682740   -0.406067
     34          6           0      -18.494044    2.987163   -0.541642
     35          6           0      -17.797042    1.817997   -0.270237
     36          6           0      -18.756029    0.872510   -0.006089
     37          6           0      -17.931688    4.415694   -0.800176
     38          6           0      -16.546733    1.225170   -0.166588
     39          8           0      -15.447752    1.766928   -0.210107
     40          6           0      -16.752042   -0.290917    0.316554
     41          6           0      -16.312963   -1.222774   -0.658515
     42          8           0      -16.829348   -1.587641   -1.717437
     43          8           0      -15.103080   -1.725474   -0.189754
     44          6           0      -14.363483   -2.716400   -0.952586
     45          1           0      -22.404595   -4.325376    0.241456
     46          1           0      -25.993659    1.150560   -0.439714
     47          1           0      -20.784223    4.616961   -0.813880
     48          1           0      -17.617897   -3.061700    0.529772
     49          1           0      -20.187008   -4.341476    1.612510
     50          1           0      -18.426451   -4.750244   -0.758071
     51          1           0      -20.166996   -4.910493   -1.118195
     52          1           0      -19.483499   -5.894262    0.151438
     53          1           0      -19.119931   -3.127954    3.202205
     54          1           0      -18.353347   -1.719342    2.770353
     55          1           0      -16.266052   -2.691529    3.008490
     56          1           0      -16.843480   -4.149390    2.234305
     57          1           0      -25.324838   -4.563584   -1.007092
     58          1           0      -26.136757   -4.401348    0.603644
     59          1           0      -24.464343   -4.914047    0.522162
     60          1           0      -27.971449    0.040493    0.127626
     61          1           0      -28.931548   -0.876432   -0.971723
     62          1           0      -27.459686    0.026501   -1.624867
     63          1           0      -25.139733    3.239392    0.654625
     64          1           0      -23.441629    4.920002   -1.235247
     65          1           0      -26.767774    3.644151   -0.835274
     66          1           0      -25.837319    2.993215   -2.239582
     67          1           0      -25.679642    4.692919   -1.720738
     68          1           0      -22.304870    4.805134    1.377744
     69          1           0      -24.012503    5.241195    1.479897
     70          1           0      -21.775018    6.639492    0.501481
     71          1           0      -23.136815    7.263797    1.446671
     72          1           0      -23.118549    7.143359   -0.382764
     73          1           0      -18.021968    4.992305    0.119520
     74          1           0      -18.470175    5.018637   -1.531592
     75          1           0      -16.878496    4.374720   -1.079417
     76          1           0      -16.239955   -0.365894    1.275973
     77          1           0      -13.306569   -2.552071   -0.745021
     78          1           0      -14.606660   -2.761989   -2.014469
     79          1           0      -14.567467   -3.690097   -0.506935
     80         12           0       20.872648    0.823865   -0.319675
     81          6           0       21.676398   -2.668723   -0.146395
     82          6           0       18.061810   -0.008920    1.721289
     83          6           0       20.448507    4.042757    0.545021
     84          6           0       23.980862    1.401392   -1.624198
     85          7           0       20.046011   -1.100652    0.665912
     86          6           0       20.513690   -2.379260    0.576915
     87          6           0       19.608951   -3.388614    1.366336
     88          6           0       18.283519   -2.510896    1.575223
     89          6           0       18.855741   -1.115488    1.382867
     90          6           0       17.185092   -2.775222    0.571108
     91          6           0       20.289108   -3.982122    2.588941
     92          6           0       20.128059   -5.505711    2.829280
     93          1           0       19.074182   -6.062523    3.895658
     94          7           0       19.357139    1.936768    0.909400
     95          6           0       18.244862    1.376779    1.571819
     96          6           0       17.451296    2.463252    2.159129
     97          6           0       18.138384    3.679191    1.767778
     98          6           0       19.377002    3.273377    1.139077
     99          6           0       16.240746    2.331374    3.004468
    100          6           0       17.618006    5.077351    1.988752
    101          8           0       16.481635    5.207386    2.384962
    102          6           0       18.416177    6.335628    1.736336
    103          7           0       22.099950    2.381177   -0.423625
    104          6           0       21.608708    3.652190   -0.139033
    105          6           0       22.717847    4.654381   -0.467241
    106          6           0       23.729948    3.829414   -1.343608
    107          6           0       23.211679    2.443533   -1.155977
    108          6           0       22.307000    6.048911   -1.067480
    109          6           0       25.254290    3.998162   -1.060464
    110          6           0       26.139808    4.386233   -2.199423
    111          7           0       22.459984   -0.329294   -0.912328
    112          6           0       23.656177    0.029636   -1.508724
    113          6           0       24.368584   -1.161199   -2.010765
    114          6           0       23.614518   -2.244272   -1.412865
    115          6           0       22.514639   -1.664123   -0.773531
    116          6           0       25.618701   -1.268662   -2.843717
    117          6           0       23.565621   -3.731913   -1.300876
    118          8           0       24.343206   -4.566910   -1.666109
    119          6           0       22.377510   -4.009003   -0.385457
    120          6           0       21.467032   -4.966427   -1.094750
    121          8           0       20.903695   -4.599193   -2.103426
    122          8           0       21.259599   -6.224873   -0.454183
    123          6           0       20.200673   -7.103559   -1.037168
    124          1           0       17.162934   -0.227649    2.301766
    125          1           0       20.452059    5.119530    0.722328
    126          1           0       24.872015    1.628989   -2.212337
    127          1           0       19.252682   -4.197214    0.728752
    128          1           0       17.929254   -2.563530    2.604633
    129          1           0       17.416962   -2.228634   -0.342702
    130          1           0       16.246631   -2.477373    1.038534
    131          1           0       17.029026   -3.795112    0.218046
    132          1           0       19.831679   -3.496810    3.450556
    133          1           0       21.317663   -3.621768    2.604704
    134          1           0       21.130463   -5.811637    3.129736
    135          1           0       19.891646   -6.063633    1.923143
    136          1           0       15.390103    2.485488    2.341262
    137          1           0       16.198616    3.169239    3.700458
    138          1           0       16.073936    1.426500    3.590060
    139          1           0       17.938296    7.262550    2.052820
    140          1           0       18.549328    6.381787    0.655415
    141          1           0       19.435507    6.406329    2.114088
    142          1           0       23.072364    4.916194    0.530112
    143          1           0       23.489208    4.005309   -2.391613
    144          1           0       21.308288    6.001062   -1.502343
    145          1           0       23.055923    6.392638   -1.780737
    146          1           0       22.320663    6.811245   -0.288839
    147          1           0       25.635349    3.070441   -0.633708
    148          1           0       25.347508    4.696482   -0.228849
    149          1           0       26.731846    3.522156   -2.500293
    150          1           0       26.830013    5.165291   -1.875999
    151          1           0       25.662434    4.753038   -3.107829
    152          1           0       25.674809   -2.236038   -3.342432
    153          1           0       26.456226   -1.122962   -2.160922
    154          1           0       25.645235   -0.409948   -3.514791
    155          1           0       22.776234   -4.340305    0.573493
    156          1           0       20.598510   -7.603159   -1.920638
    157          1           0       19.351677   -6.513397   -1.381500
    158          1           0       19.844703   -7.822285   -0.299301
 ---------------------------------------------------------------------

 SCF Done:  E(RCAM-B3LYP) =  -4069.78748644     A.U. after   17 cycles

 Excitation energies and oscillator strengths:

 Excited State   1:      Singlet-A      1.6714 eV  741.80 nm  f=0.4112  <S**2>=0.000
     310 -> 316        0.16926
     312 -> 314        0.68837
     310 <- 316        0.10655
 This state for optimization and/or second-order correction.
 Total Energy, E(TD-HF/TD-DFT) =  -4069.72606342
 Copying the excited state density for this state as the 1-particle RhoCI density.

 Excited State   2:      Singlet-A      1.6990 eV  729.74 nm  f=0.3924  <S**2>=0.000
     309 -> 315       -0.18503
     311 -> 313        0.68456
     309 <- 315       -0.10993

 Excited State   3:      Singlet-A      2.2279 eV  556.51 nm  f=0.0979  <S**2>=0.000
     309 -> 313        0.63665
     311 -> 315        0.29380

 Excited State   4:      Singlet-A      2.2361 eV  554.47 nm  f=0.1299  <S**2>=0.000
     310 -> 314        0.64109
     312 -> 316       -0.28141

 Excited State   5:      Singlet-A      3.0232 eV  410.11 nm  f=0.0000  <S**2>=0.000
     312 -> 313        0.70710

 The electronic state is 1-A.
 Alpha  occ. eigenvalues --  -46.89698 -46.89316 -19.25250 -19.24648 -19.20720
 Alpha  occ. eigenvalues --  -19.20201 -19.19719 -19.19254 -19.18363 -19.17974
 Alpha  occ. eigenvalues --  -14.42751 -14.42360 -14.42028 -14.41707 -14.39815
 Alpha  occ. eigenvalues --  -14.39329 -14.39209 -14.39149 -10.40212 -10.39631
 Alpha  occ. eigenvalues --  -10.35400 -10.35238 -10.34631 -10.34503 -10.32260
 Alpha  occ. eigenvalues --  -10.31592 -10.31554 -10.31404 -10.31378 -10.31317
 Alpha  occ. eigenvalues --  -10.31287 -10.31151 -10.30913 -10.30687 -10.30506
 Alpha  occ. eigenvalues --  -10.30273 -10.30225 -10.29784 -10.29481 -10.29447
 Alpha  occ. eigenvalues --  -10.29216 -10.29095 -10.28841 -10.28827 -10.28728
 Alpha  occ. eigenvalues --  -10.28654 -10.28630 -10.28548 -10.28510 -10.28346
 Alpha  occ. eigenvalues --  -10.28337 -10.28323 -10.28186 -10.28184 -10.28051
 Alpha  occ. eigenvalues --  -10.27983 -10.27821 -10.27806 -10.27784 -10.27770
 Alpha  occ. eigenvalues --  -10.27594 -10.27381 -10.27213 -10.27048 -10.27003
 Alpha  occ. eigenvalues --  -10.26910 -10.26866 -10.26804 -10.26614 -10.26560
 Alpha  occ. eigenvalues --  -10.26538 -10.26516 -10.26514 -10.26485 -10.26305
 Alpha  occ. eigenvalues --  -10.26076 -10.26040 -10.26039 -10.25906 -10.25883
 Alpha  occ. eigenvalues --  -10.25862 -10.25728 -10.25524 -10.25361 -10.24916
 Alpha  occ. eigenvalues --  -10.24859  -3.18020  -3.17886  -1.92934  -1.92734
 Alpha  occ. eigenvalues --   -1.92470  -1.92346  -1.92314  -1.92193  -1.15756
 Alpha  occ. eigenvalues --   -1.15360  -1.11718  -1.10205  -1.10041  -1.09998
 Alpha  occ. eigenvalues --   -1.07860  -1.07533  -1.05520  -1.04587  -1.04094
 Alpha  occ. eigenvalues --   -1.03871  -1.03569  -1.02768  -1.02621  -1.01503
 Alpha  occ. eigenvalues --   -0.93909  -0.92748  -0.89488  -0.89401  -0.89165
 Alpha  occ. eigenvalues --   -0.88878  -0.88449  -0.88414  -0.87906  -0.87607
 Alpha  occ. eigenvalues --   -0.86889  -0.86222  -0.86205  -0.85641  -0.85436
 Alpha  occ. eigenvalues --   -0.84654  -0.84485  -0.83953  -0.83062  -0.82487
 Alpha  occ. eigenvalues --   -0.82268  -0.81835  -0.81494  -0.80810  -0.80548
 Alpha  occ. eigenvalues --   -0.80197  -0.78193  -0.78157  -0.77627  -0.77481
 Alpha  occ. eigenvalues --   -0.76791  -0.76578  -0.76522  -0.76341  -0.75217
 Alpha  occ. eigenvalues --   -0.75191  -0.73526  -0.72639  -0.72404  -0.71773
 Alpha  occ. eigenvalues --   -0.69836  -0.69544  -0.69273  -0.68929  -0.68138
 Alpha  occ. eigenvalues --   -0.67915  -0.67434  -0.66705  -0.66195  -0.65938
 Alpha  occ. eigenvalues --   -0.65929  -0.65500  -0.65088  -0.64875  -0.64534
 Alpha  occ. eigenvalues --   -0.64311  -0.62719  -0.62317  -0.60514  -0.59903
 Alpha  occ. eigenvalues --   -0.59789  -0.59548  -0.59184  -0.59141  -0.59115
 Alpha  occ. eigenvalues --   -0.59060  -0.58321  -0.58199  -0.58010  -0.57640
 Alpha  occ. eigenvalues --   -0.56530  -0.56369  -0.56167  -0.55654  -0.55474
 Alpha  occ. eigenvalues --   -0.55427  -0.54889  -0.54389  -0.54321  -0.53859
 Alpha  occ. eigenvalues --   -0.53555  -0.53414  -0.53358  -0.53074  -0.52953
 Alpha  occ. eigenvalues --   -0.52668  -0.52349  -0.52235  -0.52101  -0.52095
 Alpha  occ. eigenvalues --   -0.51847  -0.51827  -0.51716  -0.51517  -0.51329
 Alpha  occ. eigenvalues --   -0.51306  -0.51093  -0.50918  -0.50429  -0.50394
 Alpha  occ. eigenvalues --   -0.50153  -0.50029  -0.49932  -0.49864  -0.49733
 Alpha  occ. eigenvalues --   -0.49605  -0.49453  -0.49295  -0.49105  -0.49040
 Alpha  occ. eigenvalues --   -0.49003  -0.48698  -0.48588  -0.48402  -0.48308
 Alpha  occ. eigenvalues --   -0.48180  -0.47682  -0.47547  -0.47078  -0.46970
 Alpha  occ. eigenvalues --   -0.46898  -0.46767  -0.46722  -0.46624  -0.46413
 Alpha  occ. eigenvalues --   -0.46375  -0.46175  -0.46142  -0.46048  -0.45977
 Alpha  occ. eigenvalues --   -0.45965  -0.45834  -0.45820  -0.45492  -0.45312
 Alpha  occ. eigenvalues --   -0.45243  -0.45091  -0.44952  -0.44716  -0.44653
 Alpha  occ. eigenvalues --   -0.44532  -0.43920  -0.43767  -0.43624  -0.43608
 Alpha  occ. eigenvalues --   -0.43441  -0.43405  -0.43299  -0.43178  -0.42892
 Alpha  occ. eigenvalues --   -0.42885  -0.42634  -0.42543  -0.42422  -0.42201
 Alpha  occ. eigenvalues --   -0.42069  -0.41937  -0.41912  -0.41850  -0.41543
 Alpha  occ. eigenvalues --   -0.41456  -0.41115  -0.41082  -0.40823  -0.40567
 Alpha  occ. eigenvalues --   -0.40259  -0.40257  -0.39744  -0.39282  -0.38462
 Alpha  occ. eigenvalues --   -0.38304  -0.38227  -0.37982  -0.37693  -0.37389
 Alpha  occ. eigenvalues --   -0.37334  -0.37282  -0.37150  -0.36501  -0.36286
 Alpha  occ. eigenvalues --   -0.35815  -0.35686  -0.35039  -0.34931  -0.34392
 Alpha  occ. eigenvalues --   -0.34376  -0.33630  -0.33177  -0.31840  -0.31596
 Alpha  occ. eigenvalues --   -0.31216  -0.31103  -0.30729  -0.30509  -0.30486
 Alpha  occ. eigenvalues --   -0.29667  -0.29457  -0.28733  -0.24564  -0.24300
 Alpha  occ. eigenvalues --   -0.21558  -0.21119
 Alpha virt. eigenvalues --   -0.09196  -0.08979  -0.02285  -0.01491  -0.00189
 Alpha virt. eigenvalues --    0.00475   0.01252   0.02324   0.02505   0.02643
 Alpha virt. eigenvalues --    0.04040   0.04403   0.04409   0.04628   0.05494

 Mulliken charges:
               1
     1  Mg   0.803441
     2  C   -0.053530
     3  C   -0.077647
     4  C   -0.031521
     5  C   -0.113877
     6  N   -0.266401
     7  C   -0.028584
     8  C   -0.077948
     9  C   -0.056780
    10  C    0.065553
    11  C    0.083065
    12  C    0.065145
    13  C   -0.060425
    14  H    0.028835
    15  N   -0.375695
    16  C    0.137221
    17  C   -0.161467
    18  C   -0.018974
    19  C    0.178087
    20  C    0.123845
    21  C   -0.042893
    22  O   -0.205036
    23  C    0.068025
    24  N   -0.281959
    25  C   -0.040099
    26  C   -0.032412
    27  C   -0.000405
    28  C    0.029931
    29  C    0.073847
    30  C   -0.008478
    31  C   -0.012547
    32  N   -0.343834
    33  C    0.184276
    34  C   -0.180466
    35  C    0.103200
    36  C    0.131983
    37  C    0.117899
    38  C   -0.022207
    39  O   -0.171166
    40  C   -0.002517
    41  C    0.227970
    42  O   -0.227816
    43  O   -0.357577
    44  C    0.177861
    45  H   -0.025153
    46  H   -0.050652
    47  H   -0.029523
    48  H    0.016113
    49  H    0.020240
    50  H    0.026942
    51  H    0.012897
    52  H    0.013819
    53  H    0.013070
    54  H    0.002791
    55  H    0.032706
    56  H    0.023564
    57  H    0.036648
    58  H    0.042121
    59  H    0.002272
    60  H    0.036914
    61  H    0.024996
    62  H    0.043451
    63  H    0.026540
    64  H   -0.001263
    65  H    0.020690
    66  H    0.031758
    67  H    0.017648
    68  H    0.019568
    69  H    0.006262
    70  H    0.003074
    71  H    0.024541
    72  H    0.019077
    73  H    0.024525
    74  H    0.016653
    75  H    0.037818
    76  H    0.052384
    77  H    0.038636
    78  H    0.051823
    79  H    0.019129
    80  Mg   0.850185
    81  C   -0.068689
    82  C   -0.046541
    83  C   -0.070132
    84  C   -0.117771
    85  N   -0.248502
    86  C   -0.056130
    87  C   -0.029254
    88  C   -0.067536
    89  C    0.027847
    90  C    0.088681
    91  C    0.079536
    92  C   -0.054246
    93  H    0.008677
    94  N   -0.346047
    95  C    0.095271
    96  C   -0.125926
    97  C   -0.029135
    98  C    0.139837
    99  C    0.130525
   100  C   -0.009057
   101  O   -0.204418
   102  C    0.048536
   103  N   -0.372419
   104  C    0.069204
   105  C   -0.081041
   106  C    0.022206
   107  C    0.057904
   108  C    0.063538
   109  C    0.049700
   110  C    0.008710
   111  N   -0.354569
   112  C    0.126925
   113  C   -0.181003
   114  C   -0.063989
   115  C    0.147733
   116  C    0.135422
   117  C    0.053047
   118  O   -0.136308
   119  C    0.059756
   120  C    0.212856
   121  O   -0.206826
   122  O   -0.375228
   123  C    0.175411
   124  H   -0.030884
   125  H   -0.056687
   126  H   -0.037330
   127  H    0.003953
   128  H    0.001852
   129  H    0.021999
   130  H    0.020357
   131  H    0.014386
   132  H    0.012526
   133  H    0.016698
   134  H    0.032656
   135  H    0.027187
   136  H    0.030854
   137  H    0.030823
   138  H    0.014447
   139  H    0.024102
   140  H    0.029766
   141  H    0.037063
   142  H    0.024822
   143  H    0.007138
   144  H    0.023804
   145  H    0.015792
   146  H    0.009090
   147  H    0.014426
   148  H   -0.000389
   149  H    0.015703
   150  H    0.013720
   151  H    0.015191
   152  H    0.047880
   153  H    0.030540
   154  H    0.013035
   155  H    0.042035
   156  H    0.044656
   157  H    0.034787
   158  H    0.047261
 Sum of Mulliken charges =  -0.00000

 Dipole moment (field-independent basis, Debye):
    X=             -0.4383    Y=              3.4881    Z=              0.1439  Tot=              3.5184
 Quadrupole moment (field-independent basis, Debye-Ang):
   XX=           -456.8299   YY=           -483.6530   ZZ=           -520.8325
   XY=             -2.7980   XZ=            -13.2646   YZ=            -22.3038

 Normal termination of Gaussian 16 at Wed Sep  1 08:35:38 2021.
