 Gaussian 16, Revision A.03,
 Gaussian 16:  ES64L-G16RevA.03 25-Dec-2016

 -----------------------------------
 #p cam-b3lyp/Def2SVP td=(nstates=5)
 -----------------------------------

 --------------------------------
 TDDFT excited states in gaussian
 --------------------------------
 Symbolic Z-matrix:
 Charge =  0 Multiplicity = 1

                         Standard orientation:
 ---------------------------------------------------------------------
 Center     Atomic      Atomic             Coordinates (Angstroms)
 Number     Number       Type             X           Y           Z
 ---------------------------------------------------------------------
      1         12           0       21.883050   -0.582877    0.518154
      2          6           0       21.468826    2.129265   -1.707286
      3          6           0       22.356368    1.510066    3.022153
      4          6           0       23.133227   -3.212694    2.305317
      5          6           0       22.380541   -2.663910   -2.497969
      6          7           0       21.956879    1.592114    0.584098
      7          6           0       21.531015    2.463487   -0.353257
      8          6           0       21.321638    3.844236    0.298867
      9          6           0       21.570943    3.643968    1.759374
     10          6           0       22.036090    2.157866    1.828646
     11          6           0       22.503058    4.760439    2.385420
     12          6           0       19.998125    4.621820   -0.007787
     13          6           0       19.272755    5.530532    1.074843
     14          1           0       18.759983    6.912907    0.645283
     15          7           0       22.403109   -0.836409    2.484449
     16          6           0       22.534667    0.194414    3.387310
     17          6           0       22.864523   -0.381146    4.660110
     18          6           0       23.150042   -1.793839    4.507602
     19          6           0       22.951462   -1.988664    3.054424
     20          6           0       23.015834    0.525877    5.813435
     21          6           0       23.498417   -2.875541    5.559741
     22          8           0       23.741985   -3.985433    5.217231
     23          6           0       23.289565   -2.608929    7.014888
     24          7           0       22.699555   -2.633991   -0.067468
     25          6           0       23.001547   -3.492817    0.932049
     26          6           0       23.372202   -4.912035    0.394542
     27          6           0       23.100459   -4.771501   -1.134481
     28          6           0       22.716757   -3.278785   -1.287377
     29          6           0       24.776171   -5.372377    0.684013
     30          6           0       22.011650   -5.697617   -1.780853
     31          6           0       20.569585   -5.367631   -1.592078
     32          7           0       21.925478   -0.441587   -1.664799
     33          6           0       22.076644   -1.347147   -2.675537
     34          6           0       21.818848   -0.699919   -3.938747
     35          6           0       21.574734    0.668659   -3.650473
     36          6           0       21.698711    0.778024   -2.250512
     37          6           0       21.969863   -1.272167   -5.303994
     38          6           0       21.304476    1.966609   -4.199736
     39          8           0       21.106044    2.374345   -5.338439
     40          6           0       21.173603    2.966523   -2.964663
     41          6           0       22.004136    4.227837   -3.131451
     42          8           0       23.207369    4.238887   -3.172062
     43          8           0       21.160329    5.326090   -3.179369
     44          6           0       21.869173    6.591197   -3.375334
     45          1           0       22.325386    2.105762    3.937256
     46          1           0       23.482841   -4.017647    2.954731
     47          1           0       22.421995   -3.297927   -3.385983
     48          1           0       22.112951    4.382451   -0.222929
     49          1           0       20.621336    3.789304    2.275109
     50          1           0       22.672202    5.545145    1.648223
     51          1           0       23.380553    4.262553    2.797896
     52          1           0       21.987726    5.309082    3.174008
     53          1           0       19.263199    3.874601   -0.308206
     54          1           0       20.097009    5.261172   -0.885419
     55          1           0       20.009821    5.638586    1.870807
     56          1           0       18.431703    4.977962    1.493823
     57          1           0       23.831024    0.110415    6.405425
     58          1           0       22.103547    0.445130    6.403276
     59          1           0       23.204930    1.592247    5.689038
     60          1           0       24.263298   -2.228417    7.320580
     61          1           0       22.921690   -3.517040    7.493467
     62          1           0       22.602842   -1.793183    7.241950
     63          1           0       22.657535   -5.668518    0.719334
     64          1           0       23.931487   -4.828143   -1.836835
     65          1           0       25.270024   -4.718374    1.403859
     66          1           0       25.407906   -5.353880   -0.204452
     67          1           0       24.674562   -6.378755    1.089431
     68          1           0       22.143563   -6.719815   -1.425990
     69          1           0       22.269323   -5.822347   -2.832832
     70          1           0       20.446539   -4.753826   -0.699567
     71          1           0       19.830628   -6.149728   -1.416390
     72          1           0       20.267358   -4.893446   -2.526379
     73          1           0       22.971001   -1.630011   -5.542617
     74          1           0       21.949065   -0.414809   -5.977218
     75          1           0       21.206684   -2.021368   -5.516413
     76          1           0       20.114381    3.216475   -2.900801
     77          1           0       21.602005    6.901021   -2.365497
     78          1           0       21.289296    7.082991   -4.155990
     79          1           0       22.931697    6.461406   -3.582123
     80         12           0      -21.843552   -0.752501   -0.201830
     81          6           0      -23.080090    1.939912    1.554247
     82          6           0      -19.866801    1.531764   -2.110461
     83          6           0      -20.891610   -3.212145   -2.152888
     84          6           0      -23.917996   -2.919907    1.576533
     85          7           0      -21.564864    1.469193   -0.199951
     86          6           0      -22.143634    2.350403    0.621067
     87          6           0      -21.548281    3.768880    0.341518
     88          6           0      -20.620222    3.578382   -0.944432
     89          6           0      -20.721990    2.054663   -1.150211
     90          6           0      -21.099430    4.206089   -2.239223
     91          6           0      -20.855585    4.426196    1.544748
     92          6           0      -21.371662    5.835897    1.779485
     93          1           0      -20.495433    6.897595    2.460027
     94          7           0      -20.494158   -0.821961   -1.843991
     95          6           0      -19.759446    0.161731   -2.440731
     96          6           0      -18.938438   -0.330076   -3.455118
     97          6           0      -19.286915   -1.718084   -3.601172
     98          6           0      -20.263714   -1.989176   -2.490348
     99          6           0      -17.952382    0.520124   -4.242980
    100          6           0      -18.830846   -2.712894   -4.656019
    101          8           0      -19.388642   -3.826512   -4.701491
    102          6           0      -17.842635   -2.356991   -5.690483
    103          7           0      -22.321898   -2.729006   -0.226946
    104          6           0      -21.751806   -3.624610   -1.108234
    105          6           0      -22.265438   -5.105030   -0.961481
    106          6           0      -23.016279   -4.977201    0.432284
    107          6           0      -23.116244   -3.450796    0.607254
    108          6           0      -23.182801   -5.773682   -2.060015
    109          6           0      -22.474915   -5.825816    1.670883
    110          6           0      -21.246502   -5.276476    2.346851
    111          7           0      -23.301663   -0.590267    1.144116
    112          6           0      -24.085383   -1.516910    1.804988
    113          6           0      -24.946547   -0.917610    2.740517
    114          6           0      -24.545517    0.422272    2.686698
    115          6           0      -23.530671    0.598184    1.701390
    116          6           0      -25.851850   -1.703758    3.589838
    117          6           0      -24.929189    1.670607    3.224199
    118          8           0      -25.867119    1.905645    3.988705
    119          6           0      -23.967755    2.773855    2.536110
    120          6           0      -24.788822    3.769362    1.869753
    121          8           0      -25.389255    3.635465    0.828049
    122          8           0      -24.899221    4.856604    2.623100
    123          6           0      -25.770286    5.911060    2.199805
    124          1           0      -19.306478    2.241885   -2.721499
    125          1           0      -20.671733   -4.121981   -2.714726
    126          1           0      -24.552297   -3.632706    2.107691
    127          1           0      -22.453230    4.298102    0.044741
    128          1           0      -19.692162    4.098959   -0.705567
    129          1           0      -21.992010    4.824551   -2.140196
    130          1           0      -21.377621    3.430729   -2.952530
    131          1           0      -20.267302    4.702823   -2.739053
    132          1           0      -19.767243    4.456069    1.489754
    133          1           0      -21.055872    3.805312    2.417638
    134          1           0      -22.200106    5.734903    2.481550
    135          1           0      -21.674302    6.209391    0.801397
    136          1           0      -17.807302    1.498264   -3.784286
    137          1           0      -18.394240    0.761993   -5.209854
    138          1           0      -17.037211   -0.032425   -4.452406
    139          1           0      -17.923110   -3.024107   -6.549468
    140          1           0      -16.856892   -2.528025   -5.256756
    141          1           0      -17.989656   -1.327873   -6.017314
    142          1           0      -21.460344   -5.800895   -0.723335
    143          1           0      -24.007086   -5.418163    0.330296
    144          1           0      -23.328428   -5.045209   -2.856674
    145          1           0      -24.198826   -5.848568   -1.670440
    146          1           0      -22.878134   -6.735292   -2.474046
    147          1           0      -22.165874   -6.786981    1.260812
    148          1           0      -23.236347   -6.065725    2.412038
    149          1           0      -21.314848   -5.556109    3.397573
    150          1           0      -20.987337   -4.221138    2.271826
    151          1           0      -20.394027   -5.765336    1.875228
    152          1           0      -25.555907   -2.712307    3.877421
    153          1           0      -26.905011   -1.686401    3.311994
    154          1           0      -25.863905   -1.092959    4.492188
    155          1           0      -23.388459    3.247721    3.328320
    156          1           0      -25.263818    6.636942    1.562626
    157          1           0      -26.067743    6.452596    3.097591
    158          1           0      -26.613610    5.495646    1.647931
 ---------------------------------------------------------------------

 SCF Done:  E(RCAM-B3LYP) =  -4069.81035719     A.U. after   17 cycles

 Excitation energies and oscillator strengths:

 Excited State   1:      Singlet-A      1.7017 eV  728.59 nm  f=0.3429  <S**2>=0.000
     310 -> 315        0.18638
     312 -> 314        0.68155
     310 <- 315        0.10989
 This state for optimization and/or second-order correction.
 Total Energy, E(TD-HF/TD-DFT) =  -4069.74782085
 Copying the excited state density for this state as the 1-particle RhoCI density.

 Excited State   2:      Singlet-A      1.7068 eV  726.41 nm  f=0.4582  <S**2>=0.000
     309 -> 316        0.17206
     311 -> 313        0.68444
     309 <- 316        0.10502

 Excited State   3:      Singlet-A      2.1898 eV  566.18 nm  f=0.1083  <S**2>=0.000
     310 -> 314        0.64227
     312 -> 315       -0.28258

 Excited State   4:      Singlet-A      2.2215 eV  558.10 nm  f=0.1603  <S**2>=0.000
     309 -> 313        0.65327
     311 -> 316       -0.25409

 Excited State   5:      Singlet-A      3.0449 eV  407.18 nm  f=0.0000  <S**2>=0.000
     312 -> 313        0.70710

 The electronic state is 1-A.
 Alpha  occ. eigenvalues --  -46.90019 -46.87699 -19.24841 -19.24761 -19.20051
 Alpha  occ. eigenvalues --  -19.19602 -19.18656 -19.18638 -19.18605 -19.18254
 Alpha  occ. eigenvalues --  -14.42312 -14.42240 -14.42180 -14.41805 -14.39727
 Alpha  occ. eigenvalues --  -14.39520 -14.38977 -14.38833 -10.39143 -10.38315
 Alpha  occ. eigenvalues --  -10.35751 -10.34881 -10.34823 -10.34524 -10.31652
 Alpha  occ. eigenvalues --  -10.31516 -10.31283 -10.31231 -10.31200 -10.31171
 Alpha  occ. eigenvalues --  -10.31150 -10.30910 -10.30751 -10.30736 -10.30388
 Alpha  occ. eigenvalues --  -10.30169 -10.29614 -10.29471 -10.29398 -10.29067
 Alpha  occ. eigenvalues --  -10.29039 -10.29001 -10.28698 -10.28614 -10.28567
 Alpha  occ. eigenvalues --  -10.28539 -10.28296 -10.28289 -10.28281 -10.28207
 Alpha  occ. eigenvalues --  -10.28065 -10.27975 -10.27951 -10.27857 -10.27713
 Alpha  occ. eigenvalues --  -10.27681 -10.27675 -10.27601 -10.27582 -10.27512
 Alpha  occ. eigenvalues --  -10.27389 -10.27320 -10.27308 -10.27203 -10.27050
 Alpha  occ. eigenvalues --  -10.26813 -10.26807 -10.26746 -10.26618 -10.26585
 Alpha  occ. eigenvalues --  -10.26561 -10.26374 -10.26318 -10.26289 -10.26283
 Alpha  occ. eigenvalues --  -10.26199 -10.26179 -10.26154 -10.25760 -10.25573
 Alpha  occ. eigenvalues --  -10.25417 -10.25128 -10.24996 -10.24995 -10.24904
 Alpha  occ. eigenvalues --  -10.24652  -3.18327  -3.16484  -1.93201  -1.92792
 Alpha  occ. eigenvalues --   -1.92618  -1.91382  -1.90955  -1.90788  -1.17946
 Alpha  occ. eigenvalues --   -1.16315  -1.12922  -1.09235  -1.08867  -1.08563
 Alpha  occ. eigenvalues --   -1.08516  -1.07810  -1.04607  -1.04246  -1.03715
 Alpha  occ. eigenvalues --   -1.03345  -1.03165  -1.02561  -1.02507  -1.01860
 Alpha  occ. eigenvalues --   -0.92102  -0.91638  -0.89379  -0.89330  -0.88903
 Alpha  occ. eigenvalues --   -0.88787  -0.88359  -0.88282  -0.87664  -0.87530
 Alpha  occ. eigenvalues --   -0.87395  -0.87198  -0.86799  -0.86118  -0.84607
 Alpha  occ. eigenvalues --   -0.84027  -0.83878  -0.83683  -0.82965  -0.82552
 Alpha  occ. eigenvalues --   -0.82412  -0.82023  -0.81195  -0.80864  -0.80609
 Alpha  occ. eigenvalues --   -0.80426  -0.78354  -0.78310  -0.77346  -0.77183
 Alpha  occ. eigenvalues --   -0.77124  -0.76908  -0.75995  -0.75878  -0.75297
 Alpha  occ. eigenvalues --   -0.74675  -0.73464  -0.72352  -0.71492  -0.71466
 Alpha  occ. eigenvalues --   -0.69839  -0.69666  -0.69300  -0.68852  -0.68228
 Alpha  occ. eigenvalues --   -0.67809  -0.67160  -0.66930  -0.65408  -0.64943
 Alpha  occ. eigenvalues --   -0.64933  -0.64620  -0.64398  -0.64328  -0.64163
 Alpha  occ. eigenvalues --   -0.64036  -0.62357  -0.61730  -0.60440  -0.60051
 Alpha  occ. eigenvalues --   -0.60016  -0.59577  -0.59008  -0.58828  -0.58526
 Alpha  occ. eigenvalues --   -0.58373  -0.58364  -0.58022  -0.57696  -0.57410
 Alpha  occ. eigenvalues --   -0.56540  -0.56218  -0.56172  -0.55904  -0.55413
 Alpha  occ. eigenvalues --   -0.55105  -0.55077  -0.54687  -0.54609  -0.54374
 Alpha  occ. eigenvalues --   -0.54083  -0.53746  -0.53548  -0.53368  -0.53180
 Alpha  occ. eigenvalues --   -0.52791  -0.52789  -0.52519  -0.52400  -0.52367
 Alpha  occ. eigenvalues --   -0.52146  -0.51753  -0.51736  -0.51342  -0.51219
 Alpha  occ. eigenvalues --   -0.50955  -0.50852  -0.50642  -0.50321  -0.50313
 Alpha  occ. eigenvalues --   -0.50310  -0.50057  -0.49974  -0.49680  -0.49545
 Alpha  occ. eigenvalues --   -0.49485  -0.49272  -0.49226  -0.49157  -0.49006
 Alpha  occ. eigenvalues --   -0.48976  -0.48793  -0.48621  -0.48409  -0.48363
 Alpha  occ. eigenvalues --   -0.48159  -0.47788  -0.47719  -0.47344  -0.47231
 Alpha  occ. eigenvalues --   -0.47161  -0.46892  -0.46789  -0.46515  -0.46391
 Alpha  occ. eigenvalues --   -0.46053  -0.46038  -0.45806  -0.45578  -0.45553
 Alpha  occ. eigenvalues --   -0.45452  -0.45438  -0.45165  -0.44941  -0.44654
 Alpha  occ. eigenvalues --   -0.44602  -0.44586  -0.44389  -0.44355  -0.44113
 Alpha  occ. eigenvalues --   -0.43912  -0.43740  -0.43667  -0.43647  -0.43507
 Alpha  occ. eigenvalues --   -0.43272  -0.43254  -0.43024  -0.42954  -0.42692
 Alpha  occ. eigenvalues --   -0.42634  -0.42542  -0.42366  -0.42059  -0.42010
 Alpha  occ. eigenvalues --   -0.41852  -0.41601  -0.41524  -0.41488  -0.41334
 Alpha  occ. eigenvalues --   -0.41126  -0.41002  -0.40899  -0.40620  -0.40499
 Alpha  occ. eigenvalues --   -0.40152  -0.39217  -0.39213  -0.38987  -0.38899
 Alpha  occ. eigenvalues --   -0.38213  -0.38143  -0.37932  -0.37752  -0.37410
 Alpha  occ. eigenvalues --   -0.37205  -0.36926  -0.36550  -0.36370  -0.36197
 Alpha  occ. eigenvalues --   -0.35934  -0.35742  -0.34648  -0.34249  -0.33896
 Alpha  occ. eigenvalues --   -0.33581  -0.33177  -0.33147  -0.31816  -0.31461
 Alpha  occ. eigenvalues --   -0.30863  -0.30797  -0.30634  -0.30548  -0.30075
 Alpha  occ. eigenvalues --   -0.29855  -0.29781  -0.29368  -0.24139  -0.23848
 Alpha  occ. eigenvalues --   -0.21495  -0.21078
 Alpha virt. eigenvalues --   -0.09114  -0.08667  -0.01649  -0.01443   0.00290
 Alpha virt. eigenvalues --    0.00472   0.01131   0.02464   0.02489   0.03149
 Alpha virt. eigenvalues --    0.04483   0.05624   0.05653   0.05664   0.05926

 Mulliken charges:
               1
     1  Mg   0.817781
     2  C   -0.011179
     3  C   -0.048719
     4  C   -0.055540
     5  C   -0.096257
     6  N   -0.298075
     7  C   -0.057260
     8  C    0.017538
     9  C   -0.086239
    10  C    0.071811
    11  C    0.069643
    12  C    0.007541
    13  C   -0.067051
    14  H    0.036274
    15  N   -0.428083
    16  C    0.123557
    17  C   -0.120412
    18  C   -0.043119
    19  C    0.090955
    20  C    0.083035
    21  C    0.006708
    22  O   -0.165867
    23  C    0.045761
    24  N   -0.240914
    25  C    0.047224
    26  C   -0.014269
    27  C   -0.001763
    28  C   -0.021723
    29  C    0.084116
    30  C    0.000168
    31  C    0.023703
    32  N   -0.309204
    33  C    0.157970
    34  C   -0.178997
    35  C    0.018065
    36  C    0.070967
    37  C    0.109133
    38  C    0.054889
    39  O   -0.173458
    40  C    0.002871
    41  C    0.190169
    42  O   -0.197554
    43  O   -0.349895
    44  C    0.157924
    45  H   -0.041362
    46  H   -0.000488
    47  H   -0.031332
    48  H    0.022162
    49  H    0.017465
    50  H    0.020958
    51  H    0.027904
    52  H    0.010822
    53  H    0.005471
    54  H    0.023772
    55  H    0.015087
    56  H    0.032464
    57  H    0.014289
    58  H    0.031683
    59  H    0.035830
    60  H    0.041901
    61  H    0.048341
    62  H    0.015531
    63  H    0.012523
    64  H    0.008298
    65  H    0.023036
    66  H    0.012837
    67  H    0.018972
    68  H   -0.001816
    69  H   -0.002377
    70  H    0.016598
    71  H    0.009326
    72  H    0.016369
    73  H    0.022616
    74  H    0.027230
    75  H    0.029713
    76  H    0.040614
    77  H    0.033787
    78  H    0.050141
    79  H    0.069407
    80  Mg   0.849754
    81  C   -0.032511
    82  C   -0.104340
    83  C   -0.040422
    84  C   -0.102984
    85  N   -0.276999
    86  C   -0.073642
    87  C    0.020010
    88  C   -0.112941
    89  C    0.098354
    90  C    0.051541
    91  C    0.081316
    92  C   -0.091574
    93  H    0.011444
    94  N   -0.341472
    95  C    0.146762
    96  C   -0.163382
    97  C   -0.029807
    98  C    0.148889
    99  C    0.116777
   100  C   -0.008348
   101  O   -0.229848
   102  C    0.068405
   103  N   -0.320755
   104  C    0.008056
   105  C   -0.016776
   106  C   -0.037859
   107  C    0.071422
   108  C    0.076338
   109  C    0.018574
   110  C   -0.003763
   111  N   -0.375125
   112  C    0.118503
   113  C   -0.127433
   114  C    0.017185
   115  C    0.159535
   116  C    0.116729
   117  C    0.021777
   118  O   -0.183755
   119  C   -0.013645
   120  C    0.166798
   121  O   -0.220793
   122  O   -0.295163
   123  C    0.174908
   124  H   -0.024838
   125  H   -0.005980
   126  H   -0.029581
   127  H    0.009701
   128  H    0.016834
   129  H    0.020845
   130  H    0.019479
   131  H    0.013212
   132  H    0.015406
   133  H    0.005715
   134  H    0.041360
   135  H    0.035634
   136  H    0.018804
   137  H    0.034039
   138  H    0.033322
   139  H    0.029297
   140  H    0.043624
   141  H    0.024151
   142  H    0.010395
   143  H    0.001460
   144  H    0.018281
   145  H    0.006749
   146  H    0.034660
   147  H    0.004116
   148  H    0.008759
   149  H    0.014726
   150  H    0.026998
   151  H    0.007613
   152  H    0.024874
   153  H    0.030983
   154  H    0.021928
   155  H    0.035894
   156  H    0.024938
   157  H    0.037057
   158  H    0.049807
 Sum of Mulliken charges =  -0.00000

 Dipole moment (field-independent basis, Debye):
    X=              2.1795    Y=              0.0178    Z=              3.7455  Tot=              4.3335
 Quadrupole moment (field-independent basis, Debye-Ang):
   XX=           -788.3516   YY=           -467.9382   ZZ=           -524.0589
   XY=             18.5696   XZ=            129.5592   YZ=              6.8921

 Normal termination of Gaussian 16 at Wed Sep 15 04:08:00 2021.
