 Gaussian 16, Revision A.03,
 Gaussian 16:  ES64L-G16RevA.03 25-Dec-2016

 ----------------------------------------------------------
 #p cam-b3lyp/Def2SVP td=(nstates=5) density=(transition=1)
 ----------------------------------------------------------

 --------------------------------
 TDDFT excited states in gaussian
 --------------------------------
 Symbolic Z-matrix:
 Charge =  0 Multiplicity = 1

                         Standard orientation:
 ---------------------------------------------------------------------
 Center     Atomic      Atomic             Coordinates (Angstroms)
 Number     Number       Type             X           Y           Z
 ---------------------------------------------------------------------
      1         12           0       18.989049   -0.283327    0.082888
      2          6           0       15.371144   -0.821122   -0.212340
      3          6           0       18.767717    0.968350   -3.136428
      4          6           0       21.784566    1.146311    0.640644
      5          6           0       18.578513   -1.261200    3.516107
      6          7           0       17.125942    0.156665   -1.463079
      7          6           0       15.785769   -0.150194   -1.373439
      8          6           0       15.037325    0.412500   -2.636759
      9          6           0       16.157958    0.711753   -3.647619
     10          6           0       17.420699    0.610042   -2.710063
     11          6           0       16.339365   -0.258813   -4.887772
     12          6           0       14.097023    1.626433   -2.323572
     13          6           0       12.775282    1.661106   -3.060192
     14          1           0       12.674510    2.635407   -4.275570
     15          7           0       20.174995    0.777005   -1.094624
     16          6           0       19.996268    1.111899   -2.409321
     17          6           0       21.174357    1.878496   -2.899453
     18          6           0       22.041093    1.946678   -1.777677
     19          6           0       21.325381    1.313899   -0.672558
     20          6           0       21.353629    2.520220   -4.285009
     21          6           0       23.340931    2.741654   -1.624161
     22          8           0       23.765096    3.321661   -2.620045
     23          6           0       24.098760    2.829185   -0.438740
     24          7           0       19.910583    0.134702    1.947007
     25          6           0       21.224057    0.532258    1.794540
     26          6           0       21.931468    0.430230    3.201121
     27          6           0       20.781888   -0.048925    4.158361
     28          6           0       19.726815   -0.511583    3.125079
     29          6           0       23.195696   -0.470761    3.255566
     30          6           0       20.208771    0.962646    5.231015
     31          6           0       21.010073    1.173130    6.527498
     32          7           0       17.384012   -0.966963    1.449057
     33          6           0       17.426328   -1.434393    2.747401
     34          6           0       16.170015   -2.018594    3.150138
     35          6           0       15.325532   -1.811124    1.995934
     36          6           0       16.049496   -1.113964    0.966624
     37          6           0       15.902331   -2.583597    4.511054
     38          6           0       14.018571   -1.965533    1.535155
     39          8           0       12.995857   -2.303327    2.115768
     40          6           0       13.933860   -1.234497    0.163979
     41          6           0       13.422527   -2.284898   -0.794129
     42          8           0       12.483652   -2.095990   -1.571572
     43          8           0       14.215056   -3.500299   -0.869722
     44          6           0       13.891142   -4.305107   -2.046534
     45          1           0       18.742327    1.300848   -4.175788
     46          1           0       22.801459    1.421859    0.927781
     47          1           0       18.635065   -1.599858    4.552637
     48          1           0       14.509159   -0.411288   -3.118995
     49          1           0       16.134446    1.748366   -3.983726
     50          1           0       15.961264    0.309518   -5.737298
     51          1           0       15.709262   -1.142566   -4.791798
     52          1           0       17.348304   -0.640537   -5.043730
     53          1           0       14.492912    2.597393   -2.622344
     54          1           0       13.835660    1.639616   -1.265234
     55          1           0       12.000710    1.829471   -2.311978
     56          1           0       12.603541    0.665672   -3.470963
     57          1           0       22.381546    2.386473   -4.623102
     58          1           0       21.060512    3.558502   -4.130026
     59          1           0       20.732791    2.023476   -5.029360
     60          1           0       24.506515    1.840382   -0.226318
     61          1           0       23.572341    3.263824    0.411066
     62          1           0       24.823783    3.594405   -0.718121
     63          1           0       22.273208    1.388721    3.590334
     64          1           0       21.056270   -0.965500    4.680012
     65          1           0       22.980492   -1.215532    4.021919
     66          1           0       24.040838    0.145727    3.560209
     67          1           0       23.274849   -0.857163    2.238694
     68          1           0       19.234754    0.539221    5.478335
     69          1           0       20.148378    1.971527    4.822301
     70          1           0       21.807883    0.442717    6.389941
     71          1           0       20.453941    0.820734    7.397369
     72          1           0       21.419271    2.167739    6.703071
     73          1           0       16.114972   -1.771302    5.204840
     74          1           0       16.602295   -3.366513    4.802383
     75          1           0       14.846528   -2.792347    4.684107
     76          1           0       13.171166   -0.462670    0.265526
     77          1           0       14.861425   -4.799532   -2.106794
     78          1           0       13.518214   -3.697690   -2.871170
     79          1           0       13.179119   -5.059875   -1.712465
     80         12           0      -18.397013    0.577013    0.535535
     81          6           0      -15.660108   -1.127450   -0.807277
     82          6           0      -20.022006   -2.525805    0.697860
     83          6           0      -21.273649    2.105839    1.301459
     84          6           0      -17.066344    3.521376   -0.649094
     85          7           0      -17.866003   -1.662725    0.098474
     86          6           0      -16.693818   -2.006809   -0.498199
     87          6           0      -16.643559   -3.563531   -0.764469
     88          6           0      -18.184083   -3.954265   -0.497580
     89          6           0      -18.760608   -2.655094    0.089779
     90          6           0      -18.854811   -4.190199   -1.897387
     91          6           0      -15.703386   -4.195337    0.326835
     92          6           0      -15.590939   -5.743819    0.363858
     93          1           0      -15.613595   -6.662825    1.548877
     94          7           0      -20.272733   -0.137915    1.123724
     95          6           0      -20.774792   -1.448938    1.177059
     96          6           0      -22.108648   -1.380700    1.604954
     97          6           0      -22.430740   -0.078731    1.964089
     98          6           0      -21.302936    0.695212    1.472110
     99          6           0      -22.897166   -2.633090    1.806828
    100          6           0      -23.742997    0.523049    2.566606
    101          8           0      -23.903537    1.703405    2.858027
    102          6           0      -24.893766   -0.361633    3.053850
    103          7           0      -19.087063    2.509702    0.233085
    104          6           0      -20.257341    2.914719    0.774980
    105          6           0      -20.442152    4.444821    0.774105
    106          6           0      -19.156999    4.889017    0.021882
    107          6           0      -18.320302    3.624235   -0.049270
    108          6           0      -21.832317    4.931730    0.245919
    109          6           0      -18.388482    6.113686    0.589646
    110          6           0      -17.595167    5.884451    1.805577
    111          7           0      -16.681149    1.157236   -0.428897
    112          6           0      -16.275061    2.337615   -0.835581
    113          6           0      -14.913416    2.292553   -1.378283
    114          6           0      -14.656447    0.884378   -1.361014
    115          6           0      -15.753220    0.241299   -0.821404
    116          6           0      -13.928147    3.361206   -1.479777
    117          6           0      -13.634840   -0.098598   -1.676760
    118          8           0      -12.493064    0.042256   -2.052217
    119          6           0      -14.310375   -1.443937   -1.384634
    120          6           0      -14.314963   -2.356598   -2.615465
    121          8           0      -15.080216   -2.248355   -3.538080
    122          8           0      -13.273020   -3.248246   -2.524025
    123          6           0      -13.216319   -4.174479   -3.678348
    124          1           0      -20.468089   -3.507517    0.865175
    125          1           0      -22.110504    2.653622    1.740299
    126          1           0      -16.823270    4.575008   -0.797036
    127          1           0      -16.385517   -3.803221   -1.796318
    128          1           0      -18.327716   -4.826098    0.141900
    129          1           0      -19.525524   -3.409172   -2.254059
    130          1           0      -19.609710   -4.975472   -1.850727
    131          1           0      -18.145163   -4.390294   -2.699915
    132          1           0      -16.036620   -3.820756    1.294312
    133          1           0      -14.719303   -3.744772    0.194906
    134          1           0      -14.708801   -5.952511   -0.242147
    135          1           0      -16.499782   -6.017433   -0.170664
    136          1           0      -22.389670   -3.559848    1.537786
    137          1           0      -23.879162   -2.484554    1.355611
    138          1           0      -23.032500   -2.677029    2.887851
    139          1           0      -25.408233   -0.893815    2.253646
    140          1           0      -25.607397    0.139494    3.708035
    141          1           0      -24.451050   -1.084983    3.738846
    142          1           0      -20.378249    4.590498    1.852074
    143          1           0      -19.503087    5.090841   -0.991822
    144          1           0      -22.605942    4.190129    0.442228
    145          1           0      -21.772573    5.084378   -0.832004
    146          1           0      -22.171856    5.846606    0.731970
    147          1           0      -19.208116    6.800835    0.797346
    148          1           0      -17.802844    6.579329   -0.203246
    149          1           0      -16.623606    5.473024    1.532360
    150          1           0      -18.134248    5.254870    2.513207
    151          1           0      -17.345792    6.818095    2.310656
    152          1           0      -14.226937    4.084949   -0.721107
    153          1           0      -13.881021    3.972214   -2.381330
    154          1           0      -12.956393    2.902806   -1.299374
    155          1           0      -13.761433   -1.919082   -0.570948
    156          1           0      -12.169888   -4.389462   -3.894012
    157          1           0      -13.520970   -3.762078   -4.640461
    158          1           0      -13.694976   -5.123973   -3.440875
 ---------------------------------------------------------------------

 SCF Done:  E(RCAM-B3LYP) =  -4069.77328354     A.U. after   17 cycles

 Excitation energies and oscillator strengths:

 Excited State   1:      Singlet-A      1.7223 eV  719.87 nm  f=0.3719  <S**2>=0.000
     309 -> 315        0.19681
     311 -> 313        0.67914
     309 <- 315        0.11032
 This state for optimization and/or second-order correction.
 Total Energy, E(TD-HF/TD-DFT) =  -4069.70998944
 Copying the excited state density for this state as the 1-particle RhoCI density.

 Excited State   2:      Singlet-A      1.7449 eV  710.55 nm  f=0.3747  <S**2>=0.000
     310 -> 316       -0.18607
     312 -> 314        0.68361
     310 <- 316       -0.10697

 Excited State   3:      Singlet-A      2.2417 eV  553.08 nm  f=0.0694  <S**2>=0.000
     309 -> 313        0.61605
     311 -> 315       -0.33056

 Excited State   4:      Singlet-A      2.2617 eV  548.18 nm  f=0.1155  <S**2>=0.000
     310 -> 314        0.64503
     312 -> 316        0.27674

 Excited State   5:      Singlet-A      3.0772 eV  402.91 nm  f=0.0000  <S**2>=0.000
     312 -> 313        0.70709

 The electronic state is 1-A.
 Alpha  occ. eigenvalues --  -46.90740 -46.88653 -19.25721 -19.23685 -19.20353
 Alpha  occ. eigenvalues --  -19.20057 -19.19384 -19.18773 -19.18770 -19.17842
 Alpha  occ. eigenvalues --  -14.42691 -14.42190 -14.41994 -14.41008 -14.40789
 Alpha  occ. eigenvalues --  -14.39117 -14.39092 -14.39083 -10.39719 -10.39359
 Alpha  occ. eigenvalues --  -10.36120 -10.34915 -10.34449 -10.33481 -10.32290
 Alpha  occ. eigenvalues --  -10.31861 -10.31747 -10.31563 -10.31504 -10.31344
 Alpha  occ. eigenvalues --  -10.31021 -10.30989 -10.30751 -10.30577 -10.30521
 Alpha  occ. eigenvalues --  -10.30305 -10.29909 -10.29633 -10.29595 -10.29564
 Alpha  occ. eigenvalues --  -10.29373 -10.29215 -10.28889 -10.28887 -10.28806
 Alpha  occ. eigenvalues --  -10.28637 -10.28621 -10.28504 -10.28501 -10.28384
 Alpha  occ. eigenvalues --  -10.28342 -10.28296 -10.28285 -10.28193 -10.28043
 Alpha  occ. eigenvalues --  -10.27902 -10.27683 -10.27594 -10.27543 -10.27455
 Alpha  occ. eigenvalues --  -10.27440 -10.27372 -10.27320 -10.27221 -10.27046
 Alpha  occ. eigenvalues --  -10.26986 -10.26952 -10.26899 -10.26831 -10.26830
 Alpha  occ. eigenvalues --  -10.26772 -10.26636 -10.26629 -10.26306 -10.26220
 Alpha  occ. eigenvalues --  -10.26161 -10.26142 -10.25943 -10.25937 -10.25828
 Alpha  occ. eigenvalues --  -10.25781 -10.25230 -10.25218 -10.25212 -10.25077
 Alpha  occ. eigenvalues --  -10.24240  -3.19151  -3.17216  -1.93996  -1.93658
 Alpha  occ. eigenvalues --   -1.93416  -1.92103  -1.91685  -1.91503  -1.16770
 Alpha  occ. eigenvalues --   -1.13915  -1.10439  -1.10350  -1.10238  -1.08956
 Alpha  occ. eigenvalues --   -1.08707  -1.06318  -1.05011  -1.04916  -1.03728
 Alpha  occ. eigenvalues --   -1.03347  -1.03319  -1.03295  -1.02388  -1.01061
 Alpha  occ. eigenvalues --   -0.93765  -0.92864  -0.89384  -0.88981  -0.88921
 Alpha  occ. eigenvalues --   -0.88512  -0.88491  -0.88190  -0.87431  -0.87169
 Alpha  occ. eigenvalues --   -0.86973  -0.86908  -0.86144  -0.85911  -0.85001
 Alpha  occ. eigenvalues --   -0.84013  -0.83854  -0.83675  -0.83570  -0.82510
 Alpha  occ. eigenvalues --   -0.82348  -0.81487  -0.81132  -0.80872  -0.80357
 Alpha  occ. eigenvalues --   -0.79859  -0.78460  -0.78237  -0.77541  -0.77340
 Alpha  occ. eigenvalues --   -0.77019  -0.76527  -0.76098  -0.75806  -0.75254
 Alpha  occ. eigenvalues --   -0.74810  -0.72820  -0.72427  -0.71905  -0.71747
 Alpha  occ. eigenvalues --   -0.69999  -0.69126  -0.69107  -0.68582  -0.68300
 Alpha  occ. eigenvalues --   -0.67693  -0.66991  -0.66953  -0.65547  -0.65359
 Alpha  occ. eigenvalues --   -0.65315  -0.65032  -0.64772  -0.64387  -0.64008
 Alpha  occ. eigenvalues --   -0.63957  -0.62429  -0.61880  -0.60367  -0.60019
 Alpha  occ. eigenvalues --   -0.59793  -0.59394  -0.59323  -0.59250  -0.58903
 Alpha  occ. eigenvalues --   -0.58574  -0.58187  -0.57298  -0.57145  -0.56983
 Alpha  occ. eigenvalues --   -0.56741  -0.56499  -0.55670  -0.55588  -0.55451
 Alpha  occ. eigenvalues --   -0.55183  -0.54765  -0.54536  -0.54317  -0.53957
 Alpha  occ. eigenvalues --   -0.53922  -0.53767  -0.53531  -0.53279  -0.53198
 Alpha  occ. eigenvalues --   -0.53082  -0.52875  -0.52637  -0.52498  -0.52465
 Alpha  occ. eigenvalues --   -0.52040  -0.51966  -0.51720  -0.51421  -0.51074
 Alpha  occ. eigenvalues --   -0.51003  -0.50957  -0.50607  -0.50545  -0.50236
 Alpha  occ. eigenvalues --   -0.49873  -0.49866  -0.49838  -0.49579  -0.49503
 Alpha  occ. eigenvalues --   -0.49402  -0.49166  -0.49103  -0.48935  -0.48922
 Alpha  occ. eigenvalues --   -0.48763  -0.48625  -0.48447  -0.48374  -0.48140
 Alpha  occ. eigenvalues --   -0.47945  -0.47847  -0.47716  -0.47442  -0.47258
 Alpha  occ. eigenvalues --   -0.47042  -0.46715  -0.46605  -0.46503  -0.46123
 Alpha  occ. eigenvalues --   -0.46061  -0.45945  -0.45884  -0.45679  -0.45350
 Alpha  occ. eigenvalues --   -0.45314  -0.45024  -0.44953  -0.44911  -0.44680
 Alpha  occ. eigenvalues --   -0.44669  -0.44450  -0.44371  -0.44310  -0.44152
 Alpha  occ. eigenvalues --   -0.44101  -0.44023  -0.43802  -0.43784  -0.43614
 Alpha  occ. eigenvalues --   -0.43574  -0.43282  -0.43191  -0.43169  -0.42847
 Alpha  occ. eigenvalues --   -0.42546  -0.42513  -0.42436  -0.42350  -0.42342
 Alpha  occ. eigenvalues --   -0.42285  -0.42045  -0.41912  -0.41795  -0.41607
 Alpha  occ. eigenvalues --   -0.41469  -0.41329  -0.40718  -0.40251  -0.40198
 Alpha  occ. eigenvalues --   -0.40186  -0.39947  -0.39559  -0.39284  -0.38840
 Alpha  occ. eigenvalues --   -0.38791  -0.38417  -0.37845  -0.37789  -0.37690
 Alpha  occ. eigenvalues --   -0.37503  -0.37263  -0.37143  -0.36659  -0.36311
 Alpha  occ. eigenvalues --   -0.36303  -0.35339  -0.34867  -0.34456  -0.34215
 Alpha  occ. eigenvalues --   -0.33840  -0.33175  -0.33107  -0.31733  -0.31390
 Alpha  occ. eigenvalues --   -0.31380  -0.31040  -0.31021  -0.30747  -0.30131
 Alpha  occ. eigenvalues --   -0.29999  -0.29125  -0.28720  -0.24448  -0.23738
 Alpha  occ. eigenvalues --   -0.21436  -0.21019
 Alpha virt. eigenvalues --   -0.08768  -0.08330  -0.02681  -0.01276  -0.00344
 Alpha virt. eigenvalues --    0.00490   0.00604   0.01956   0.02189   0.02611
 Alpha virt. eigenvalues --    0.04402   0.04847   0.05209   0.05513   0.05605

 Mulliken charges:
               1
     1  Mg  12.002994
     2  C    5.980575
     3  C    6.007533
     4  C    6.035665
     5  C    5.980546
     6  N    6.991297
     7  C    6.029433
     8  C    5.994419
     9  C    6.004811
    10  C    5.969761
    11  C    6.008024
    12  C    5.998066
    13  C    5.998635
    14  H    1.008953
    15  N    7.012565
    16  C    5.957472
    17  C    5.974882
    18  C    5.997263
    19  C    5.954099
    20  C    6.002331
    21  C    5.987528
    22  O    7.982992
    23  C    6.004462
    24  N    7.000638
    25  C    5.957856
    26  C    6.011498
    27  C    5.994251
    28  C    6.035425
    29  C    6.000511
    30  C    5.996686
    31  C    6.000947
    32  N    6.993558
    33  C    6.035410
    34  C    6.037076
    35  C    5.993212
    36  C    6.045068
    37  C    5.997595
    38  C    6.016527
    39  O    8.029654
    40  C    5.998540
    41  C    6.003846
    42  O    8.009455
    43  O    7.996305
    44  C    5.998086
    45  H    0.987990
    46  H    0.994254
    47  H    1.007879
    48  H    0.999256
    49  H    0.999547
    50  H    0.993482
    51  H    0.985449
    52  H    1.002890
    53  H    1.009409
    54  H    0.992371
    55  H    0.997311
    56  H    0.999145
    57  H    0.984260
    58  H    0.981730
    59  H    0.983362
    60  H    0.991710
    61  H    0.989436
    62  H    0.988727
    63  H    0.995276
    64  H    0.997251
    65  H    0.988605
    66  H    0.999029
    67  H    1.003242
    68  H    0.992886
    69  H    1.009735
    70  H    1.004814
    71  H    0.998774
    72  H    1.005707
    73  H    1.021532
    74  H    1.022008
    75  H    1.015137
    76  H    1.007825
    77  H    1.004562
    78  H    1.006738
    79  H    1.002222
    80  Mg  11.999926
    81  C    6.000248
    82  C    5.999386
    83  C    5.999664
    84  C    6.000744
    85  N    6.999905
    86  C    5.999384
    87  C    6.000258
    88  C    5.999678
    89  C    6.001058
    90  C    5.999904
    91  C    6.000137
    92  C    6.000024
    93  H    0.999717
    94  N    6.999759
    95  C    6.001236
    96  C    6.000262
    97  C    6.000674
    98  C    6.000702
    99  C    5.999887
   100  C    6.000320
   101  O    8.000765
   102  C    5.999850
   103  N    7.000174
   104  C    6.000847
   105  C    5.999819
   106  C    6.000272
   107  C    5.998989
   108  C    5.999898
   109  C    6.000054
   110  C    6.000149
   111  N    7.000092
   112  C    5.998947
   113  C    5.999034
   114  C    5.999945
   115  C    5.999143
   116  C    6.000203
   117  C    5.999540
   118  O    7.999202
   119  C    5.999980
   120  C    5.999919
   121  O    7.999906
   122  O    7.999914
   123  C    6.000080
   124  H    1.000220
   125  H    1.000263
   126  H    0.999849
   127  H    0.999963
   128  H    1.000038
   129  H    1.000038
   130  H    1.000046
   131  H    1.000376
   132  H    0.999777
   133  H    1.000121
   134  H    0.999996
   135  H    0.999903
   136  H    1.000510
   137  H    1.000524
   138  H    1.000465
   139  H    1.000287
   140  H    1.000442
   141  H    1.000156
   142  H    0.999972
   143  H    0.999908
   144  H    0.999821
   145  H    1.000282
   146  H    1.000234
   147  H    0.999828
   148  H    1.000123
   149  H    1.000173
   150  H    0.999715
   151  H    0.999900
   152  H    0.999404
   153  H    0.999348
   154  H    0.999469
   155  H    0.999627
   156  H    0.999803
   157  H    1.000003
   158  H    0.999817
 Sum of Mulliken charges = 624.00000

 Dipole moment (field-independent basis, Debye):
    X=             -7.2356    Y=             -4.5319    Z=              6.4025  Tot=             10.6716
 Quadrupole moment (field-independent basis, Debye-Ang):
   XX=           -247.0443   YY=              0.8461   ZZ=              2.1906
   XY=            -82.1857   XZ=            114.7500   YZ=             -0.5632

 Normal termination of Gaussian 16 at Thu Sep 23 02:33:07 2021.
