 Gaussian 16, Revision A.03,
 Gaussian 16:  ES64L-G16RevA.03 25-Dec-2016

 -----------------------------------
 #p cam-b3lyp/Def2SVP td=(nstates=5)
 -----------------------------------

 --------------------------------
 TDDFT excited states in gaussian
 --------------------------------
 Symbolic Z-matrix:
 Charge =  0 Multiplicity = 1

                         Standard orientation:
 ---------------------------------------------------------------------
 Center     Atomic      Atomic             Coordinates (Angstroms)
 Number     Number       Type             X           Y           Z
 ---------------------------------------------------------------------
      1         12           0      -13.164533   -0.734595    0.278767
      2          6           0      -13.746897    2.434735   -1.081062
      3          6           0      -12.584184    0.882310    3.293201
      4          6           0      -12.205247   -3.611614    1.450861
      5          6           0      -13.583881   -2.097145   -2.963343
      6          7           0      -12.770272    1.495928    0.942231
      7          6           0      -13.230139    2.545492    0.253494
      8          6           0      -13.109331    3.749868    1.126154
      9          6           0      -12.317978    3.270093    2.367583
     10          6           0      -12.580195    1.782547    2.240084
     11          6           0      -10.833570    3.613215    2.504561
     12          6           0      -14.505683    4.330371    1.516126
     13          6           0      -14.765477    5.861599    1.341689
     14          1           0      -13.570815    6.856409    1.477838
     15          7           0      -12.616396   -1.325591    2.200752
     16          6           0      -12.632197   -0.506190    3.321687
     17          6           0      -12.333674   -1.341754    4.438959
     18          6           0      -12.081504   -2.674103    3.918571
     19          6           0      -12.300806   -2.612527    2.481212
     20          6           0      -12.178672   -0.842123    5.892039
     21          6           0      -11.599575   -3.956786    4.655451
     22          8           0      -11.403004   -5.004495    4.126226
     23          6           0      -11.442996   -3.839193    6.158795
     24          7           0      -12.953861   -2.561772   -0.651697
     25          6           0      -12.468624   -3.607935    0.053618
     26          6           0      -12.340919   -4.918848   -0.770259
     27          6           0      -13.049328   -4.463144   -2.117632
     28          6           0      -13.246873   -2.963873   -1.927887
     29          6           0      -10.773327   -5.369085   -0.899000
     30          6           0      -14.314612   -5.303495   -2.477729
     31          6           0      -15.673413   -4.732304   -2.113934
     32          7           0      -13.622376   -0.046511   -1.681935
     33          6           0      -13.842518   -0.718416   -2.853958
     34          6           0      -14.224903    0.288189   -3.905553
     35          6           0      -14.195204    1.529557   -3.230768
     36          6           0      -13.782295    1.305588   -1.875647
     37          6           0      -14.402133    0.056955   -5.381668
     38          6           0      -14.395115    2.968949   -3.379922
     39          8           0      -14.713544    3.589778   -4.398131
     40          6           0      -14.270438    3.549600   -1.974448
     41          6           0      -13.311133    4.699076   -2.093223
     42          8           0      -12.100436    4.597327   -2.169850
     43          8           0      -14.058523    5.773194   -2.287413
     44          6           0      -13.426260    6.960394   -2.840885
     45          1           0      -12.261763    1.392044    4.202999
     46          1           0      -12.063442   -4.613570    1.860502
     47          1           0      -13.727803   -2.520834   -3.959762
     48          1           0      -12.570788    4.522568    0.578431
     49          1           0      -12.785821    3.753332    3.225414
     50          1           0      -10.405393    4.234782    1.717963
     51          1           0      -10.239913    2.700597    2.564407
     52          1           0      -10.734969    4.144082    3.451170
     53          1           0      -14.837241    4.034720    2.511276
     54          1           0      -15.124114    3.771461    0.813935
     55          1           0      -15.489845    6.084183    2.126189
     56          1           0      -15.224632    6.026217    0.367252
     57          1           0      -11.235801   -1.139027    6.351429
     58          1           0      -12.903994   -1.298162    6.566040
     59          1           0      -12.291501    0.235994    6.013629
     60          1           0      -12.326832   -3.425758    6.645041
     61          1           0      -10.542159   -3.258475    6.357581
     62          1           0      -11.164543   -4.802170    6.586820
     63          1           0      -12.877324   -5.751982   -0.316435
     64          1           0      -12.427730   -4.616800   -2.999622
     65          1           0      -10.520597   -5.166512   -1.939852
     66          1           0      -10.621643   -6.445093   -0.810731
     67          1           0      -10.086168   -4.763542   -0.306963
     68          1           0      -14.227625   -6.185452   -1.843000
     69          1           0      -14.317678   -5.629645   -3.517586
     70          1           0      -15.532107   -4.341632   -1.105473
     71          1           0      -16.295877   -5.625661   -2.158713
     72          1           0      -16.086233   -3.882539   -2.657001
     73          1           0      -14.172880   -0.928086   -5.788279
     74          1           0      -13.767638    0.752681   -5.930926
     75          1           0      -15.425188    0.365787   -5.594010
     76          1           0      -15.167248    4.046538   -1.603946
     77          1           0      -12.389736    6.922445   -3.174437
     78          1           0      -13.418690    7.641511   -1.989377
     79          1           0      -14.180647    7.517988   -3.396080
     80         12           0       12.682190   -0.621714   -0.480302
     81          6           0       14.793076    2.121488   -0.122236
     82          6           0       10.101217    1.187843    0.709449
     83          6           0       10.837420   -3.453798   -0.440246
     84          6           0       15.461432   -2.524628   -1.218220
     85          7           0       12.509547    1.467358    0.238955
     86          6           0       13.454942    2.450257    0.091674
     87          6           0       12.896869    3.765755    0.482481
     88          6           0       11.418597    3.530429    0.813691
     89          6           0       11.264805    1.967303    0.570945
     90          6           0       10.878460    4.008657    2.152518
     91          6           0       13.149590    4.889066   -0.675277
     92          6           0       14.014194    6.117798   -0.307938
     93          1           0       13.650835    7.495878   -0.803685
     94          7           0       10.716227   -1.050392   -0.059040
     95          6           0        9.781938   -0.158745    0.446244
     96          6           0        8.557507   -0.834370    0.678931
     97          6           0        8.742411   -2.205621    0.354149
     98          6           0       10.137755   -2.281398   -0.090712
     99          6           0        7.297550    0.021169    1.094865
    100          6           0        7.697233   -3.304427    0.538806
    101          8           0        7.881445   -4.513061    0.329807
    102          6           0        6.327798   -2.945013    0.916957
    103          7           0       13.085891   -2.764877   -0.540610
    104          6           0       12.172459   -3.710223   -0.620648
    105          6           0       12.827550   -5.106627   -0.715715
    106          6           0       14.160771   -4.661713   -1.436410
    107          6           0       14.251556   -3.184740   -1.066059
    108          6           0       13.150319   -5.933397    0.583723
    109          6           0       14.239120   -4.882185   -3.022815
    110          6           0       13.235507   -4.211974   -3.868774
    111          7           0       14.809661   -0.358356   -0.621803
    112          6           0       15.844806   -1.253242   -0.956539
    113          6           0       17.093081   -0.559451   -0.941173
    114          6           0       16.768069    0.728204   -0.563626
    115          6           0       15.340078    0.824101   -0.484558
    116          6           0       18.412321   -1.157934   -1.005330
    117          6           0       17.276587    2.014449   -0.461633
    118          8           0       18.426974    2.453856   -0.559458
    119          6           0       16.070723    2.986664   -0.074780
    120          6           0       16.329834    3.396490    1.337297
    121          8           0       16.444735    2.751469    2.358318
    122          8           0       16.460154    4.723530    1.292039
    123          6           0       16.700443    5.405840    2.605664
    124          1           0        9.311979    1.921981    0.884230
    125          1           0       10.168031   -4.307106   -0.562039
    126          1           0       16.321980   -3.126032   -1.517893
    127          1           0       13.451116    4.046360    1.377262
    128          1           0       10.806219    4.001646    0.045212
    129          1           0       11.007165    3.061811    2.675615
    130          1           0        9.868935    4.419782    2.136631
    131          1           0       11.423535    4.765002    2.716607
    132          1           0       12.183544    5.225455   -1.050544
    133          1           0       13.722257    4.519000   -1.526063
    134          1           0       14.987044    5.946426   -0.769601
    135          1           0       14.230768    6.161726    0.758599
    136          1           0        6.865601   -0.418080    1.993877
    137          1           0        6.677566   -0.239981    0.237153
    138          1           0        7.447134    1.065477    1.369172
    139          1           0        6.313065   -2.391216    1.854652
    140          1           0        5.863572   -3.874941    1.244474
    141          1           0        5.730419   -2.489586    0.126713
    142          1           0       12.312297   -5.670803   -1.493223
    143          1           0       14.919379   -5.297032   -0.979882
    144          1           0       13.531315   -5.359438    1.427566
    145          1           0       13.872707   -6.663992    0.217961
    146          1           0       12.259169   -6.447436    0.944856
    147          1           0       14.150930   -5.928152   -3.317565
    148          1           0       15.112709   -4.386676   -3.446288
    149          1           0       13.629571   -3.200970   -3.962176
    150          1           0       12.211641   -4.114164   -3.506614
    151          1           0       13.100096   -4.562575   -4.891400
    152          1           0       18.594933   -1.481490    0.020091
    153          1           0       19.215890   -0.490554   -1.315411
    154          1           0       18.492437   -1.952975   -1.747484
    155          1           0       15.941287    3.814559   -0.771954
    156          1           0       15.749278    5.886301    2.835980
    157          1           0       17.529915    6.106032    2.509251
    158          1           0       16.917300    4.773598    3.467137
 ---------------------------------------------------------------------

 SCF Done:  E(RCAM-B3LYP) =  -4069.78472902     A.U. after   19 cycles

 Excitation energies and oscillator strengths:

 Excited State   1:      Singlet-A      1.7046 eV  727.35 nm  f=0.3805  <S**2>=0.000
     309 -> 315        0.17491
     311 -> 313        0.68485
     309 <- 315        0.10598
 This state for optimization and/or second-order correction.
 Total Energy, E(TD-HF/TD-DFT) =  -4069.72208582
 Copying the excited state density for this state as the 1-particle RhoCI density.

 Excited State   2:      Singlet-A      1.7294 eV  716.93 nm  f=0.3923  <S**2>=0.000
     310 -> 316       -0.18682
     312 -> 314        0.68256
     310 <- 316       -0.10955

 Excited State   3:      Singlet-A      2.1770 eV  569.51 nm  f=0.1344  <S**2>=0.000
     309 -> 313        0.65142
     311 -> 315       -0.26312

 Excited State   4:      Singlet-A      2.2139 eV  560.03 nm  f=0.1023  <S**2>=0.000
     310 -> 314        0.64239
     312 -> 316        0.28231

 Excited State   5:      Singlet-A      2.9466 eV  420.78 nm  f=0.0000  <S**2>=0.000
     312 -> 313        0.70706

 The electronic state is 1-A.
 Alpha  occ. eigenvalues --  -46.89330 -46.88848 -19.26322 -19.25041 -19.19708
 Alpha  occ. eigenvalues --  -19.19471 -19.19068 -19.18675 -19.18648 -19.18201
 Alpha  occ. eigenvalues --  -14.41989 -14.41838 -14.41817 -14.41655 -14.39690
 Alpha  occ. eigenvalues --  -14.39371 -14.38977 -14.38794 -10.39216 -10.38608
 Alpha  occ. eigenvalues --  -10.35522 -10.35053 -10.34547 -10.34147 -10.32120
 Alpha  occ. eigenvalues --  -10.31699 -10.31415 -10.31323 -10.31196 -10.31126
 Alpha  occ. eigenvalues --  -10.30844 -10.30696 -10.30613 -10.30272 -10.30094
 Alpha  occ. eigenvalues --  -10.29796 -10.29780 -10.29616 -10.29543 -10.29439
 Alpha  occ. eigenvalues --  -10.29314 -10.29093 -10.29034 -10.28975 -10.28657
 Alpha  occ. eigenvalues --  -10.28543 -10.28531 -10.28425 -10.28340 -10.28278
 Alpha  occ. eigenvalues --  -10.28264 -10.28144 -10.28107 -10.27877 -10.27855
 Alpha  occ. eigenvalues --  -10.27787 -10.27612 -10.27503 -10.27491 -10.27473
 Alpha  occ. eigenvalues --  -10.27462 -10.27206 -10.27184 -10.27146 -10.27076
 Alpha  occ. eigenvalues --  -10.26750 -10.26743 -10.26663 -10.26543 -10.26488
 Alpha  occ. eigenvalues --  -10.26453 -10.26387 -10.26368 -10.26360 -10.26256
 Alpha  occ. eigenvalues --  -10.26029 -10.25996 -10.25960 -10.25852 -10.25794
 Alpha  occ. eigenvalues --  -10.25553 -10.25459 -10.25260 -10.25121 -10.24720
 Alpha  occ. eigenvalues --  -10.24646  -3.17738  -3.17304  -1.92641  -1.92213
 Alpha  occ. eigenvalues --   -1.92173  -1.92056  -1.91795  -1.91565  -1.18398
 Alpha  occ. eigenvalues --   -1.17003  -1.11417  -1.09670  -1.09104  -1.08735
 Alpha  occ. eigenvalues --   -1.08553  -1.07355  -1.05412  -1.05076  -1.04248
 Alpha  occ. eigenvalues --   -1.03831  -1.03374  -1.02658  -1.02619  -1.01919
 Alpha  occ. eigenvalues --   -0.93412  -0.92204  -0.89210  -0.88771  -0.88741
 Alpha  occ. eigenvalues --   -0.88678  -0.88361  -0.88080  -0.87954  -0.87590
 Alpha  occ. eigenvalues --   -0.87154  -0.86848  -0.86292  -0.85591  -0.84629
 Alpha  occ. eigenvalues --   -0.84502  -0.84278  -0.83788  -0.83065  -0.82671
 Alpha  occ. eigenvalues --   -0.81991  -0.81553  -0.81471  -0.80840  -0.80730
 Alpha  occ. eigenvalues --   -0.80079  -0.78740  -0.77966  -0.77654  -0.77400
 Alpha  occ. eigenvalues --   -0.77373  -0.77067  -0.76365  -0.75941  -0.75358
 Alpha  occ. eigenvalues --   -0.75173  -0.73471  -0.72734  -0.71767  -0.71669
 Alpha  occ. eigenvalues --   -0.69578  -0.69378  -0.69082  -0.68952  -0.68103
 Alpha  occ. eigenvalues --   -0.67767  -0.67201  -0.66158  -0.65748  -0.65382
 Alpha  occ. eigenvalues --   -0.65328  -0.65020  -0.64807  -0.64707  -0.64398
 Alpha  occ. eigenvalues --   -0.63962  -0.62868  -0.62054  -0.60423  -0.59916
 Alpha  occ. eigenvalues --   -0.59909  -0.59716  -0.59300  -0.59263  -0.58608
 Alpha  occ. eigenvalues --   -0.58519  -0.58252  -0.58162  -0.57916  -0.57366
 Alpha  occ. eigenvalues --   -0.56923  -0.56427  -0.56063  -0.55772  -0.55466
 Alpha  occ. eigenvalues --   -0.55049  -0.55017  -0.54846  -0.54822  -0.54733
 Alpha  occ. eigenvalues --   -0.54698  -0.53651  -0.53378  -0.53319  -0.53237
 Alpha  occ. eigenvalues --   -0.52998  -0.52976  -0.52683  -0.52575  -0.52178
 Alpha  occ. eigenvalues --   -0.52078  -0.51896  -0.51751  -0.51402  -0.51294
 Alpha  occ. eigenvalues --   -0.51159  -0.51100  -0.51083  -0.50349  -0.50191
 Alpha  occ. eigenvalues --   -0.49795  -0.49736  -0.49720  -0.49460  -0.49444
 Alpha  occ. eigenvalues --   -0.49252  -0.49187  -0.48985  -0.48904  -0.48729
 Alpha  occ. eigenvalues --   -0.48494  -0.48428  -0.48341  -0.48175  -0.48059
 Alpha  occ. eigenvalues --   -0.48019  -0.47358  -0.47356  -0.47103  -0.46950
 Alpha  occ. eigenvalues --   -0.46828  -0.46662  -0.46460  -0.46229  -0.46073
 Alpha  occ. eigenvalues --   -0.45984  -0.45957  -0.45918  -0.45808  -0.45714
 Alpha  occ. eigenvalues --   -0.45649  -0.45414  -0.45238  -0.45062  -0.44875
 Alpha  occ. eigenvalues --   -0.44628  -0.44511  -0.44468  -0.44104  -0.44050
 Alpha  occ. eigenvalues --   -0.43809  -0.43712  -0.43385  -0.43354  -0.43309
 Alpha  occ. eigenvalues --   -0.43181  -0.43119  -0.43003  -0.42936  -0.42770
 Alpha  occ. eigenvalues --   -0.42500  -0.42221  -0.42204  -0.42097  -0.41820
 Alpha  occ. eigenvalues --   -0.41810  -0.41708  -0.41589  -0.41257  -0.41061
 Alpha  occ. eigenvalues --   -0.41053  -0.40958  -0.40776  -0.40704  -0.40339
 Alpha  occ. eigenvalues --   -0.40156  -0.39679  -0.39515  -0.39343  -0.38930
 Alpha  occ. eigenvalues --   -0.38439  -0.38054  -0.38019  -0.37684  -0.37213
 Alpha  occ. eigenvalues --   -0.37161  -0.37010  -0.36776  -0.36454  -0.36366
 Alpha  occ. eigenvalues --   -0.36272  -0.36113  -0.34467  -0.34459  -0.34300
 Alpha  occ. eigenvalues --   -0.34115  -0.33469  -0.33207  -0.31468  -0.31462
 Alpha  occ. eigenvalues --   -0.31018  -0.30833  -0.30518  -0.30449  -0.30430
 Alpha  occ. eigenvalues --   -0.29976  -0.29975  -0.29004  -0.24006  -0.23844
 Alpha  occ. eigenvalues --   -0.21430  -0.21125
 Alpha virt. eigenvalues --   -0.08968  -0.08538  -0.01607  -0.01571   0.00141
 Alpha virt. eigenvalues --    0.00293   0.02026   0.02477   0.02771   0.02826
 Alpha virt. eigenvalues --    0.05008   0.05351   0.05550   0.05839   0.06107

 Mulliken charges:
               1
     1  Mg   0.807142
     2  C    0.010104
     3  C   -0.042591
     4  C   -0.040192
     5  C   -0.078422
     6  N   -0.217024
     7  C   -0.014109
     8  C   -0.051617
     9  C   -0.035677
    10  C   -0.041096
    11  C    0.091949
    12  C    0.029438
    13  C   -0.055117
    14  H    0.020589
    15  N   -0.403181
    16  C    0.176111
    17  C   -0.142610
    18  C   -0.065045
    19  C    0.100881
    20  C    0.112263
    21  C    0.006121
    22  O   -0.163520
    23  C    0.038895
    24  N   -0.314189
    25  C    0.051106
    26  C   -0.056844
    27  C   -0.004294
    28  C    0.059401
    29  C    0.060122
    30  C    0.013025
    31  C    0.020692
    32  N   -0.344800
    33  C    0.108676
    34  C   -0.166493
    35  C    0.012387
    36  C    0.108715
    37  C    0.113986
    38  C    0.067777
    39  O   -0.178324
    40  C   -0.028029
    41  C    0.157566
    42  O   -0.218833
    43  O   -0.295360
    44  C    0.187451
    45  H   -0.031160
    46  H   -0.001745
    47  H   -0.033990
    48  H    0.016065
    49  H   -0.005322
    50  H    0.024502
    51  H    0.019517
    52  H    0.007944
    53  H    0.014623
    54  H    0.002879
    55  H    0.029749
    56  H    0.038957
    57  H    0.016261
    58  H    0.018657
    59  H    0.011080
    60  H    0.037335
    61  H    0.030655
    62  H    0.013135
    63  H    0.024902
    64  H    0.004435
    65  H   -0.001494
    66  H    0.023791
    67  H    0.037500
    68  H   -0.001711
    69  H    0.004141
    70  H    0.009595
    71  H    0.021054
    72  H    0.019953
    73  H    0.016284
    74  H    0.038980
    75  H    0.036391
    76  H    0.044905
    77  H    0.067306
    78  H    0.009497
    79  H    0.038299
    80  Mg   0.804325
    81  C   -0.001824
    82  C   -0.056887
    83  C   -0.056463
    84  C   -0.102562
    85  N   -0.309899
    86  C   -0.028108
    87  C   -0.016364
    88  C   -0.002670
    89  C   -0.048480
    90  C    0.052478
    91  C    0.041299
    92  C   -0.079805
    93  H    0.019940
    94  N   -0.378212
    95  C    0.181760
    96  C   -0.165953
    97  C   -0.026587
    98  C    0.105821
    99  C    0.128381
   100  C    0.003901
   101  O   -0.216778
   102  C    0.054082
   103  N   -0.227545
   104  C    0.004243
   105  C    0.006893
   106  C   -0.066240
   107  C    0.078639
   108  C    0.091293
   109  C    0.063831
   110  C   -0.038709
   111  N   -0.322715
   112  C    0.102230
   113  C   -0.118892
   114  C    0.060227
   115  C    0.066476
   116  C    0.105472
   117  C    0.014120
   118  O   -0.191420
   119  C   -0.024982
   120  C    0.199663
   121  O   -0.213076
   122  O   -0.318117
   123  C    0.160263
   124  H   -0.030856
   125  H   -0.012845
   126  H   -0.027914
   127  H    0.022260
   128  H    0.007374
   129  H    0.027496
   130  H    0.019928
   131  H    0.018040
   132  H    0.017791
   133  H    0.019236
   134  H    0.036270
   135  H    0.017735
   136  H    0.016305
   137  H    0.039410
   138  H    0.030079
   139  H    0.018178
   140  H    0.019543
   141  H    0.053106
   142  H   -0.008436
   143  H   -0.003757
   144  H    0.027748
   145  H    0.020226
   146  H    0.028593
   147  H    0.010795
   148  H    0.003856
   149  H    0.002567
   150  H    0.016350
   151  H    0.015331
   152  H    0.051073
   153  H    0.031453
   154  H    0.014475
   155  H    0.028941
   156  H    0.030109
   157  H    0.050285
   158  H    0.056206
 Sum of Mulliken charges =  -0.00000

 Dipole moment (field-independent basis, Debye):
    X=             -5.1411    Y=              2.4670    Z=              1.0006  Tot=              5.7895
 Quadrupole moment (field-independent basis, Debye-Ang):
   XX=           -577.4755   YY=           -488.7329   ZZ=           -498.0380
   XY=            -25.9724   XZ=            -38.7028   YZ=             42.5148

 Normal termination of Gaussian 16 at Thu Sep 16 13:25:38 2021.
