 Gaussian 16, Revision A.03,
 Gaussian 16:  ES64L-G16RevA.03 25-Dec-2016

 ----------------------------------------------------------
 #p cam-b3lyp/Def2SVP td=(nstates=5) density=(transition=1)
 ----------------------------------------------------------

 --------------------------------
 TDDFT excited states in gaussian
 --------------------------------
 Symbolic Z-matrix:
 Charge =  0 Multiplicity = 1

                         Standard orientation:
 ---------------------------------------------------------------------
 Center     Atomic      Atomic             Coordinates (Angstroms)
 Number     Number       Type             X           Y           Z
 ---------------------------------------------------------------------
      1         12           0       25.876916   -0.782152    0.184466
      2          6           0       26.931939    2.435530   -0.839935
      3          6           0       24.992764    0.550848    3.242744
      4          6           0       25.148698   -3.918588    1.239972
      5          6           0       26.987059   -2.126148   -2.857024
      6          7           0       26.089121    1.251521    1.033675
      7          6           0       26.335330    2.456054    0.379059
      8          6           0       26.103177    3.693855    1.338937
      9          6           0       25.759465    2.994704    2.681161
     10          6           0       25.649062    1.491027    2.343272
     11          6           0       26.725379    3.219900    3.904038
     12          6           0       25.122371    4.823007    0.818612
     13          6           0       25.731407    6.185951    0.685106
     14          1           0       24.795238    7.403749    1.055301
     15          7           0       25.194995   -1.507269    1.967212
     16          6           0       24.814818   -0.821661    3.103062
     17          6           0       24.384031   -1.769590    4.118715
     18          6           0       24.407911   -3.089264    3.585154
     19          6           0       24.916749   -2.886663    2.178829
     20          6           0       23.820042   -1.362828    5.494988
     21          6           0       23.989552   -4.413147    4.216666
     22          8           0       23.975742   -5.471261    3.622042
     23          6           0       23.420609   -4.557976    5.687487
     24          7           0       26.139460   -2.776054   -0.669325
     25          6           0       25.761586   -3.881111   -0.040086
     26          6           0       25.994635   -5.165384   -0.913266
     27          6           0       26.407348   -4.554463   -2.310647
     28          6           0       26.501125   -3.040260   -1.953322
     29          6           0       26.980223   -6.160594   -0.235311
     30          6           0       25.427507   -4.921650   -3.407468
     31          6           0       26.087586   -5.295897   -4.733349
     32          7           0       26.905281   -0.116977   -1.500563
     33          6           0       27.204233   -0.738504   -2.697846
     34          6           0       27.907179    0.209922   -3.505847
     35          6           0       27.801476    1.472575   -2.871609
     36          6           0       27.175592    1.244061   -1.614459
     37          6           0       28.541131   -0.062709   -4.817014
     38          6           0       28.050266    2.915986   -3.030878
     39          8           0       28.663466    3.568686   -3.870441
     40          6           0       27.397355    3.613386   -1.607152
     41          6           0       28.411087    4.358206   -0.927826
     42          8           0       28.978972    3.991827    0.078177
     43          8           0       28.561679    5.605299   -1.490901
     44          6           0       29.644744    6.394346   -0.852878
     45          1           0       24.586028    0.947885    4.175353
     46          1           0       24.977664   -4.953049    1.543372
     47          1           0       27.223444   -2.611046   -3.807157
     48          1           0       27.106717    4.074631    1.525639
     49          1           0       24.774675    3.301868    3.033338
     50          1           0       26.090790    3.332100    4.783687
     51          1           0       27.323437    4.110139    3.710906
     52          1           0       27.414817    2.396195    4.090260
     53          1           0       24.275603    4.818873    1.505095
     54          1           0       24.804840    4.524804   -0.180709
     55          1           0       26.040896    6.350204   -0.347883
     56          1           0       26.605482    6.136082    1.333804
     57          1           0       22.770238   -1.652352    5.464507
     58          1           0       23.796659   -0.274775    5.560255
     59          1           0       24.280222   -1.843667    6.359090
     60          1           0       22.546852   -3.911095    5.773266
     61          1           0       24.199701   -4.511413    6.448950
     62          1           0       23.208163   -5.621706    5.790202
     63          1           0       25.083276   -5.731050   -1.105997
     64          1           0       27.422127   -4.905612   -2.498818
     65          1           0       27.749790   -6.427087   -0.960334
     66          1           0       26.486728   -7.030387    0.199042
     67          1           0       27.472343   -5.671962    0.604018
     68          1           0       24.702260   -4.130042   -3.592946
     69          1           0       24.755701   -5.742392   -3.151396
     70          1           0       27.153593   -5.068332   -4.726351
     71          1           0       25.615428   -4.673234   -5.493775
     72          1           0       25.867213   -6.320170   -5.034429
     73          1           0       28.486592   -1.082398   -5.198149
     74          1           0       29.513864    0.429817   -4.789372
     75          1           0       27.837099    0.384845   -5.518947
     76          1           0       26.576693    4.276307   -1.882766
     77          1           0       30.593343    5.865761   -0.949553
     78          1           0       29.317504    6.580630    0.169984
     79          1           0       29.809213    7.357084   -1.335234
     80         12           0      -26.839441   -0.476120   -0.150741
     81          6           0      -24.934199    2.415925   -0.880580
     82          6           0      -27.998851    1.098912    2.599588
     83          6           0      -28.471698   -3.226865    0.547435
     84          6           0      -24.923925   -2.171562   -2.665521
     85          7           0      -26.434557    1.531898    0.853166
     86          6           0      -25.821889    2.589445    0.202008
     87          6           0      -26.162070    3.822795    0.966819
     88          6           0      -26.637369    3.317908    2.329536
     89          6           0      -27.092127    1.887215    1.946898
     90          6           0      -25.445249    3.264804    3.357025
     91          6           0      -27.243366    4.826389    0.291406
     92          6           0      -27.020408    6.369386    0.327563
     93          1           0      -26.666574    6.993940    1.708213
     94          7           0      -28.070776   -0.968594    1.410776
     95          6           0      -28.417759   -0.191211    2.393810
     96          6           0      -29.291522   -0.955906    3.300491
     97          6           0      -29.638135   -2.168447    2.630903
     98          6           0      -28.693686   -2.184719    1.477906
     99          6           0      -29.825487   -0.552345    4.722962
    100          6           0      -30.672709   -3.246984    2.950714
    101          8           0      -30.780816   -4.321251    2.329086
    102          6           0      -31.448514   -3.118305    4.174653
    103          7           0      -26.558420   -2.511316   -0.881930
    104          6           0      -27.487434   -3.468129   -0.481655
    105          6           0      -27.338417   -4.740382   -1.402207
    106          6           0      -26.311394   -4.288178   -2.470060
    107          6           0      -25.922084   -2.880221   -2.013994
    108          6           0      -27.019992   -6.012650   -0.616387
    109          6           0      -26.759725   -4.416026   -3.947719
    110          6           0      -25.711493   -4.892797   -4.980023
    111          7           0      -25.250150   -0.035531   -1.499208
    112          6           0      -24.547047   -0.816655   -2.410903
    113          6           0      -23.675269    0.041133   -3.172588
    114          6           0      -23.754746    1.296851   -2.568601
    115          6           0      -24.741017    1.235848   -1.545776
    116          6           0      -22.918326   -0.308598   -4.301747
    117          6           0      -23.297497    2.693260   -2.623026
    118          8           0      -22.532969    3.287152   -3.366780
    119          6           0      -24.082020    3.482964   -1.524721
    120          6           0      -23.054120    4.130571   -0.614080
    121          8           0      -22.422721    3.737192    0.340484
    122          8           0      -23.052837    5.417813   -1.068137
    123          6           0      -22.422556    6.450688   -0.211748
    124          1           0      -28.450237    1.625491    3.443499
    125          1           0      -29.181776   -4.043841    0.691190
    126          1           0      -24.498762   -2.605417   -3.572461
    127          1           0      -25.338117    4.511746    1.154355
    128          1           0      -27.541328    3.820447    2.672785
    129          1           0      -25.740972    3.460244    4.387225
    130          1           0      -24.704555    4.048783    3.197493
    131          1           0      -25.075987    2.241267    3.302705
    132          1           0      -28.241172    4.571488    0.646970
    133          1           0      -27.350399    4.586148   -0.767040
    134          1           0      -28.014425    6.748512    0.087543
    135          1           0      -26.249540    6.496245   -0.432587
    136          1           0      -30.895352   -0.353337    4.781040
    137          1           0      -29.277923    0.341339    5.023616
    138          1           0      -29.748190   -1.327551    5.485361
    139          1           0      -31.957546   -2.154906    4.213951
    140          1           0      -30.810287   -3.229645    5.051311
    141          1           0      -32.275366   -3.823672    4.097715
    142          1           0      -28.278861   -4.825481   -1.946862
    143          1           0      -25.358852   -4.797391   -2.324830
    144          1           0      -25.937997   -6.112632   -0.524312
    145          1           0      -27.323246   -6.936804   -1.107367
    146          1           0      -27.308373   -5.867252    0.424146
    147          1           0      -27.250259   -3.526021   -4.341583
    148          1           0      -27.594490   -5.111847   -4.042100
    149          1           0      -25.348395   -3.970216   -5.433142
    150          1           0      -26.289627   -5.432404   -5.730836
    151          1           0      -24.923778   -5.458117   -4.482763
    152          1           0      -22.042416    0.279363   -4.575012
    153          1           0      -23.616661   -0.374740   -5.136640
    154          1           0      -22.514433   -1.295871   -4.080488
    155          1           0      -24.724323    4.230510   -1.989892
    156          1           0      -23.114813    7.291560   -0.243234
    157          1           0      -21.449424    6.818010   -0.536625
    158          1           0      -22.356276    6.092482    0.815241
 ---------------------------------------------------------------------

 SCF Done:  E(RCAM-B3LYP) =  -4069.80574999     A.U. after   18 cycles

 Excitation energies and oscillator strengths:

 Excited State   1:      Singlet-A      1.7330 eV  715.43 nm  f=0.3840  <S**2>=0.000
     310 -> 315       -0.19057
     312 -> 314        0.68153
     310 <- 315       -0.10758
 This state for optimization and/or second-order correction.
 Total Energy, E(TD-HF/TD-DFT) =  -4069.74206371
 Copying the excited state density for this state as the 1-particle RhoCI density.

 Excited State   2:      Singlet-A      1.7837 eV  695.09 nm  f=0.3735  <S**2>=0.000
     309 -> 316       -0.17650
     311 -> 313        0.68529
     309 <- 316       -0.10145

 Excited State   3:      Singlet-A      2.2587 eV  548.93 nm  f=0.1117  <S**2>=0.000
     309 -> 313        0.63961
     311 -> 316        0.28420

 Excited State   4:      Singlet-A      2.2617 eV  548.19 nm  f=0.0711  <S**2>=0.000
     310 -> 314        0.62169
     312 -> 315        0.32223

 Excited State   5:      Singlet-A      3.2180 eV  385.29 nm  f=0.0000  <S**2>=0.000
     312 -> 313        0.70711

 The electronic state is 1-A.
 Alpha  occ. eigenvalues --  -46.89381 -46.88210 -19.24371 -19.24310 -19.20043
 Alpha  occ. eigenvalues --  -19.19860 -19.19363 -19.19268 -19.19201 -19.18693
 Alpha  occ. eigenvalues --  -14.42247 -14.41789 -14.41739 -14.41436 -14.40317
 Alpha  occ. eigenvalues --  -14.39869 -14.38967 -14.38698 -10.39245 -10.38300
 Alpha  occ. eigenvalues --  -10.36378 -10.35972 -10.35535 -10.34827 -10.32495
 Alpha  occ. eigenvalues --  -10.31954 -10.31710 -10.31465 -10.31248 -10.31246
 Alpha  occ. eigenvalues --  -10.31105 -10.30825 -10.30762 -10.30352 -10.30163
 Alpha  occ. eigenvalues --  -10.30147 -10.30053 -10.29998 -10.29877 -10.29786
 Alpha  occ. eigenvalues --  -10.29555 -10.29465 -10.28841 -10.28684 -10.28631
 Alpha  occ. eigenvalues --  -10.28473 -10.28224 -10.28002 -10.27972 -10.27930
 Alpha  occ. eigenvalues --  -10.27908 -10.27784 -10.27760 -10.27723 -10.27678
 Alpha  occ. eigenvalues --  -10.27642 -10.27593 -10.27586 -10.27543 -10.27493
 Alpha  occ. eigenvalues --  -10.27365 -10.27342 -10.27326 -10.27194 -10.27101
 Alpha  occ. eigenvalues --  -10.26884 -10.26754 -10.26701 -10.26697 -10.26551
 Alpha  occ. eigenvalues --  -10.26473 -10.26383 -10.26312 -10.26226 -10.26217
 Alpha  occ. eigenvalues --  -10.26061 -10.25957 -10.25815 -10.25800 -10.25724
 Alpha  occ. eigenvalues --  -10.25638 -10.25268 -10.25267 -10.25122 -10.24854
 Alpha  occ. eigenvalues --  -10.24807  -3.17768  -3.16740  -1.92666  -1.92226
 Alpha  occ. eigenvalues --   -1.92061  -1.91647  -1.91189  -1.91046  -1.16127
 Alpha  occ. eigenvalues --   -1.15854  -1.11491  -1.09602  -1.09375  -1.09242
 Alpha  occ. eigenvalues --   -1.07772  -1.07411  -1.05164  -1.04065  -1.03951
 Alpha  occ. eigenvalues --   -1.03066  -1.02447  -1.02080  -1.01941  -1.00920
 Alpha  occ. eigenvalues --   -0.92777  -0.91829  -0.89116  -0.88891  -0.88488
 Alpha  occ. eigenvalues --   -0.88414  -0.88022  -0.87996  -0.87573  -0.87200
 Alpha  occ. eigenvalues --   -0.87137  -0.86895  -0.86872  -0.85588  -0.84359
 Alpha  occ. eigenvalues --   -0.84243  -0.83620  -0.83602  -0.82742  -0.82486
 Alpha  occ. eigenvalues --   -0.82478  -0.81512  -0.81018  -0.80699  -0.80606
 Alpha  occ. eigenvalues --   -0.80080  -0.78414  -0.78397  -0.77461  -0.77044
 Alpha  occ. eigenvalues --   -0.76921  -0.76434  -0.75871  -0.75745  -0.75128
 Alpha  occ. eigenvalues --   -0.74699  -0.72519  -0.72225  -0.71827  -0.71281
 Alpha  occ. eigenvalues --   -0.69036  -0.68908  -0.68829  -0.68763  -0.67708
 Alpha  occ. eigenvalues --   -0.67405  -0.67376  -0.67218  -0.65610  -0.65487
 Alpha  occ. eigenvalues --   -0.65320  -0.65058  -0.64782  -0.64567  -0.64338
 Alpha  occ. eigenvalues --   -0.64332  -0.61949  -0.61127  -0.60492  -0.60017
 Alpha  occ. eigenvalues --   -0.59615  -0.59245  -0.59149  -0.58779  -0.58330
 Alpha  occ. eigenvalues --   -0.58006  -0.57954  -0.57790  -0.57511  -0.56987
 Alpha  occ. eigenvalues --   -0.56163  -0.55927  -0.55907  -0.55747  -0.55213
 Alpha  occ. eigenvalues --   -0.54719  -0.54474  -0.54224  -0.53709  -0.53677
 Alpha  occ. eigenvalues --   -0.53577  -0.53256  -0.53234  -0.53223  -0.53190
 Alpha  occ. eigenvalues --   -0.53020  -0.52959  -0.52535  -0.52438  -0.52131
 Alpha  occ. eigenvalues --   -0.52110  -0.51695  -0.51677  -0.51579  -0.51391
 Alpha  occ. eigenvalues --   -0.51214  -0.51000  -0.50896  -0.50809  -0.50570
 Alpha  occ. eigenvalues --   -0.50424  -0.50126  -0.49987  -0.49618  -0.49558
 Alpha  occ. eigenvalues --   -0.49497  -0.49447  -0.49369  -0.48994  -0.48847
 Alpha  occ. eigenvalues --   -0.48629  -0.48525  -0.48187  -0.48048  -0.47986
 Alpha  occ. eigenvalues --   -0.47717  -0.47671  -0.47475  -0.47400  -0.47142
 Alpha  occ. eigenvalues --   -0.46904  -0.46762  -0.46659  -0.46404  -0.46265
 Alpha  occ. eigenvalues --   -0.46198  -0.45979  -0.45930  -0.45559  -0.45508
 Alpha  occ. eigenvalues --   -0.45124  -0.45042  -0.44938  -0.44828  -0.44702
 Alpha  occ. eigenvalues --   -0.44660  -0.44452  -0.44362  -0.44057  -0.43976
 Alpha  occ. eigenvalues --   -0.43913  -0.43858  -0.43694  -0.43549  -0.43269
 Alpha  occ. eigenvalues --   -0.43176  -0.43029  -0.42977  -0.42944  -0.42731
 Alpha  occ. eigenvalues --   -0.42390  -0.42315  -0.42276  -0.42172  -0.41977
 Alpha  occ. eigenvalues --   -0.41926  -0.41550  -0.41489  -0.41250  -0.41156
 Alpha  occ. eigenvalues --   -0.40877  -0.40562  -0.40543  -0.40266  -0.40258
 Alpha  occ. eigenvalues --   -0.40006  -0.39864  -0.39657  -0.39622  -0.39412
 Alpha  occ. eigenvalues --   -0.38785  -0.38666  -0.37675  -0.37643  -0.37404
 Alpha  occ. eigenvalues --   -0.37155  -0.36847  -0.36535  -0.36460  -0.36229
 Alpha  occ. eigenvalues --   -0.35940  -0.35894  -0.34675  -0.34268  -0.33910
 Alpha  occ. eigenvalues --   -0.33825  -0.33112  -0.33063  -0.31698  -0.31637
 Alpha  occ. eigenvalues --   -0.31463  -0.31181  -0.30627  -0.30569  -0.30473
 Alpha  occ. eigenvalues --   -0.30211  -0.29269  -0.28640  -0.24044  -0.23980
 Alpha  occ. eigenvalues --   -0.21295  -0.20980
 Alpha virt. eigenvalues --   -0.08498  -0.08288  -0.02070  -0.01756  -0.00147
 Alpha virt. eigenvalues --    0.00064   0.01743   0.02120   0.02309   0.02985
 Alpha virt. eigenvalues --    0.04558   0.05185   0.05417   0.05769   0.05958

 Mulliken charges:
               1
     1  Mg  12.000026
     2  C    5.999966
     3  C    6.000031
     4  C    6.000035
     5  C    5.999977
     6  N    6.999949
     7  C    6.000034
     8  C    5.999990
     9  C    6.000008
    10  C    5.999981
    11  C    6.000006
    12  C    5.999992
    13  C    5.999987
    14  H    1.000038
    15  N    7.000001
    16  C    5.999927
    17  C    5.999977
    18  C    5.999963
    19  C    5.999961
    20  C    6.000011
    21  C    6.000003
    22  O    7.999969
    23  C    6.000010
    24  N    7.000040
    25  C    5.999938
    26  C    6.000020
    27  C    5.999978
    28  C    6.000027
    29  C    6.000011
    30  C    5.999997
    31  C    6.000000
    32  N    6.999996
    33  C    6.000073
    34  C    6.000027
    35  C    6.000034
    36  C    6.000061
    37  C    5.999977
    38  C    6.000004
    39  O    8.000031
    40  C    6.000011
    41  C    5.999997
    42  O    7.999997
    43  O    8.000010
    44  C    6.000002
    45  H    0.999993
    46  H    0.999993
    47  H    1.000015
    48  H    0.999987
    49  H    1.000018
    50  H    0.999996
    51  H    0.999974
    52  H    0.999975
    53  H    1.000030
    54  H    1.000020
    55  H    0.999999
    56  H    0.999976
    57  H    1.000002
    58  H    0.999985
    59  H    0.999954
    60  H    1.000016
    61  H    0.999960
    62  H    0.999972
    63  H    1.000011
    64  H    0.999982
    65  H    0.999970
    66  H    0.999989
    67  H    0.999984
    68  H    1.000031
    69  H    1.000020
    70  H    0.999974
    71  H    1.000022
    72  H    1.000000
    73  H    1.000018
    74  H    0.999999
    75  H    1.000044
    76  H    1.000034
    77  H    0.999981
    78  H    1.000002
    79  H    1.000006
    80  Mg  11.998257
    81  C    6.021257
    82  C    5.971814
    83  C    5.981820
    84  C    6.020895
    85  N    6.996613
    86  C    5.966927
    87  C    6.010130
    88  C    5.996053
    89  C    6.033360
    90  C    6.000962
    91  C    6.004137
    92  C    6.001004
    93  H    0.991720
    94  N    6.987467
    95  C    6.047311
    96  C    6.024025
    97  C    6.011151
    98  C    6.040040
    99  C    5.996658
   100  C    6.013466
   101  O    8.025932
   102  C    5.993164
   103  N    7.004947
   104  C    6.039656
   105  C    5.990030
   106  C    6.008434
   107  C    5.966920
   108  C    5.995470
   109  C    6.005306
   110  C    5.999934
   111  N    7.006433
   112  C    5.956004
   113  C    5.973038
   114  C    5.994388
   115  C    5.963492
   116  C    6.006573
   117  C    5.983349
   118  O    7.969600
   119  C    5.998044
   120  C    5.998302
   121  O    7.991511
   122  O    8.000420
   123  C    6.003336
   124  H    1.005543
   125  H    1.007483
   126  H    0.993835
   127  H    0.995759
   128  H    0.997464
   129  H    0.997427
   130  H    1.012040
   131  H    0.999639
   132  H    0.984720
   133  H    1.003164
   134  H    0.995933
   135  H    1.005055
   136  H    1.020980
   137  H    1.019386
   138  H    1.018312
   139  H    1.006265
   140  H    1.007771
   141  H    1.014797
   142  H    1.002991
   143  H    1.001337
   144  H    1.010211
   145  H    1.007983
   146  H    0.993343
   147  H    0.999925
   148  H    0.989357
   149  H    1.007439
   150  H    0.996145
   151  H    0.998039
   152  H    0.983292
   153  H    0.976937
   154  H    0.981582
   155  H    0.991169
   156  H    0.994666
   157  H    0.996312
   158  H    0.994350
 Sum of Mulliken charges = 624.00000

 Dipole moment (field-independent basis, Debye):
    X=             -7.1186    Y=             -4.0131    Z=              7.0768  Tot=             10.8102
 Quadrupole moment (field-independent basis, Debye-Ang):
   XX=            379.2024   YY=              0.0430   ZZ=              1.0885
   XY=            110.6004   XZ=           -189.6287   YZ=             -3.8803

 Normal termination of Gaussian 16 at Thu Sep 23 09:03:55 2021.
