 Gaussian 16, Revision A.03,
 Gaussian 16:  ES64L-G16RevA.03 25-Dec-2016

 ----------------------------------------------------------
 #p cam-b3lyp/Def2SVP td=(nstates=5) density=(transition=1)
 ----------------------------------------------------------

 --------------------------------
 TDDFT excited states in gaussian
 --------------------------------
 Symbolic Z-matrix:
 Charge =  0 Multiplicity = 1

                         Standard orientation:
 ---------------------------------------------------------------------
 Center     Atomic      Atomic             Coordinates (Angstroms)
 Number     Number       Type             X           Y           Z
 ---------------------------------------------------------------------
      1         12           0      -12.817763   -0.304139   -0.326591
      2          6           0       -9.439705   -0.336661    0.900687
      3          6           0      -13.448521    2.178175    2.125174
      4          6           0      -16.179002   -0.205632   -1.269290
      5          6           0      -12.208287   -2.913874   -2.321114
      6          7           0      -11.541637    0.645699    1.498156
      7          6           0      -10.206603    0.544224    1.673354
      8          6           0       -9.764037    1.394363    2.918176
      9          6           0      -11.148066    1.986869    3.365439
     10          6           0      -12.129303    1.657525    2.217116
     11          6           0      -11.607356    1.440460    4.762242
     12          6           0       -8.737992    2.475819    2.580604
     13          6           0       -7.594075    2.619995    3.529957
     14          1           0       -6.477328    3.619387    3.195311
     15          7           0      -14.502024    0.926691    0.155564
     16          6           0      -14.534609    1.859800    1.186524
     17          6           0      -15.846223    2.476737    1.193379
     18          6           0      -16.614508    1.908442    0.190807
     19          6           0      -15.792693    0.759430   -0.318878
     20          6           0      -16.325224    3.456445    2.225774
     21          6           0      -18.113512    2.168134   -0.248463
     22          8           0      -18.725031    1.628825   -1.138015
     23          6           0      -18.859745    3.326127    0.377982
     24          7           0      -14.053916   -1.444521   -1.454209
     25          6           0      -15.383293   -1.274881   -1.741208
     26          6           0      -15.966242   -2.466292   -2.536545
     27          6           0      -14.661498   -3.191764   -3.077566
     28          6           0      -13.556028   -2.438352   -2.243922
     29          6           0      -16.927423   -3.356957   -1.686012
     30          6           0      -14.444419   -3.070639   -4.616667
     31          6           0      -14.117913   -1.670396   -5.130985
     32          7           0      -11.239608   -1.440254   -0.666606
     33          6           0      -11.079721   -2.496925   -1.605848
     34          6           0       -9.718212   -3.025295   -1.557492
     35          6           0       -9.056205   -2.182390   -0.646799
     36          6           0       -9.985653   -1.236512   -0.138899
     37          6           0       -9.196509   -4.131570   -2.351213
     38          6           0       -7.746152   -1.972297   -0.039081
     39          8           0       -6.688489   -2.537761   -0.260618
     40          6           0       -7.948708   -0.809334    1.074042
     41          6           0       -6.849998    0.160405    0.632301
     42          8           0       -6.826269    0.896809   -0.370332
     43          8           0       -5.835257    0.064592    1.473678
     44          6           0       -4.737306    1.113886    1.436135
     45          1           0      -13.611569    2.993407    2.832745
     46          1           0      -17.212123   -0.254023   -1.622170
     47          1           0      -12.060930   -3.714524   -3.048513
     48          1           0       -9.266182    0.675153    3.567674
     49          1           0      -11.122074    3.076163    3.417057
     50          1           0      -11.834368    2.192238    5.518148
     51          1           0      -10.979494    0.640325    5.154712
     52          1           0      -12.586475    0.961874    4.792023
     53          1           0       -9.276835    3.372969    2.885865
     54          1           0       -8.479368    2.507768    1.521636
     55          1           0       -7.051185    1.735606    3.867383
     56          1           0       -8.072386    3.013278    4.427046
     57          1           0      -15.509463    3.787616    2.867879
     58          1           0      -17.120574    3.092048    2.877816
     59          1           0      -16.724339    4.393395    1.836927
     60          1           0      -18.372373    4.283271    0.192711
     61          1           0      -18.889979    3.021576    1.424183
     62          1           0      -19.874760    3.197731    0.001961
     63          1           0      -16.613760   -1.989639   -3.273338
     64          1           0      -14.448560   -4.190875   -2.696746
     65          1           0      -17.965819   -3.281554   -2.008627
     66          1           0      -16.884992   -3.269585   -0.600913
     67          1           0      -16.524544   -4.348317   -1.894153
     68          1           0      -15.234153   -3.643632   -5.102771
     69          1           0      -13.560011   -3.657407   -4.864332
     70          1           0      -14.175865   -0.867684   -4.396768
     71          1           0      -14.869072   -1.458621   -5.891508
     72          1           0      -13.093122   -1.515731   -5.466632
     73          1           0       -8.152007   -4.381410   -2.163849
     74          1           0       -9.330650   -3.821316   -3.387405
     75          1           0       -9.840287   -4.994114   -2.173214
     76          1           0       -7.638091   -1.129313    2.068628
     77          1           0       -4.212720    1.023796    2.387597
     78          1           0       -5.124258    2.132173    1.412914
     79          1           0       -4.076099    1.020771    0.573821
     80         12           0       12.375259   -0.235899    0.353077
     81          6           0       11.514561    2.673100   -1.191889
     82          6           0        9.115509   -0.415778    1.523939
     83          6           0       13.121749   -3.282660    1.549989
     84          6           0       15.415421   -0.296557   -1.418788
     85          7           0       10.453301    0.878180   -0.043001
     86          6           0       10.413366    2.062963   -0.684928
     87          6           0        9.034472    2.602288   -0.799630
     88          6           0        8.328864    1.761134    0.436120
     89          6           0        9.358838    0.639312    0.685507
     90          6           0        8.012852    2.653954    1.672245
     91          6           0        8.452517    2.239368   -2.156604
     92          6           0        8.415690    0.705643   -2.606121
     93          1           0        7.206160    0.147752   -3.345846
     94          7           0       11.288176   -1.651595    1.385330
     95          6           0        9.979541   -1.487458    1.905726
     96          6           0        9.736361   -2.587838    2.777607
     97          6           0       10.819573   -3.457877    2.783106
     98          6           0       11.842498   -2.829174    1.930501
     99          6           0        8.406022   -2.642118    3.500824
    100          6           0       10.913707   -4.807005    3.454834
    101          8           0        9.892815   -5.169911    4.090677
    102          6           0       11.946380   -5.769320    3.263600
    103          7           0       13.956764   -1.680242   -0.089602
    104          6           0       14.058041   -2.849309    0.605619
    105          6           0       15.328863   -3.634274    0.201214
    106          6           0       16.050533   -2.636000   -0.765548
    107          6           0       15.054481   -1.490507   -0.829789
    108          6           0       16.169137   -4.073253    1.381380
    109          6           0       16.356413   -3.326270   -2.199948
    110          6           0       17.739209   -2.993105   -2.771661
    111          7           0       13.377342    0.942149   -1.067325
    112          6           0       14.650785    0.924203   -1.539195
    113          6           0       14.883798    2.198923   -2.161824
    114          6           0       13.696092    3.000545   -2.042447
    115          6           0       12.807909    2.163009   -1.388143
    116          6           0       16.048266    2.532344   -3.030221
    117          6           0       13.007566    4.207633   -2.369422
    118          8           0       13.517438    5.165775   -2.963857
    119          6           0       11.607084    4.051623   -1.806234
    120          6           0       11.362216    5.149229   -0.839232
    121          8           0       11.470520    6.301471   -1.210147
    122          8           0       10.942178    4.740023    0.389465
    123          6           0       10.674816    5.816008    1.345859
    124          1           0        8.197743   -0.335939    2.110073
    125          1           0       13.433821   -4.150669    2.134184
    126          1           0       16.407043   -0.158283   -1.855436
    127          1           0        8.892478    3.678548   -0.701113
    128          1           0        7.321215    1.444020    0.164315
    129          1           0        6.946841    2.618718    1.893929
    130          1           0        8.259688    3.678254    1.391735
    131          1           0        8.584365    2.410186    2.568760
    132          1           0        8.950085    2.869477   -2.894109
    133          1           0        7.478291    2.726922   -2.122962
    134          1           0        8.522506   -0.025078   -1.804303
    135          1           0        9.236618    0.669573   -3.321683
    136          1           0        7.715594   -3.111217    2.799603
    137          1           0        8.063082   -1.624681    3.684543
    138          1           0        8.392445   -3.175490    4.451787
    139          1           0       11.577843   -6.788563    3.383694
    140          1           0       12.850317   -5.560030    3.837062
    141          1           0       12.164781   -5.728716    2.197338
    142          1           0       14.926020   -4.485625   -0.348550
    143          1           0       16.934221   -2.230745   -0.273010
    144          1           0       15.713762   -3.870194    2.350292
    145          1           0       17.227050   -3.820772    1.448048
    146          1           0       16.066271   -5.158321    1.349728
    147          1           0       15.640275   -3.062704   -2.978337
    148          1           0       16.243713   -4.409720   -2.165028
    149          1           0       18.361866   -3.883303   -2.686736
    150          1           0       18.202887   -2.247030   -2.125961
    151          1           0       17.703416   -2.670453   -3.812313
    152          1           0       17.022215    2.628866   -2.551937
    153          1           0       15.774908    3.465058   -3.525037
    154          1           0       16.220510    1.774376   -3.794442
    155          1           0       10.927708    4.160013   -2.652197
    156          1           0        9.923375    6.472203    0.905780
    157          1           0       11.570854    6.354263    1.655303
    158          1           0       10.373523    5.406612    2.309966
 ---------------------------------------------------------------------

 SCF Done:  E(RCAM-B3LYP) =  -4069.79470533     A.U. after   19 cycles

 Excitation energies and oscillator strengths:

 Excited State   1:      Singlet-A      1.6509 eV  751.03 nm  f=0.3761  <S**2>=0.000
     310 -> 315       -0.18391
     312 -> 314        0.68501
     310 <- 315       -0.11252
 This state for optimization and/or second-order correction.
 Total Energy, E(TD-HF/TD-DFT) =  -4069.73403721
 Copying the excited state density for this state as the 1-particle RhoCI density.

 Excited State   2:      Singlet-A      1.7419 eV  711.76 nm  f=0.3900  <S**2>=0.000
     309 -> 316       -0.17686
     311 -> 313        0.68510
     309 <- 316       -0.10386

 Excited State   3:      Singlet-A      2.2167 eV  559.32 nm  f=0.1478  <S**2>=0.000
     309 -> 313       -0.43321
     310 -> 314        0.46740
     311 -> 316       -0.16804
     312 -> 315        0.23851

 Excited State   4:      Singlet-A      2.2183 eV  558.91 nm  f=0.0751  <S**2>=0.000
     309 -> 313        0.48535
     310 -> 314        0.41614
     311 -> 316        0.18938
     312 -> 315        0.21387

 Excited State   5:      Singlet-A      2.8564 eV  434.06 nm  f=0.0000  <S**2>=0.000
     312 -> 313        0.70707

 The electronic state is 1-A.
 Alpha  occ. eigenvalues --  -46.89052 -46.88304 -19.26347 -19.24978 -19.19523
 Alpha  occ. eigenvalues --  -19.19430 -19.19379 -19.18224 -19.18103 -19.18030
 Alpha  occ. eigenvalues --  -14.42469 -14.42023 -14.42002 -14.41562 -14.40114
 Alpha  occ. eigenvalues --  -14.39732 -14.39689 -14.38549 -10.39419 -10.38494
 Alpha  occ. eigenvalues --  -10.35597 -10.35407 -10.34778 -10.34395 -10.32705
 Alpha  occ. eigenvalues --  -10.32256 -10.31625 -10.31417 -10.31379 -10.31252
 Alpha  occ. eigenvalues --  -10.31162 -10.31128 -10.31096 -10.31050 -10.30638
 Alpha  occ. eigenvalues --  -10.30464 -10.30330 -10.30151 -10.30011 -10.29925
 Alpha  occ. eigenvalues --  -10.29144 -10.28952 -10.28888 -10.28812 -10.28755
 Alpha  occ. eigenvalues --  -10.28615 -10.28505 -10.28435 -10.28417 -10.28407
 Alpha  occ. eigenvalues --  -10.28373 -10.28368 -10.28324 -10.28299 -10.28279
 Alpha  occ. eigenvalues --  -10.28221 -10.28150 -10.28150 -10.27956 -10.27675
 Alpha  occ. eigenvalues --  -10.27543 -10.27341 -10.27302 -10.27295 -10.27237
 Alpha  occ. eigenvalues --  -10.27150 -10.27117 -10.26945 -10.26899 -10.26837
 Alpha  occ. eigenvalues --  -10.26716 -10.26625 -10.26499 -10.26411 -10.26289
 Alpha  occ. eigenvalues --  -10.26238 -10.26122 -10.26075 -10.26025 -10.25715
 Alpha  occ. eigenvalues --  -10.25571 -10.25490 -10.25432 -10.25404 -10.24921
 Alpha  occ. eigenvalues --  -10.24496  -3.17504  -3.16994  -1.92381  -1.91980
 Alpha  occ. eigenvalues --   -1.91880  -1.91787  -1.91467  -1.91300  -1.17371
 Alpha  occ. eigenvalues --   -1.15978  -1.11461  -1.10051  -1.09003  -1.08339
 Alpha  occ. eigenvalues --   -1.07943  -1.05316  -1.04925  -1.04487  -1.03798
 Alpha  occ. eigenvalues --   -1.03139  -1.02675  -1.02227  -1.01713  -1.01459
 Alpha  occ. eigenvalues --   -0.94016  -0.90878  -0.89277  -0.89224  -0.88994
 Alpha  occ. eigenvalues --   -0.88756  -0.88687  -0.88005  -0.87734  -0.87365
 Alpha  occ. eigenvalues --   -0.86964  -0.86460  -0.86268  -0.85791  -0.85045
 Alpha  occ. eigenvalues --   -0.84137  -0.84079  -0.83593  -0.83296  -0.82748
 Alpha  occ. eigenvalues --   -0.82385  -0.81516  -0.81403  -0.81051  -0.80843
 Alpha  occ. eigenvalues --   -0.80180  -0.78575  -0.78144  -0.77937  -0.77316
 Alpha  occ. eigenvalues --   -0.77011  -0.76974  -0.76096  -0.75999  -0.75137
 Alpha  occ. eigenvalues --   -0.74901  -0.72605  -0.72457  -0.72070  -0.71660
 Alpha  occ. eigenvalues --   -0.70082  -0.70074  -0.69072  -0.68792  -0.68767
 Alpha  occ. eigenvalues --   -0.67557  -0.67073  -0.66510  -0.66292  -0.65496
 Alpha  occ. eigenvalues --   -0.65280  -0.65161  -0.65128  -0.64583  -0.64335
 Alpha  occ. eigenvalues --   -0.64073  -0.63774  -0.61807  -0.60188  -0.59678
 Alpha  occ. eigenvalues --   -0.59604  -0.59290  -0.59286  -0.58955  -0.58775
 Alpha  occ. eigenvalues --   -0.58330  -0.57968  -0.57717  -0.57375  -0.56792
 Alpha  occ. eigenvalues --   -0.56532  -0.56263  -0.55750  -0.55655  -0.55512
 Alpha  occ. eigenvalues --   -0.55106  -0.55038  -0.54675  -0.54467  -0.54202
 Alpha  occ. eigenvalues --   -0.53986  -0.53703  -0.53429  -0.53341  -0.53234
 Alpha  occ. eigenvalues --   -0.53021  -0.52918  -0.52743  -0.52436  -0.52427
 Alpha  occ. eigenvalues --   -0.52128  -0.51835  -0.51777  -0.51538  -0.51368
 Alpha  occ. eigenvalues --   -0.51028  -0.50978  -0.50906  -0.50870  -0.50273
 Alpha  occ. eigenvalues --   -0.50122  -0.49808  -0.49618  -0.49542  -0.49416
 Alpha  occ. eigenvalues --   -0.49303  -0.49242  -0.49065  -0.48968  -0.48698
 Alpha  occ. eigenvalues --   -0.48678  -0.48637  -0.48453  -0.48423  -0.48142
 Alpha  occ. eigenvalues --   -0.48102  -0.47573  -0.47540  -0.47460  -0.47041
 Alpha  occ. eigenvalues --   -0.46738  -0.46672  -0.46664  -0.46371  -0.46356
 Alpha  occ. eigenvalues --   -0.46352  -0.46195  -0.45996  -0.45845  -0.45685
 Alpha  occ. eigenvalues --   -0.45589  -0.45513  -0.45260  -0.45170  -0.44928
 Alpha  occ. eigenvalues --   -0.44802  -0.44604  -0.44568  -0.44484  -0.44422
 Alpha  occ. eigenvalues --   -0.44168  -0.43979  -0.43674  -0.43657  -0.43546
 Alpha  occ. eigenvalues --   -0.43498  -0.43176  -0.43007  -0.42982  -0.42754
 Alpha  occ. eigenvalues --   -0.42505  -0.42387  -0.42253  -0.42195  -0.42162
 Alpha  occ. eigenvalues --   -0.41851  -0.41826  -0.41730  -0.41428  -0.41212
 Alpha  occ. eigenvalues --   -0.41087  -0.40932  -0.40895  -0.40427  -0.40370
 Alpha  occ. eigenvalues --   -0.40200  -0.39594  -0.39478  -0.39223  -0.39143
 Alpha  occ. eigenvalues --   -0.38641  -0.38616  -0.38060  -0.37767  -0.37638
 Alpha  occ. eigenvalues --   -0.37547  -0.37458  -0.36832  -0.36639  -0.36077
 Alpha  occ. eigenvalues --   -0.35903  -0.35659  -0.34643  -0.33937  -0.33919
 Alpha  occ. eigenvalues --   -0.33142  -0.33051  -0.32750  -0.31723  -0.31450
 Alpha  occ. eigenvalues --   -0.30995  -0.30820  -0.30813  -0.30390  -0.30366
 Alpha  occ. eigenvalues --   -0.30042  -0.29992  -0.28933  -0.24240  -0.24119
 Alpha  occ. eigenvalues --   -0.21610  -0.20967
 Alpha virt. eigenvalues --   -0.09083  -0.08709  -0.02042  -0.01826   0.00207
 Alpha virt. eigenvalues --    0.00643   0.01396   0.02071   0.02381   0.03401
 Alpha virt. eigenvalues --    0.05047   0.05135   0.05236   0.05581   0.06159

 Mulliken charges:
               1
     1  Mg  12.000706
     2  C    5.977952
     3  C    6.023517
     4  C    6.028211
     5  C    5.992594
     6  N    6.990727
     7  C    6.029333
     8  C    5.995202
     9  C    6.006191
    10  C    5.966774
    11  C    6.002571
    12  C    5.994231
    13  C    5.998080
    14  H    1.000582
    15  N    7.009814
    16  C    5.948209
    17  C    5.985517
    18  C    5.981487
    19  C    5.956404
    20  C    6.006956
    21  C    5.987806
    22  O    7.973482
    23  C    6.003676
    24  N    7.012169
    25  C    5.957570
    26  C    6.007227
    27  C    5.995869
    28  C    6.033667
    29  C    6.005440
    30  C    5.994493
    31  C    5.993047
    32  N    6.994250
    33  C    6.040975
    34  C    6.028576
    35  C    6.004107
    36  C    6.036222
    37  C    5.997916
    38  C    6.014328
    39  O    8.028320
    40  C    6.002907
    41  C    6.003454
    42  O    8.005030
    43  O    8.000096
    44  C    5.997590
    45  H    0.989788
    46  H    0.993892
    47  H    1.012754
    48  H    0.996389
    49  H    1.001220
    50  H    0.997119
    51  H    0.987030
    52  H    1.002352
    53  H    1.009721
    54  H    0.996326
    55  H    0.996667
    56  H    1.005868
    57  H    0.981588
    58  H    0.979357
    59  H    0.980444
    60  H    0.992250
    61  H    0.995019
    62  H    0.985516
    63  H    1.002485
    64  H    0.997554
    65  H    1.000073
    66  H    1.001217
    67  H    0.986108
    68  H    1.010545
    69  H    0.995890
    70  H    1.011761
    71  H    1.008731
    72  H    0.995795
    73  H    1.015453
    74  H    1.018638
    75  H    1.018749
    76  H    1.008854
    77  H    1.004648
    78  H    1.005296
    79  H    1.001627
    80  Mg  12.000138
    81  C    5.999638
    82  C    6.000083
    83  C    6.000607
    84  C    5.999809
    85  N    6.999816
    86  C    6.000640
    87  C    5.999751
    88  C    6.000347
    89  C    5.999468
    90  C    6.000158
    91  C    5.999879
    92  C    6.000293
    93  H    0.999171
    94  N    7.000266
    95  C    5.998962
    96  C    5.999483
    97  C    5.999899
    98  C    5.998884
    99  C    6.000113
   100  C    5.999711
   101  O    7.999315
   102  C    6.000137
   103  N    6.999963
   104  C    5.999217
   105  C    6.000235
   106  C    5.999742
   107  C    6.000656
   108  C    5.999945
   109  C    5.999874
   110  C    5.999926
   111  N    6.999880
   112  C    6.000819
   113  C    6.000933
   114  C    6.000120
   115  C    6.000756
   116  C    5.999813
   117  C    6.000451
   118  O    8.000923
   119  C    5.999966
   120  C    6.000117
   121  O    8.000273
   122  O    7.999909
   123  C    5.999857
   124  H    0.999321
   125  H    0.999954
   126  H    1.000394
   127  H    1.000121
   128  H    0.999285
   129  H    0.999522
   130  H    0.999870
   131  H    1.000279
   132  H    1.000038
   133  H    0.999881
   134  H    1.000313
   135  H    1.000035
   136  H    0.998904
   137  H    0.999575
   138  H    0.999646
   139  H    0.999656
   140  H    0.999982
   141  H    0.999778
   142  H    0.999926
   143  H    1.000192
   144  H    1.000143
   145  H    1.000011
   146  H    1.000034
   147  H    0.999889
   148  H    1.000265
   149  H    1.000278
   150  H    1.000062
   151  H    1.000016
   152  H    1.000839
   153  H    1.000463
   154  H    1.000647
   155  H    1.000126
   156  H    1.000109
   157  H    1.000285
   158  H    1.000217
 Sum of Mulliken charges = 624.00000

 Dipole moment (field-independent basis, Debye):
    X=              8.7242    Y=             -5.8475    Z=             -3.1387  Tot=             10.9616
 Quadrupole moment (field-independent basis, Debye-Ang):
   XX=           -213.2421   YY=              3.3014   ZZ=              1.4581
   XY=             79.2823   XZ=             35.1526   YZ=              3.0229

 Normal termination of Gaussian 16 at Wed Sep 22 11:47:05 2021.
