 Gaussian 16, Revision A.03,
 Gaussian 16:  ES64L-G16RevA.03 25-Dec-2016

 ----------------------------------------------------------
 #p cam-b3lyp/Def2SVP td=(nstates=5) density=(transition=1)
 ----------------------------------------------------------

 --------------------------------
 TDDFT excited states in gaussian
 --------------------------------
 Symbolic Z-matrix:
 Charge =  0 Multiplicity = 1

                         Standard orientation:
 ---------------------------------------------------------------------
 Center     Atomic      Atomic             Coordinates (Angstroms)
 Number     Number       Type             X           Y           Z
 ---------------------------------------------------------------------
      1         12           0       28.734721    0.571845    0.572145
      2          6           0       28.967176   -2.545846   -0.955981
      3          6           0       27.322589    1.847875   -2.207973
      4          6           0       28.969879    3.638636    1.973920
      5          6           0       30.615928   -0.685785    3.173917
      6          7           0       28.223948   -0.304250   -1.398369
      7          6           0       28.220412   -1.640337   -1.708874
      8          6           0       27.602649   -1.859748   -3.037383
      9          6           0       27.107107   -0.491017   -3.518402
     10          6           0       27.537230    0.461583   -2.321117
     11          6           0       27.531532    0.005041   -4.891974
     12          6           0       26.439983   -3.004386   -2.973264
     13          6           0       26.643644   -4.283767   -3.818230
     14          1           0       25.486617   -4.922895   -4.546038
     15          7           0       28.113065    2.453490    0.025161
     16          6           0       27.550224    2.799209   -1.194237
     17          6           0       27.321763    4.197837   -1.232786
     18          6           0       27.800509    4.756053   -0.016563
     19          6           0       28.306461    3.600345    0.731086
     20          6           0       26.529102    4.793448   -2.461354
     21          6           0       27.825059    6.245873    0.320640
     22          8           0       28.313111    6.741702    1.347466
     23          6           0       27.162326    7.201197   -0.571361
     24          7           0       29.860882    1.472747    2.209183
     25          6           0       29.706601    2.702809    2.653696
     26          6           0       30.621677    2.971034    3.869762
     27          6           0       30.670688    1.492289    4.422698
     28          6           0       30.332407    0.671508    3.182239
     29          6           0       32.076861    3.536275    3.671745
     30          6           0       29.699955    1.141532    5.649920
     31          6           0       28.248575    1.313340    5.460061
     32          7           0       29.715826   -1.266764    1.094126
     33          6           0       30.456292   -1.644083    2.231550
     34          6           0       30.863993   -3.006509    2.099831
     35          6           0       30.380182   -3.394213    0.866201
     36          6           0       29.590720   -2.320763    0.337939
     37          6           0       31.823553   -3.703264    2.934376
     38          6           0       30.172471   -4.500041    0.055386
     39          8           0       30.557580   -5.670266    0.146500
     40          6           0       29.338586   -4.020983   -1.219018
     41          6           0       30.293682   -4.086436   -2.364690
     42          8           0       31.357080   -3.537344   -2.563244
     43          8           0       29.752265   -4.960957   -3.214481
     44          6           0       30.508092   -5.194026   -4.488569
     45          1           0       26.678891    2.084692   -3.057663
     46          1           0       28.883097    4.615607    2.452509
     47          1           0       31.153889   -1.086881    4.035169
     48          1           0       28.417940   -2.215800   -3.665943
     49          1           0       26.017367   -0.488158   -3.509922
     50          1           0       28.386374    0.585905   -4.547653
     51          1           0       26.772293    0.548048   -5.455104
     52          1           0       27.900955   -0.703730   -5.632602
     53          1           0       25.486192   -2.546571   -3.233870
     54          1           0       26.328310   -3.459616   -1.988872
     55          1           0       26.942313   -5.061290   -3.114530
     56          1           0       27.493437   -4.196963   -4.493989
     57          1           0       27.109200    5.616622   -2.878021
     58          1           0       25.694285    5.199061   -1.889683
     59          1           0       26.346643    4.150133   -3.322199
     60          1           0       27.567827    7.141006   -1.580384
     61          1           0       27.539375    8.180953   -0.279038
     62          1           0       26.072704    7.195767   -0.533228
     63          1           0       30.035053    3.490361    4.627701
     64          1           0       31.696128    1.388270    4.776513
     65          1           0       32.630198    3.132896    2.824537
     66          1           0       32.547600    3.299140    4.626506
     67          1           0       32.054774    4.617364    3.531890
     68          1           0       29.903331    1.732806    6.543081
     69          1           0       29.676629    0.068332    5.838901
     70          1           0       27.960519    0.402950    4.936275
     71          1           0       27.883819    2.146528    4.858581
     72          1           0       27.609896    1.351096    6.341925
     73          1           0       32.786879   -3.390022    2.530141
     74          1           0       31.764819   -4.791009    2.909267
     75          1           0       31.697805   -3.504011    3.999171
     76          1           0       28.413608   -4.578720   -1.365857
     77          1           0       29.923721   -4.671441   -5.246209
     78          1           0       30.599227   -6.264597   -4.670669
     79          1           0       31.511391   -4.773247   -4.560876
     80         12           0      -29.678726   -0.310560    0.066780
     81          6           0      -26.445290    0.330968   -1.180788
     82          6           0      -28.321171   -2.768863    1.899384
     83          6           0      -32.602321   -0.473731    1.518187
     84          6           0      -30.633456    2.781270   -1.449645
     85          7           0      -27.597557   -1.078964    0.345247
     86          6           0      -26.447694   -0.754917   -0.292366
     87          6           0      -25.268305   -1.620625    0.102084
     88          6           0      -26.020460   -2.768689    0.887667
     89          6           0      -27.412074   -2.208026    1.095743
     90          6           0      -26.053580   -4.170804    0.150567
     91          6           0      -24.042229   -1.040143    0.933148
     92          6           0      -24.136736    0.318382    1.677185
     93          1           0      -23.340341    0.477646    3.025947
     94          7           0      -30.372282   -1.603142    1.450125
     95          6           0      -29.663981   -2.465163    2.167235
     96          6           0      -30.546252   -3.072000    3.200924
     97          6           0      -31.893917   -2.483799    2.958085
     98          6           0      -31.645362   -1.460136    1.942574
     99          6           0      -30.130548   -4.198557    4.108092
    100          6           0      -33.149002   -2.812499    3.723434
    101          8           0      -33.104065   -3.693507    4.578487
    102          6           0      -34.530121   -2.074473    3.571909
    103          7           0      -31.417348    1.074307    0.133482
    104          6           0      -32.476163    0.594821    0.688573
    105          6           0      -33.674405    1.597095    0.374254
    106          6           0      -32.926535    2.716053   -0.353620
    107          6           0      -31.527446    2.172946   -0.571589
    108          6           0      -34.904566    1.078212   -0.388789
    109          6           0      -32.729081    4.049727    0.536906
    110          6           0      -33.481103    5.307608    0.064834
    111          7           0      -28.790309    1.286878   -1.016362
    112          6           0      -29.301604    2.383131   -1.659271
    113          6           0      -28.298051    2.958865   -2.591722
    114          6           0      -27.084197    2.255113   -2.350907
    115          6           0      -27.513055    1.181484   -1.456295
    116          6           0      -28.456443    4.219237   -3.471206
    117          6           0      -25.694447    2.122615   -2.635976
    118          8           0      -24.862761    2.818807   -3.243045
    119          6           0      -25.225016    0.815601   -1.947807
    120          6           0      -24.683679   -0.096502   -3.052495
    121          8           0      -23.570468   -0.422808   -3.368586
    122          8           0      -25.774242   -0.755757   -3.630052
    123          6           0      -25.486734   -1.796627   -4.665320
    124          1           0      -27.850591   -3.557640    2.490331
    125          1           0      -33.574773   -0.594895    2.001573
    126          1           0      -31.014261    3.566519   -2.105469
    127          1           0      -24.914478   -2.044322   -0.837629
    128          1           0      -25.513424   -2.945675    1.836300
    129          1           0      -25.587447   -4.105251   -0.831980
    130          1           0      -27.118183   -4.281063   -0.052821
    131          1           0      -25.618851   -4.934692    0.795488
    132          1           0      -23.194415   -0.997559    0.249286
    133          1           0      -23.739423   -1.780382    1.674501
    134          1           0      -25.196517    0.462874    1.887276
    135          1           0      -23.674475    1.146880    1.141404
    136          1           0      -30.970982   -4.686802    4.600991
    137          1           0      -29.358208   -3.793661    4.763116
    138          1           0      -29.576551   -4.866858    3.448056
    139          1           0      -34.999056   -1.951196    2.594961
    140          1           0      -34.395937   -1.042446    3.895989
    141          1           0      -35.312827   -2.544482    4.166665
    142          1           0      -34.140567    1.959187    1.289975
    143          1           0      -33.335441    3.101796   -1.288131
    144          1           0      -34.820941    0.016046   -0.619366
    145          1           0      -35.097263    1.663266   -1.288681
    146          1           0      -35.828128    1.133635    0.187467
    147          1           0      -31.684858    4.356641    0.577285
    148          1           0      -33.046811    3.775376    1.543061
    149          1           0      -32.978242    6.255663    0.257286
    150          1           0      -34.397482    5.328071    0.654627
    151          1           0      -33.599302    5.139455   -1.005681
    152          1           0      -29.318931    4.841645   -3.235082
    153          1           0      -28.575081    3.822042   -4.479006
    154          1           0      -27.511884    4.762486   -3.457790
    155          1           0      -24.427762    1.046233   -1.241971
    156          1           0      -24.599006   -1.682352   -5.287011
    157          1           0      -26.329171   -1.701607   -5.350167
    158          1           0      -25.502305   -2.845176   -4.367297
 ---------------------------------------------------------------------

 SCF Done:  E(RCAM-B3LYP) =  -4069.77064065     A.U. after   19 cycles

 Excitation energies and oscillator strengths:

 Excited State   1:      Singlet-A      1.7047 eV  727.32 nm  f=0.3725  <S**2>=0.000
     310 -> 316        0.17520
     312 -> 313        0.68604
     310 <- 316        0.10615
 This state for optimization and/or second-order correction.
 Total Energy, E(TD-HF/TD-DFT) =  -4069.70799515
 Copying the excited state density for this state as the 1-particle RhoCI density.

 Excited State   2:      Singlet-A      1.7690 eV  700.88 nm  f=0.4111  <S**2>=0.000
     309 -> 315       -0.18509
     311 -> 314        0.68379
     309 <- 315       -0.10633

 Excited State   3:      Singlet-A      2.1769 eV  569.53 nm  f=0.1388  <S**2>=0.000
     310 -> 313        0.65148
     312 -> 316       -0.26309

 Excited State   4:      Singlet-A      2.2834 eV  542.99 nm  f=0.0990  <S**2>=0.000
     309 -> 314        0.63711
     311 -> 315        0.29627

 Excited State   5:      Singlet-A      3.2444 eV  382.15 nm  f=0.0000  <S**2>=0.000
     312 -> 314        0.70711

 The electronic state is 1-A.
 Alpha  occ. eigenvalues --  -46.90095 -46.89352 -19.25056 -19.24625 -19.20442
 Alpha  occ. eigenvalues --  -19.19493 -19.19084 -19.18680 -19.18625 -19.18222
 Alpha  occ. eigenvalues --  -14.42342 -14.42011 -14.41867 -14.41840 -14.40462
 Alpha  occ. eigenvalues --  -14.40190 -14.39714 -14.38999 -10.39907 -10.38624
 Alpha  occ. eigenvalues --  -10.35716 -10.35631 -10.35085 -10.34167 -10.31894
 Alpha  occ. eigenvalues --  -10.31711 -10.31549 -10.31436 -10.31218 -10.31149
 Alpha  occ. eigenvalues --  -10.31053 -10.30797 -10.30755 -10.30637 -10.30295
 Alpha  occ. eigenvalues --  -10.30202 -10.30135 -10.30127 -10.30116 -10.29893
 Alpha  occ. eigenvalues --  -10.29802 -10.29432 -10.29117 -10.28998 -10.28996
 Alpha  occ. eigenvalues --  -10.28824 -10.28780 -10.28682 -10.28562 -10.28551
 Alpha  occ. eigenvalues --  -10.28293 -10.28167 -10.28046 -10.27935 -10.27896
 Alpha  occ. eigenvalues --  -10.27876 -10.27847 -10.27810 -10.27649 -10.27591
 Alpha  occ. eigenvalues --  -10.27535 -10.27517 -10.27491 -10.27484 -10.27400
 Alpha  occ. eigenvalues --  -10.27272 -10.27210 -10.27168 -10.27115 -10.26861
 Alpha  occ. eigenvalues --  -10.26612 -10.26593 -10.26511 -10.26475 -10.26404
 Alpha  occ. eigenvalues --  -10.26390 -10.26370 -10.26275 -10.26202 -10.26048
 Alpha  occ. eigenvalues --  -10.25817 -10.25814 -10.25593 -10.25405 -10.24743
 Alpha  occ. eigenvalues --  -10.24669  -3.18573  -3.17761  -1.93461  -1.93027
 Alpha  occ. eigenvalues --   -1.92876  -1.92664  -1.92195  -1.92078  -1.17018
 Alpha  occ. eigenvalues --   -1.16086  -1.09595  -1.09356  -1.09137  -1.08573
 Alpha  occ. eigenvalues --   -1.07370  -1.07306  -1.06772  -1.05435  -1.04852
 Alpha  occ. eigenvalues --   -1.04270  -1.04039  -1.03397  -1.03330  -1.02641
 Alpha  occ. eigenvalues --   -0.93612  -0.92225  -0.89834  -0.89232  -0.88851
 Alpha  occ. eigenvalues --   -0.88760  -0.88643  -0.88383  -0.88328  -0.87977
 Alpha  occ. eigenvalues --   -0.87612  -0.86930  -0.86876  -0.85438  -0.84919
 Alpha  occ. eigenvalues --   -0.84650  -0.84300  -0.83985  -0.83085  -0.82930
 Alpha  occ. eigenvalues --   -0.82020  -0.81821  -0.81576  -0.80837  -0.80753
 Alpha  occ. eigenvalues --   -0.80573  -0.78765  -0.78546  -0.77739  -0.77677
 Alpha  occ. eigenvalues --   -0.77394  -0.77058  -0.76718  -0.75961  -0.75398
 Alpha  occ. eigenvalues --   -0.75380  -0.73493  -0.73348  -0.72426  -0.71691
 Alpha  occ. eigenvalues --   -0.69595  -0.69401  -0.69297  -0.69105  -0.68719
 Alpha  occ. eigenvalues --   -0.67787  -0.67556  -0.67224  -0.66885  -0.65771
 Alpha  occ. eigenvalues --   -0.65725  -0.65542  -0.65403  -0.64903  -0.64829
 Alpha  occ. eigenvalues --   -0.63983  -0.63192  -0.62073  -0.60632  -0.60449
 Alpha  occ. eigenvalues --   -0.60229  -0.59937  -0.59494  -0.59322  -0.58630
 Alpha  occ. eigenvalues --   -0.58582  -0.58273  -0.58116  -0.57937  -0.57341
 Alpha  occ. eigenvalues --   -0.56450  -0.56399  -0.55904  -0.55790  -0.55724
 Alpha  occ. eigenvalues --   -0.55494  -0.55103  -0.55068  -0.54843  -0.54717
 Alpha  occ. eigenvalues --   -0.54560  -0.53976  -0.53640  -0.53402  -0.53266
 Alpha  occ. eigenvalues --   -0.53038  -0.53004  -0.52853  -0.52705  -0.52201
 Alpha  occ. eigenvalues --   -0.52047  -0.51917  -0.51796  -0.51565  -0.51276
 Alpha  occ. eigenvalues --   -0.51180  -0.51139  -0.51102  -0.50646  -0.50381
 Alpha  occ. eigenvalues --   -0.50045  -0.49828  -0.49813  -0.49740  -0.49517
 Alpha  occ. eigenvalues --   -0.49467  -0.49212  -0.49056  -0.49004  -0.48905
 Alpha  occ. eigenvalues --   -0.48583  -0.48543  -0.48517  -0.48366  -0.48321
 Alpha  occ. eigenvalues --   -0.48086  -0.47928  -0.47661  -0.47463  -0.47383
 Alpha  occ. eigenvalues --   -0.47265  -0.47126  -0.46962  -0.46850  -0.46682
 Alpha  occ. eigenvalues --   -0.46675  -0.46306  -0.46252  -0.46116  -0.46006
 Alpha  occ. eigenvalues --   -0.45932  -0.45826  -0.45557  -0.45387  -0.45263
 Alpha  occ. eigenvalues --   -0.44899  -0.44648  -0.44487  -0.44237  -0.44125
 Alpha  occ. eigenvalues --   -0.44070  -0.43947  -0.43736  -0.43609  -0.43376
 Alpha  occ. eigenvalues --   -0.43323  -0.43204  -0.43153  -0.42956  -0.42706
 Alpha  occ. eigenvalues --   -0.42518  -0.42283  -0.42232  -0.42123  -0.42100
 Alpha  occ. eigenvalues --   -0.42040  -0.41841  -0.41618  -0.41494  -0.41275
 Alpha  occ. eigenvalues --   -0.41082  -0.40981  -0.40951  -0.40726  -0.40712
 Alpha  occ. eigenvalues --   -0.40176  -0.39996  -0.39536  -0.39264  -0.38951
 Alpha  occ. eigenvalues --   -0.38881  -0.38236  -0.38076  -0.38038  -0.37706
 Alpha  occ. eigenvalues --   -0.37687  -0.37028  -0.36923  -0.36692  -0.36382
 Alpha  occ. eigenvalues --   -0.36349  -0.36134  -0.35042  -0.34489  -0.34317
 Alpha  occ. eigenvalues --   -0.34292  -0.33673  -0.33492  -0.31938  -0.31491
 Alpha  occ. eigenvalues --   -0.31441  -0.31074  -0.31050  -0.30991  -0.30543
 Alpha  occ. eigenvalues --   -0.30469  -0.29998  -0.29297  -0.24520  -0.24029
 Alpha  occ. eigenvalues --   -0.21560  -0.21453
 Alpha virt. eigenvalues --   -0.08991  -0.08940  -0.02059  -0.01630  -0.00645
 Alpha virt. eigenvalues --    0.00269   0.01160   0.01842   0.02003   0.02451
 Alpha virt. eigenvalues --    0.04277   0.04940   0.05330   0.05413   0.06089

 Mulliken charges:
               1
     1  Mg  12.003680
     2  C    6.034263
     3  C    5.992498
     4  C    5.965558
     5  C    5.991599
     6  N    7.019751
     7  C    5.961998
     8  C    6.012281
     9  C    5.994192
    10  C    6.025882
    11  C    5.997714
    12  C    6.002436
    13  C    6.000155
    14  H    0.996190
    15  N    6.990159
    16  C    6.041962
    17  C    6.018275
    18  C    6.015408
    19  C    6.040807
    20  C    5.999391
    21  C    6.012318
    22  O    8.029313
    23  C    5.991174
    24  N    6.977381
    25  C    6.042232
    26  C    5.989484
    27  C    6.009633
    28  C    5.978103
    29  C    6.000990
    30  C    6.010335
    31  C    5.998997
    32  N    7.006704
    33  C    5.964653
    34  C    5.970963
    35  C    5.991825
    36  C    5.966646
    37  C    6.004663
    38  C    5.990875
    39  O    7.964421
    40  C    5.997806
    41  C    5.995976
    42  O    7.997619
    43  O    7.998827
    44  C    6.002381
    45  H    1.014742
    46  H    1.000281
    47  H    0.984132
    48  H    1.000467
    49  H    1.003371
    50  H    0.998956
    51  H    1.001665
    52  H    1.014186
    53  H    0.992204
    54  H    1.005066
    55  H    1.005876
    56  H    0.999703
    57  H    1.018651
    58  H    1.016110
    59  H    1.016323
    60  H    1.005174
    61  H    1.014546
    62  H    1.009090
    63  H    0.998315
    64  H    0.994324
    65  H    1.004335
    66  H    1.007503
    67  H    0.993535
    68  H    0.988624
    69  H    1.003481
    70  H    1.007345
    71  H    0.982546
    72  H    0.995154
    73  H    0.978824
    74  H    0.982846
    75  H    0.982829
    76  H    0.992961
    77  H    0.993064
    78  H    0.998329
    79  H    0.997923
    80  Mg  12.000019
    81  C    6.000061
    82  C    6.000035
    83  C    5.999884
    84  C    5.999950
    85  N    6.999987
    86  C    5.999895
    87  C    6.000027
    88  C    5.999985
    89  C    6.000020
    90  C    5.999991
    91  C    5.999997
    92  C    6.000040
    93  H    0.999951
    94  N    7.000009
    95  C    6.000091
    96  C    6.000136
    97  C    5.999999
    98  C    6.000181
    99  C    5.999966
   100  C    6.000025
   101  O    8.000080
   102  C    5.999988
   103  N    7.000028
   104  C    6.000099
   105  C    5.999970
   106  C    6.000007
   107  C    5.999960
   108  C    5.999994
   109  C    6.000034
   110  C    5.999998
   111  N    6.999972
   112  C    5.999938
   113  C    5.999859
   114  C    5.999994
   115  C    5.999888
   116  C    6.000029
   117  C    5.999944
   118  O    7.999853
   119  C    6.000019
   120  C    5.999994
   121  O    7.999953
   122  O    8.000013
   123  C    6.000020
   124  H    1.000025
   125  H    1.000048
   126  H    0.999991
   127  H    0.999995
   128  H    1.000009
   129  H    1.000041
   130  H    0.999994
   131  H    1.000020
   132  H    0.999990
   133  H    0.999974
   134  H    0.999999
   135  H    0.999994
   136  H    1.000069
   137  H    1.000081
   138  H    1.000083
   139  H    1.000041
   140  H    1.000028
   141  H    1.000057
   142  H    1.000006
   143  H    1.000001
   144  H    0.999996
   145  H    1.000031
   146  H    1.000013
   147  H    1.000001
   148  H    0.999958
   149  H    0.999988
   150  H    0.999988
   151  H    1.000001
   152  H    0.999930
   153  H    0.999935
   154  H    0.999929
   155  H    0.999952
   156  H    0.999972
   157  H    0.999993
   158  H    0.999984
 Sum of Mulliken charges = 624.00000

 Dipole moment (field-independent basis, Debye):
    X=             -4.2368    Y=              8.9348    Z=             -4.1795  Tot=             10.7355
 Quadrupole moment (field-independent basis, Debye-Ang):
   XX=           -244.3178   YY=             10.8382   ZZ=             -5.0156
   XY=            259.4123   XZ=           -124.0128   YZ=             -0.0498

 Normal termination of Gaussian 16 at Wed Sep 22 00:33:11 2021.
