 Gaussian 16, Revision A.03,
 Gaussian 16:  ES64L-G16RevA.03 25-Dec-2016

 -----------------------------------
 #p cam-b3lyp/Def2SVP td=(nstates=5)
 -----------------------------------

 --------------------------------
 TDDFT excited states in gaussian
 --------------------------------
 Symbolic Z-matrix:
 Charge =  0 Multiplicity = 1

                         Standard orientation:
 ---------------------------------------------------------------------
 Center     Atomic      Atomic             Coordinates (Angstroms)
 Number     Number       Type             X           Y           Z
 ---------------------------------------------------------------------
      1         12           0      -31.360859   -0.622915   -0.279158
      2          6           0      -28.358395    1.472769   -0.521922
      3          6           0      -29.288987   -2.892355    1.313535
      4          6           0      -34.015200   -1.957302    0.880047
      5          6           0      -33.122822    2.227099   -1.577111
      6          7           0      -29.011740   -0.582491    0.452130
      7          6           0      -28.013527    0.341933    0.234706
      8          6           0      -26.706662   -0.118621    0.978186
      9          6           0      -26.948693   -1.603620    1.299750
     10          6           0      -28.494399   -1.708533    1.010509
     11          6           0      -26.175789   -2.698436    0.453060
     12          6           0      -26.340649    0.768198    2.217328
     13          6           0      -24.870303    1.062193    2.423390
     14          1           0      -24.136291    0.233195    3.523640
     15          7           0      -31.638951   -2.251916    0.810029
     16          6           0      -30.704223   -3.127451    1.291950
     17          6           0      -31.379596   -4.237139    2.018762
     18          6           0      -32.762911   -3.940013    1.907326
     19          6           0      -32.847963   -2.655964    1.216004
     20          6           0      -30.709000   -5.387915    2.786701
     21          6           0      -33.945401   -4.636814    2.586529
     22          8           0      -33.702224   -5.650892    3.235079
     23          6           0      -35.289007   -4.220133    2.495486
     24          7           0      -33.302724    0.216277   -0.124781
     25          6           0      -34.251593   -0.735771    0.191071
     26          6           0      -35.675040   -0.124203   -0.107410
     27          6           0      -35.354806    1.332665   -0.599769
     28          6           0      -33.836804    1.211646   -0.875320
     29          6           0      -36.560163   -0.929781   -1.097676
     30          6           0      -35.728167    2.554355    0.333183
     31          6           0      -37.190753    3.031677    0.349418
     32          7           0      -30.930920    1.433293   -0.984201
     33          6           0      -31.735402    2.380138   -1.586088
     34          6           0      -30.967045    3.479822   -2.117250
     35          6           0      -29.613568    3.152738   -1.730599
     36          6           0      -29.591071    1.923280   -0.983900
     37          6           0      -31.564107    4.671510   -2.800165
     38          6           0      -28.307579    3.641176   -1.741880
     39          8           0      -27.860376    4.733633   -2.063919
     40          6           0      -27.456546    2.674961   -0.867875
     41          6           0      -26.327853    2.240276   -1.773345
     42          8           0      -25.141088    2.260790   -1.437550
     43          8           0      -26.733214    1.630042   -3.028061
     44          6           0      -25.637156    0.915646   -3.680609
     45          1           0      -28.646333   -3.657199    1.753395
     46          1           0      -35.004712   -2.386588    1.050416
     47          1           0      -33.786587    2.969439   -2.025026
     48          1           0      -25.896838   -0.172155    0.249174
     49          1           0      -26.842665   -1.810236    2.364718
     50          1           0      -25.415266   -3.082759    1.132440
     51          1           0      -25.650579   -2.247307   -0.388307
     52          1           0      -26.795969   -3.482154    0.018140
     53          1           0      -26.569040    0.316768    3.183146
     54          1           0      -26.819802    1.744334    2.139002
     55          1           0      -24.780446    2.138808    2.568164
     56          1           0      -24.355925    0.827051    1.491060
     57          1           0      -31.257517   -6.314512    2.615363
     58          1           0      -30.712094   -5.045855    3.821568
     59          1           0      -29.701262   -5.570503    2.416054
     60          1           0      -35.613737   -4.354585    1.463211
     61          1           0      -35.485055   -3.217645    2.875986
     62          1           0      -35.754687   -4.876358    3.231547
     63          1           0      -36.300271   -0.016606    0.778303
     64          1           0      -35.784579    1.522541   -1.583007
     65          1           0      -36.795330   -0.231207   -1.900785
     66          1           0      -37.472012   -1.223391   -0.578588
     67          1           0      -35.923529   -1.768912   -1.380794
     68          1           0      -35.094590    3.358428   -0.042600
     69          1           0      -35.544356    2.315312    1.380850
     70          1           0      -37.619745    2.386887   -0.418135
     71          1           0      -37.280973    4.042552   -0.050749
     72          1           0      -37.735158    2.934014    1.288353
     73          1           0      -32.267990    5.089877   -2.081906
     74          1           0      -32.186343    4.415159   -3.657420
     75          1           0      -30.847168    5.478959   -2.949388
     76          1           0      -27.036279    3.270976   -0.058016
     77          1           0      -26.275348    0.226124   -4.234511
     78          1           0      -24.901235    0.548249   -2.965420
     79          1           0      -25.217563    1.605502   -4.412929
     80         12           0       30.406440    0.423253    0.484448
     81          6           0       30.889440   -2.297898   -1.539807
     82          6           0       28.667195    1.937088   -1.940979
     83          6           0       30.228048    3.116400    2.503926
     84          6           0       32.729673   -1.052328    2.860268
     85          7           0       30.077281   -0.053410   -1.654787
     86          6           0       30.252297   -1.247214   -2.234237
     87          6           0       29.625670   -1.255931   -3.721838
     88          6           0       28.929246    0.156132   -3.729287
     89          6           0       29.262906    0.780857   -2.359550
     90          6           0       29.284643    1.015741   -4.957992
     91          6           0       28.646277   -2.435160   -3.983602
     92          6           0       27.709983   -2.357987   -5.233526
     93          1           0       28.093350   -3.228229   -6.490109
     94          7           0       29.594836    2.308730    0.281375
     95          6           0       28.842965    2.708156   -0.723174
     96          6           0       28.360178    4.050574   -0.436791
     97          6           0       28.879777    4.497350    0.815279
     98          6           0       29.603406    3.286462    1.261232
     99          6           0       27.569724    4.926963   -1.394274
    100          6           0       28.780765    5.852231    1.508511
    101          8           0       29.529417    6.145013    2.436319
    102          6           0       27.757146    6.824498    1.036245
    103          7           0       31.391666    0.967381    2.396934
    104          6           0       31.103951    2.101741    3.024043
    105          6           0       31.708174    2.150208    4.437219
    106          6           0       32.286943    0.742133    4.548834
    107          6           0       32.152714    0.208898    3.171381
    108          6           0       32.701430    3.276709    4.758929
    109          6           0       31.756160   -0.051771    5.715598
    110          6           0       32.805104   -0.462721    6.809612
    111          7           0       31.512827   -1.284438    0.682547
    112          6           0       32.348974   -1.809661    1.724173
    113          6           0       32.769735   -3.160791    1.425070
    114          6           0       32.175555   -3.348963    0.146186
    115          6           0       31.460284   -2.208098   -0.239029
    116          6           0       33.471233   -4.182754    2.248354
    117          6           0       31.931964   -4.420703   -0.785991
    118          8           0       32.126829   -5.645247   -0.766653
    119          6           0       31.221428   -3.822885   -1.974525
    120          6           0       32.214176   -3.763664   -3.156401
    121          8           0       33.406812   -3.423376   -3.127217
    122          8           0       31.541714   -4.151331   -4.277139
    123          6           0       32.307208   -4.212330   -5.562536
    124          1           0       27.985107    2.484080   -2.595221
    125          1           0       30.390468    4.000928    3.123353
    126          1           0       33.306730   -1.486806    3.678537
    127          1           0       30.501205   -1.272609   -4.369869
    128          1           0       27.852289   -0.011344   -3.716392
    129          1           0       28.358421    1.477502   -5.298296
    130          1           0       29.654116    0.410760   -5.786066
    131          1           0       30.022161    1.776182   -4.700998
    132          1           0       27.926373   -2.389732   -3.166444
    133          1           0       29.202317   -3.368597   -4.070131
    134          1           0       27.788733   -1.342261   -5.622443
    135          1           0       26.707645   -2.665252   -4.937180
    136          1           0       27.368881    4.410202   -2.332715
    137          1           0       28.136030    5.831975   -1.612817
    138          1           0       26.617219    5.238298   -0.967311
    139          1           0       26.827840    6.256309    0.986870
    140          1           0       27.832774    7.352323    0.086056
    141          1           0       27.627208    7.664897    1.717263
    142          1           0       30.884781    2.258662    5.142342
    143          1           0       33.353715    0.848625    4.744903
    144          1           0       32.449750    3.564518    5.779377
    145          1           0       32.629929    4.074678    4.019997
    146          1           0       33.749278    2.998097    4.647611
    147          1           0       31.443015   -0.992017    5.262864
    148          1           0       30.945483    0.443710    6.249050
    149          1           0       33.797600   -0.113271    6.523873
    150          1           0       32.826446   -1.552479    6.841505
    151          1           0       32.554686   -0.173792    7.830453
    152          1           0       33.554918   -3.840723    3.279576
    153          1           0       34.494328   -4.194831    1.874318
    154          1           0       32.864961   -5.084065    2.147061
    155          1           0       30.399372   -4.512584   -2.166875
    156          1           0       32.933754   -3.344765   -5.771030
    157          1           0       31.695991   -4.416492   -6.441024
    158          1           0       33.015354   -5.031090   -5.436154
 ---------------------------------------------------------------------

 SCF Done:  E(RCAM-B3LYP) =  -4069.76150887     A.U. after   19 cycles

 Excitation energies and oscillator strengths:

 Excited State   1:      Singlet-A      1.7215 eV  720.19 nm  f=0.3078  <S**2>=0.000
     310 -> 316        0.17323
     311 -> 313        0.11581
     312 -> 314        0.67384
     310 <- 316        0.10169
 This state for optimization and/or second-order correction.
 Total Energy, E(TD-HF/TD-DFT) =  -4069.69824317
 Copying the excited state density for this state as the 1-particle RhoCI density.

 Excited State   2:      Singlet-A      1.7224 eV  719.82 nm  f=0.4480  <S**2>=0.000
     309 -> 315        0.19401
     311 -> 313        0.66942
     312 -> 314       -0.11656
     309 <- 315        0.10875

 Excited State   3:      Singlet-A      2.2417 eV  553.08 nm  f=0.0694  <S**2>=0.000
     309 -> 313        0.61607
     311 -> 315       -0.33057

 Excited State   4:      Singlet-A      2.2690 eV  546.42 nm  f=0.1127  <S**2>=0.000
     310 -> 314        0.63910
     312 -> 316       -0.28652

 Excited State   5:      Singlet-A      3.1906 eV  388.59 nm  f=0.0000  <S**2>=0.000
     312 -> 313        0.70711

 The electronic state is 1-A.
 Alpha  occ. eigenvalues --  -46.90783 -46.89174 -19.25611 -19.23736 -19.20109
 Alpha  occ. eigenvalues --  -19.19524 -19.19439 -19.18810 -19.17889 -19.17663
 Alpha  occ. eigenvalues --  -14.42736 -14.42054 -14.42037 -14.41717 -14.40832
 Alpha  occ. eigenvalues --  -14.40073 -14.39264 -14.39161 -10.39541 -10.39410
 Alpha  occ. eigenvalues --  -10.36082 -10.34954 -10.33528 -10.33329 -10.32332
 Alpha  occ. eigenvalues --  -10.32167 -10.31906 -10.31667 -10.31608 -10.31548
 Alpha  occ. eigenvalues --  -10.31387 -10.31031 -10.30955 -10.30802 -10.30476
 Alpha  occ. eigenvalues --  -10.30370 -10.30297 -10.30007 -10.29971 -10.29675
 Alpha  occ. eigenvalues --  -10.29416 -10.29336 -10.29259 -10.28936 -10.28934
 Alpha  occ. eigenvalues --  -10.28856 -10.28791 -10.28568 -10.28548 -10.28423
 Alpha  occ. eigenvalues --  -10.28372 -10.28345 -10.28344 -10.28236 -10.28084
 Alpha  occ. eigenvalues --  -10.28083 -10.28051 -10.27976 -10.27757 -10.27525
 Alpha  occ. eigenvalues --  -10.27482 -10.27479 -10.27362 -10.27012 -10.27011
 Alpha  occ. eigenvalues --  -10.27000 -10.26873 -10.26869 -10.26826 -10.26739
 Alpha  occ. eigenvalues --  -10.26693 -10.26677 -10.26666 -10.26511 -10.26480
 Alpha  occ. eigenvalues --  -10.26258 -10.26244 -10.26231 -10.26213 -10.26203
 Alpha  occ. eigenvalues --  -10.26167 -10.25864 -10.25700 -10.25649 -10.25256
 Alpha  occ. eigenvalues --  -10.24384  -3.19194  -3.17699  -1.94039  -1.93701
 Alpha  occ. eigenvalues --   -1.93459  -1.92591  -1.92148  -1.92013  -1.15545
 Alpha  occ. eigenvalues --   -1.13966  -1.10479  -1.10373  -1.09003  -1.07953
 Alpha  occ. eigenvalues --   -1.06524  -1.06369  -1.05715  -1.05054  -1.04371
 Alpha  occ. eigenvalues --   -1.03862  -1.03389  -1.03364  -1.02942  -1.01105
 Alpha  occ. eigenvalues --   -0.92910  -0.91256  -0.89906  -0.89028  -0.88966
 Alpha  occ. eigenvalues --   -0.88715  -0.88531  -0.88157  -0.87538  -0.87142
 Alpha  occ. eigenvalues --   -0.87016  -0.86988  -0.86951  -0.85954  -0.85044
 Alpha  occ. eigenvalues --   -0.84175  -0.83894  -0.83719  -0.83320  -0.82556
 Alpha  occ. eigenvalues --   -0.82344  -0.82152  -0.81177  -0.81094  -0.80026
 Alpha  occ. eigenvalues --   -0.79905  -0.78521  -0.78280  -0.77543  -0.77382
 Alpha  occ. eigenvalues --   -0.77067  -0.76725  -0.76084  -0.75854  -0.75337
 Alpha  occ. eigenvalues --   -0.75298  -0.72864  -0.72620  -0.71949  -0.71671
 Alpha  occ. eigenvalues --   -0.69430  -0.69167  -0.69097  -0.68624  -0.67740
 Alpha  occ. eigenvalues --   -0.67696  -0.67562  -0.67038  -0.65832  -0.65596
 Alpha  occ. eigenvalues --   -0.65401  -0.65075  -0.64875  -0.64448  -0.64052
 Alpha  occ. eigenvalues --   -0.63930  -0.62622  -0.61930  -0.60716  -0.60409
 Alpha  occ. eigenvalues --   -0.59837  -0.59643  -0.59295  -0.58946  -0.58867
 Alpha  occ. eigenvalues --   -0.58624  -0.57974  -0.57424  -0.57190  -0.57024
 Alpha  occ. eigenvalues --   -0.56789  -0.56296  -0.55646  -0.55632  -0.55130
 Alpha  occ. eigenvalues --   -0.54811  -0.54526  -0.54357  -0.54179  -0.53967
 Alpha  occ. eigenvalues --   -0.53810  -0.53728  -0.53576  -0.53387  -0.53325
 Alpha  occ. eigenvalues --   -0.52917  -0.52786  -0.52560  -0.52510  -0.52152
 Alpha  occ. eigenvalues --   -0.52017  -0.51768  -0.51669  -0.51465  -0.51174
 Alpha  occ. eigenvalues --   -0.51101  -0.51047  -0.50692  -0.50646  -0.50468
 Alpha  occ. eigenvalues --   -0.49955  -0.49916  -0.49885  -0.49776  -0.49679
 Alpha  occ. eigenvalues --   -0.49543  -0.49353  -0.49149  -0.49028  -0.48980
 Alpha  occ. eigenvalues --   -0.48955  -0.48665  -0.48556  -0.48416  -0.48186
 Alpha  occ. eigenvalues --   -0.48153  -0.47987  -0.47780  -0.47763  -0.47644
 Alpha  occ. eigenvalues --   -0.47302  -0.47287  -0.46774  -0.46759  -0.46552
 Alpha  occ. eigenvalues --   -0.46369  -0.46169  -0.46127  -0.45955  -0.45928
 Alpha  occ. eigenvalues --   -0.45394  -0.44995  -0.44970  -0.44712  -0.44683
 Alpha  occ. eigenvalues --   -0.44505  -0.44498  -0.44393  -0.44357  -0.44141
 Alpha  occ. eigenvalues --   -0.44116  -0.43995  -0.43849  -0.43828  -0.43617
 Alpha  occ. eigenvalues --   -0.43580  -0.43215  -0.42908  -0.42745  -0.42587
 Alpha  occ. eigenvalues --   -0.42478  -0.42332  -0.42194  -0.42087  -0.42005
 Alpha  occ. eigenvalues --   -0.41974  -0.41959  -0.41824  -0.41516  -0.41516
 Alpha  occ. eigenvalues --   -0.41374  -0.41083  -0.40826  -0.40413  -0.40290
 Alpha  occ. eigenvalues --   -0.40239  -0.39986  -0.39334  -0.39265  -0.39077
 Alpha  occ. eigenvalues --   -0.38883  -0.38254  -0.37887  -0.37855  -0.37548
 Alpha  occ. eigenvalues --   -0.37191  -0.37039  -0.36667  -0.36362  -0.36192
 Alpha  occ. eigenvalues --   -0.35944  -0.35390  -0.34504  -0.34274  -0.33990
 Alpha  occ. eigenvalues --   -0.33883  -0.33346  -0.33221  -0.31954  -0.31774
 Alpha  occ. eigenvalues --   -0.31423  -0.31095  -0.31063  -0.30578  -0.30179
 Alpha  occ. eigenvalues --   -0.29957  -0.29656  -0.28765  -0.24492  -0.23901
 Alpha  occ. eigenvalues --   -0.21480  -0.21093
 Alpha virt. eigenvalues --   -0.08812  -0.08540  -0.02724  -0.01759  -0.00387
 Alpha virt. eigenvalues --    0.00561   0.00588   0.01907   0.02146   0.02563
 Alpha virt. eigenvalues --    0.04356   0.04796   0.04913   0.05457   0.05690

 Mulliken charges:
               1
     1  Mg   0.834460
     2  C   -0.008387
     3  C   -0.051073
     4  C   -0.074882
     5  C   -0.087906
     6  N   -0.224636
     7  C   -0.070911
     8  C    0.059352
     9  C   -0.071619
    10  C   -0.036594
    11  C    0.062112
    12  C    0.059736
    13  C   -0.072179
    14  H    0.007728
    15  N   -0.409454
    16  C    0.147842
    17  C   -0.174478
    18  C   -0.015341
    19  C    0.192166
    20  C    0.144593
    21  C   -0.033272
    22  O   -0.215700
    23  C    0.089244
    24  N   -0.319224
    25  C    0.023080
    26  C   -0.073009
    27  C   -0.047447
    28  C    0.019178
    29  C    0.084298
    30  C    0.042799
    31  C    0.012939
    32  N   -0.344568
    33  C    0.143219
    34  C   -0.151042
    35  C    0.030882
    36  C    0.129274
    37  C    0.139482
    38  C   -0.006516
    39  O   -0.179824
    40  C   -0.020527
    41  C    0.217722
    42  O   -0.226418
    43  O   -0.390000
    44  C    0.179641
    45  H   -0.026337
    46  H   -0.046909
    47  H   -0.027793
    48  H    0.012216
    49  H    0.017816
    50  H    0.026285
    51  H    0.015286
    52  H    0.028893
    53  H    0.025177
    54  H    0.019050
    55  H    0.034371
    56  H    0.030250
    57  H    0.044826
    58  H    0.045437
    59  H    0.008977
    60  H    0.054026
    61  H    0.041935
    62  H    0.028083
    63  H    0.008474
    64  H   -0.003897
    65  H    0.016886
    66  H    0.020080
    67  H    0.021285
    68  H    0.004884
    69  H    0.011213
    70  H   -0.004500
    71  H    0.017487
    72  H    0.028232
    73  H    0.012466
    74  H    0.025044
    75  H    0.037631
    76  H    0.040526
    77  H    0.031532
    78  H    0.052762
    79  H    0.033563
    80  Mg   0.832094
    81  C   -0.058920
    82  C   -0.068388
    83  C   -0.048461
    84  C   -0.064207
    85  N   -0.282665
    86  C   -0.070750
    87  C    0.037199
    88  C   -0.103340
    89  C    0.096659
    90  C    0.074351
    91  C    0.030385
    92  C   -0.078901
    93  H   -0.000472
    94  N   -0.351750
    95  C    0.093674
    96  C   -0.163050
    97  C   -0.023570
    98  C    0.114226
    99  C    0.115765
   100  C    0.042802
   101  O   -0.195747
   102  C    0.027068
   103  N   -0.202729
   104  C   -0.029763
   105  C   -0.063761
   106  C   -0.010489
   107  C   -0.014946
   108  C    0.083989
   109  C    0.049327
   110  C   -0.014700
   111  N   -0.364374
   112  C    0.117903
   113  C   -0.165063
   114  C   -0.033239
   115  C    0.166903
   116  C    0.154755
   117  C    0.031411
   118  O   -0.204155
   119  C    0.011460
   120  C    0.227310
   121  O   -0.237198
   122  O   -0.334641
   123  C    0.179444
   124  H   -0.045386
   125  H    0.005819
   126  H   -0.021663
   127  H    0.012732
   128  H    0.012079
   129  H    0.012184
   130  H    0.020274
   131  H    0.026674
   132  H    0.007758
   133  H    0.051194
   134  H    0.027695
   135  H    0.042485
   136  H    0.007543
   137  H    0.029959
   138  H    0.019396
   139  H    0.028809
   140  H    0.042001
   141  H    0.025832
   142  H    0.012607
   143  H   -0.000592
   144  H    0.024226
   145  H    0.022913
   146  H    0.008028
   147  H    0.006252
   148  H    0.012166
   149  H    0.013267
   150  H    0.012261
   151  H    0.019501
   152  H   -0.002872
   153  H    0.041546
   154  H    0.058654
   155  H    0.040259
   156  H    0.041157
   157  H    0.045318
   158  H    0.038475
 Sum of Mulliken charges =  -0.00000

 Dipole moment (field-independent basis, Debye):
    X=             -8.3674    Y=              0.1391    Z=             -0.9261  Tot=              8.4196
 Quadrupole moment (field-independent basis, Debye-Ang):
   XX=           -463.9205   YY=           -572.7557   ZZ=           -482.4796
   XY=            157.6678   XZ=             28.3865   YZ=              6.9910

 Normal termination of Gaussian 16 at Thu Sep 16 03:13:46 2021.
