 Gaussian 16, Revision A.03,
 Gaussian 16:  ES64L-G16RevA.03 25-Dec-2016

 ----------------------------------------------------------
 #p cam-b3lyp/Def2SVP td=(nstates=5) density=(transition=1)
 ----------------------------------------------------------

 --------------------------------
 TDDFT excited states in gaussian
 --------------------------------
 Symbolic Z-matrix:
 Charge =  0 Multiplicity = 1

                         Standard orientation:
 ---------------------------------------------------------------------
 Center     Atomic      Atomic             Coordinates (Angstroms)
 Number     Number       Type             X           Y           Z
 ---------------------------------------------------------------------
      1         12           0      -17.089156    0.586067    0.368547
      2          6           0      -15.997871   -2.349424   -1.135410
      3          6           0      -18.194568   -1.405107    2.984454
      4          6           0      -18.613567    3.356710    1.619926
      5          6           0      -16.067138    2.358396   -2.418965
      6          7           0      -17.140092   -1.634311    0.833892
      7          6           0      -16.597390   -2.669009    0.087240
      8          6           0      -16.857339   -4.101427    0.699186
      9          6           0      -17.854698   -3.719717    1.860757
     10          6           0      -17.772069   -2.149056    1.893043
     11          6           0      -19.326225   -4.140988    1.809331
     12          6           0      -15.534849   -4.765350    1.124456
     13          6           0      -15.035604   -5.905501    0.276537
     14          1           0      -14.349935   -7.069575    1.013664
     15          7           0      -18.077206    1.013967    2.140351
     16          6           0      -18.337627    0.060835    3.074909
     17          6           0      -19.067289    0.756810    4.152686
     18          6           0      -19.294429    2.085058    3.759808
     19          6           0      -18.669714    2.232808    2.502930
     20          6           0      -19.337776    0.088867    5.439572
     21          6           0      -20.058365    3.179637    4.445546
     22          8           0      -20.091639    4.371000    4.029425
     23          6           0      -20.852618    2.984416    5.617518
     24          7           0      -17.237712    2.540163   -0.243246
     25          6           0      -17.890038    3.515828    0.446026
     26          6           0      -17.866298    4.832315   -0.225503
     27          6           0      -16.996948    4.550997   -1.503359
     28          6           0      -16.816126    3.082602   -1.408822
     29          6           0      -19.154054    5.628340   -0.589591
     30          6           0      -15.662022    5.437539   -1.639202
     31          6           0      -14.316885    5.060237   -0.950444
     32          7           0      -16.253466    0.168598   -1.439111
     33          6           0      -15.857588    0.986788   -2.457728
     34          6           0      -15.113233    0.264352   -3.394336
     35          6           0      -15.236220   -1.099417   -2.923395
     36          6           0      -15.913809   -1.084311   -1.720551
     37          6           0      -14.354052    0.799156   -4.607209
     38          6           0      -14.761797   -2.424462   -3.202084
     39          8           0      -14.005517   -2.904769   -4.021651
     40          6           0      -15.459485   -3.339578   -2.135586
     41          6           0      -16.522499   -4.137931   -2.777687
     42          8           0      -17.753319   -4.029785   -2.583676
     43          8           0      -16.077350   -5.045416   -3.674000
     44          6           0      -17.023110   -6.078530   -4.218528
     45          1           0      -18.596571   -2.043253    3.773342
     46          1           0      -19.111734    4.271085    1.949435
     47          1           0      -15.566839    2.867252   -3.246141
     48          1           0      -17.532919   -4.694993    0.082364
     49          1           0      -17.400029   -4.108540    2.771854
     50          1           0      -19.961712   -3.268823    1.653933
     51          1           0      -19.587919   -4.443225    2.822296
     52          1           0      -19.570348   -4.909747    1.075364
     53          1           0      -15.738001   -5.192908    2.107003
     54          1           0      -14.790662   -3.980796    1.261422
     55          1           0      -14.313049   -5.494216   -0.428837
     56          1           0      -15.779200   -6.372616   -0.369347
     57          1           0      -18.791654    0.676079    6.176707
     58          1           0      -19.078205   -0.962828    5.567360
     59          1           0      -20.401319    0.156478    5.668354
     60          1           0      -21.413582    2.068767    5.432265
     61          1           0      -21.377949    3.899896    5.886514
     62          1           0      -20.233166    2.704903    6.469760
     63          1           0      -17.304586    5.394124    0.520217
     64          1           0      -17.602775    4.716351   -2.393498
     65          1           0      -19.235212    6.556604   -0.023977
     66          1           0      -20.051458    5.058194   -0.347004
     67          1           0      -19.246936    5.838318   -1.655073
     68          1           0      -15.970472    6.378239   -1.182588
     69          1           0      -15.600809    5.535464   -2.723172
     70          1           0      -14.286446    4.070926   -0.494625
     71          1           0      -13.887826    5.815362   -0.291200
     72          1           0      -13.600729    5.079529   -1.770887
     73          1           0      -14.680474    0.325282   -5.533541
     74          1           0      -13.306912    0.522759   -4.484980
     75          1           0      -14.358918    1.885279   -4.702640
     76          1           0      -14.735269   -4.097841   -1.837351
     77          1           0      -16.264078   -6.742562   -4.632328
     78          1           0      -17.728042   -5.712597   -4.964306
     79          1           0      -17.590996   -6.523800   -3.401031
     80         12           0       16.560910    0.735789    0.176302
     81          6           0       18.437336   -2.080403    1.358542
     82          6           0       14.197553   -1.316141   -0.816526
     83          6           0       15.397237    3.321764   -1.539226
     84          6           0       19.516567    2.745945    1.043542
     85          7           0       16.337331   -1.447788    0.311529
     86          6           0       17.220528   -2.432562    0.797046
     87          6           0       16.669565   -3.902490    0.663303
     88          6           0       15.210133   -3.540723   -0.015530
     89          6           0       15.199907   -2.025038   -0.187569
     90          6           0       14.998938   -4.265781   -1.413437
     91          6           0       16.616900   -4.736109    1.990805
     92          6           0       15.727052   -5.973028    1.961569
     93          1           0       16.481245   -7.310340    2.077200
     94          7           0       14.946953    0.986747   -0.937969
     95          6           0       14.003524    0.041977   -1.267002
     96          6           0       12.923539    0.592650   -2.058353
     97          6           0       13.303986    1.980389   -2.245609
     98          6           0       14.589389    2.153909   -1.479691
     99          6           0       11.713759   -0.096401   -2.484987
    100          6           0       12.587504    3.098030   -2.983451
    101          8           0       12.940057    4.244034   -2.973566
    102          6           0       11.421577    2.650553   -3.824479
    103          7           0       17.378944    2.740437   -0.250708
    104          6           0       16.642277    3.620213   -0.974875
    105          6           0       17.332389    5.009375   -1.030431
    106          6           0       18.566143    4.808783   -0.083253
    107          6           0       18.470558    3.348506    0.314795
    108          6           0       17.740496    5.577085   -2.432483
    109          6           0       18.615520    5.723129    1.191406
    110          6           0       19.071131    7.168199    0.890746
    111          7           0       18.555236    0.475451    0.986029
    112          6           0       19.560138    1.346925    1.337754
    113          6           0       20.577310    0.630502    1.998723
    114          6           0       20.253414   -0.674347    1.996672
    115          6           0       18.989976   -0.772770    1.338768
    116          6           0       21.762050    1.346721    2.633827
    117          6           0       20.625141   -2.057172    2.312725
    118          8           0       21.617155   -2.502620    2.829540
    119          6           0       19.426913   -3.024501    1.868388
    120          6           0       19.919219   -3.837622    0.713905
    121          8           0       19.936402   -3.620493   -0.476724
    122          8           0       20.356089   -5.018723    1.280271
    123          6           0       20.890589   -6.049924    0.359304
    124          1           0       13.386358   -1.920353   -1.227753
    125          1           0       15.041209    4.081138   -2.239578
    126          1           0       20.257457    3.494893    1.332758
    127          1           0       17.248209   -4.402156   -0.113794
    128          1           0       14.431051   -3.911358    0.651033
    129          1           0       13.990577   -4.677009   -1.457702
    130          1           0       15.704647   -5.036326   -1.722668
    131          1           0       14.982684   -3.532597   -2.219250
    132          1           0       16.306167   -3.955193    2.686085
    133          1           0       17.556948   -5.061176    2.437151
    134          1           0       15.167100   -5.985535    1.026900
    135          1           0       15.111650   -5.979373    2.860778
    136          1           0       10.978850    0.469582   -1.912604
    137          1           0       11.762270   -1.159512   -2.248813
    138          1           0       11.429618   -0.029549   -3.534979
    139          1           0       10.503257    2.742829   -3.244743
    140          1           0       11.641515    1.787593   -4.453661
    141          1           0       11.476535    3.316075   -4.685507
    142          1           0       16.700955    5.660078   -0.424737
    143          1           0       19.478678    4.848296   -0.678493
    144          1           0       18.798775    5.797516   -2.575298
    145          1           0       17.287255    6.566979   -2.480312
    146          1           0       17.452129    4.964689   -3.286827
    147          1           0       19.328543    5.308973    1.903389
    148          1           0       17.613732    5.660278    1.618614
    149          1           0       19.629213    7.204358   -0.045050
    150          1           0       19.655966    7.480405    1.755880
    151          1           0       18.252555    7.871414    0.734486
    152          1           0       22.172700    0.770552    3.463054
    153          1           0       21.442354    2.339824    2.949652
    154          1           0       22.521890    1.562459    1.882366
    155          1           0       19.082371   -3.646164    2.695123
    156          1           0       21.749851   -6.480628    0.873218
    157          1           0       21.198610   -5.667080   -0.613544
    158          1           0       20.028077   -6.716234    0.325124
 ---------------------------------------------------------------------

 SCF Done:  E(RCAM-B3LYP) =  -4069.82394998     A.U. after   19 cycles

 Excitation energies and oscillator strengths:

 Excited State   1:      Singlet-A      1.6971 eV  730.58 nm  f=0.4043  <S**2>=0.000
     310 -> 316       -0.17467
     311 -> 313       -0.12570
     312 -> 314        0.67473
     310 <- 316       -0.10582
 This state for optimization and/or second-order correction.
 Total Energy, E(TD-HF/TD-DFT) =  -4069.76158437
 Copying the excited state density for this state as the 1-particle RhoCI density.

 Excited State   2:      Singlet-A      1.7037 eV  727.74 nm  f=0.3806  <S**2>=0.000
     309 -> 315        0.17429
     311 -> 313        0.67313
     312 -> 314        0.12585
     309 <- 315        0.10573

 Excited State   3:      Singlet-A      2.2075 eV  561.65 nm  f=0.1223  <S**2>=0.000
     309 -> 313        0.64955
     311 -> 315       -0.26045

 Excited State   4:      Singlet-A      2.2114 eV  560.65 nm  f=0.1568  <S**2>=0.000
     310 -> 314        0.64926
     312 -> 316        0.26449

 Excited State   5:      Singlet-A      3.0528 eV  406.13 nm  f=0.0000  <S**2>=0.000
     312 -> 313        0.70710

 The electronic state is 1-A.
 Alpha  occ. eigenvalues --  -46.88559 -46.87564 -19.24101 -19.23831 -19.19911
 Alpha  occ. eigenvalues --  -19.19098 -19.18935 -19.18295 -19.18261 -19.17983
 Alpha  occ. eigenvalues --  -14.42178 -14.42036 -14.41895 -14.41309 -14.39615
 Alpha  occ. eigenvalues --  -14.39566 -14.38837 -14.38393 -10.38964 -10.38575
 Alpha  occ. eigenvalues --  -10.35256 -10.34756 -10.34548 -10.34215 -10.32050
 Alpha  occ. eigenvalues --  -10.31193 -10.30992 -10.30899 -10.30854 -10.30837
 Alpha  occ. eigenvalues --  -10.30628 -10.30502 -10.30357 -10.30177 -10.30157
 Alpha  occ. eigenvalues --  -10.30094 -10.30092 -10.30058 -10.29368 -10.29077
 Alpha  occ. eigenvalues --  -10.28945 -10.28894 -10.28846 -10.28750 -10.28590
 Alpha  occ. eigenvalues --  -10.28475 -10.28399 -10.28327 -10.28184 -10.27872
 Alpha  occ. eigenvalues --  -10.27765 -10.27738 -10.27699 -10.27657 -10.27409
 Alpha  occ. eigenvalues --  -10.27290 -10.27286 -10.27175 -10.27172 -10.27123
 Alpha  occ. eigenvalues --  -10.26979 -10.26944 -10.26930 -10.26914 -10.26811
 Alpha  occ. eigenvalues --  -10.26782 -10.26767 -10.26755 -10.26740 -10.26729
 Alpha  occ. eigenvalues --  -10.26728 -10.26696 -10.26351 -10.26140 -10.26032
 Alpha  occ. eigenvalues --  -10.25943 -10.25923 -10.25871 -10.25753 -10.25696
 Alpha  occ. eigenvalues --  -10.25694 -10.25589 -10.25556 -10.25537 -10.24695
 Alpha  occ. eigenvalues --  -10.24644  -3.17102  -3.16279  -1.91998  -1.91538
 Alpha  occ. eigenvalues --   -1.91426  -1.91189  -1.90738  -1.90583  -1.15694
 Alpha  occ. eigenvalues --   -1.15170  -1.11353  -1.10780  -1.09563  -1.07981
 Alpha  occ. eigenvalues --   -1.07455  -1.05165  -1.04873  -1.04119  -1.03796
 Alpha  occ. eigenvalues --   -1.03285  -1.03272  -1.02492  -1.02261  -1.01580
 Alpha  occ. eigenvalues --   -0.93116  -0.93003  -0.89071  -0.88919  -0.88480
 Alpha  occ. eigenvalues --   -0.88330  -0.88237  -0.88110  -0.87608  -0.87135
 Alpha  occ. eigenvalues --   -0.87041  -0.86834  -0.86131  -0.86010  -0.84413
 Alpha  occ. eigenvalues --   -0.83883  -0.83679  -0.83181  -0.82838  -0.82494
 Alpha  occ. eigenvalues --   -0.82166  -0.82035  -0.81020  -0.80698  -0.80578
 Alpha  occ. eigenvalues --   -0.80065  -0.78588  -0.78100  -0.77541  -0.76964
 Alpha  occ. eigenvalues --   -0.76902  -0.76631  -0.76243  -0.75532  -0.75327
 Alpha  occ. eigenvalues --   -0.74807  -0.73145  -0.72759  -0.71366  -0.71310
 Alpha  occ. eigenvalues --   -0.70137  -0.69632  -0.68809  -0.68740  -0.68036
 Alpha  occ. eigenvalues --   -0.67710  -0.67132  -0.66944  -0.65232  -0.65120
 Alpha  occ. eigenvalues --   -0.65033  -0.64644  -0.64597  -0.64402  -0.64398
 Alpha  occ. eigenvalues --   -0.63878  -0.61525  -0.61449  -0.60067  -0.59991
 Alpha  occ. eigenvalues --   -0.59678  -0.59462  -0.59182  -0.58808  -0.58626
 Alpha  occ. eigenvalues --   -0.58321  -0.57831  -0.57829  -0.57337  -0.56861
 Alpha  occ. eigenvalues --   -0.56201  -0.56117  -0.55758  -0.55669  -0.54988
 Alpha  occ. eigenvalues --   -0.54927  -0.54475  -0.54454  -0.54268  -0.54116
 Alpha  occ. eigenvalues --   -0.53862  -0.53648  -0.53280  -0.52941  -0.52646
 Alpha  occ. eigenvalues --   -0.52560  -0.52471  -0.52366  -0.52107  -0.51936
 Alpha  occ. eigenvalues --   -0.51918  -0.51610  -0.51324  -0.51105  -0.50984
 Alpha  occ. eigenvalues --   -0.50871  -0.50530  -0.50383  -0.50197  -0.50179
 Alpha  occ. eigenvalues --   -0.49793  -0.49789  -0.49668  -0.49662  -0.49471
 Alpha  occ. eigenvalues --   -0.49457  -0.49143  -0.48973  -0.48837  -0.48817
 Alpha  occ. eigenvalues --   -0.48511  -0.48394  -0.48218  -0.47962  -0.47956
 Alpha  occ. eigenvalues --   -0.47800  -0.47797  -0.47736  -0.47259  -0.47042
 Alpha  occ. eigenvalues --   -0.46786  -0.46744  -0.46528  -0.46327  -0.46282
 Alpha  occ. eigenvalues --   -0.46024  -0.45881  -0.45737  -0.45732  -0.45435
 Alpha  occ. eigenvalues --   -0.45433  -0.45298  -0.45289  -0.45204  -0.45164
 Alpha  occ. eigenvalues --   -0.45029  -0.44835  -0.44833  -0.44706  -0.44282
 Alpha  occ. eigenvalues --   -0.44012  -0.43969  -0.43852  -0.43825  -0.43799
 Alpha  occ. eigenvalues --   -0.43463  -0.43448  -0.43174  -0.42926  -0.42791
 Alpha  occ. eigenvalues --   -0.42748  -0.42538  -0.42486  -0.42059  -0.41804
 Alpha  occ. eigenvalues --   -0.41633  -0.41606  -0.41516  -0.41158  -0.41103
 Alpha  occ. eigenvalues --   -0.40935  -0.40825  -0.40764  -0.40464  -0.40366
 Alpha  occ. eigenvalues --   -0.40009  -0.39735  -0.39330  -0.38957  -0.38776
 Alpha  occ. eigenvalues --   -0.38237  -0.38091  -0.37852  -0.37741  -0.36998
 Alpha  occ. eigenvalues --   -0.36945  -0.36536  -0.36531  -0.36422  -0.36331
 Alpha  occ. eigenvalues --   -0.35722  -0.35637  -0.34627  -0.34339  -0.33926
 Alpha  occ. eigenvalues --   -0.33221  -0.32915  -0.32580  -0.31300  -0.31025
 Alpha  occ. eigenvalues --   -0.30818  -0.30643  -0.30558  -0.30097  -0.30066
 Alpha  occ. eigenvalues --   -0.29928  -0.29729  -0.29352  -0.23673  -0.23577
 Alpha  occ. eigenvalues --   -0.21142  -0.20949
 Alpha virt. eigenvalues --   -0.08721  -0.08521  -0.01340  -0.01118   0.00653
 Alpha virt. eigenvalues --    0.00893   0.02330   0.02477   0.02687   0.03534
 Alpha virt. eigenvalues --    0.04957   0.05009   0.05608   0.05743   0.05863

 Mulliken charges:
               1
     1  Mg  12.000049
     2  C    5.995902
     3  C    6.003661
     4  C    6.004499
     5  C    5.999633
     6  N    6.999156
     7  C    6.005358
     8  C    5.997668
     9  C    6.001157
    10  C    5.994912
    11  C    6.000444
    12  C    5.999136
    13  C    5.999643
    14  H    1.001304
    15  N    7.001637
    16  C    5.991207
    17  C    5.994468
    18  C    5.998826
    19  C    5.992389
    20  C    6.001493
    21  C    5.997702
    22  O    7.995264
    23  C    6.000919
    24  N    7.001770
    25  C    5.992150
    26  C    6.003118
    27  C    5.997290
    28  C    6.006306
    29  C    5.999814
    30  C    5.999191
    31  C    5.999621
    32  N    6.998762
    33  C    6.005779
    34  C    6.005398
    35  C    6.001139
    36  C    6.005894
    37  C    5.999302
    38  C    6.002534
    39  O    8.005573
    40  C    6.000914
    41  C    6.000150
    42  O    8.001742
    43  O    7.999725
    44  C    5.999569
    45  H    0.998040
    46  H    0.998481
    47  H    1.002570
    48  H    1.000811
    49  H    0.999763
    50  H    1.000711
    51  H    1.000065
    52  H    0.997546
    53  H    1.001768
    54  H    1.000191
    55  H    0.999099
    56  H    0.999895
    57  H    0.995812
    58  H    0.995842
    59  H    0.995527
    60  H    0.999318
    61  H    0.997232
    62  H    0.998699
    63  H    0.999996
    64  H    1.000075
    65  H    0.999909
    66  H    1.000424
    67  H    0.997911
    68  H    1.002384
    69  H    0.999749
    70  H    0.999836
    71  H    1.001751
    72  H    0.999851
    73  H    1.003628
    74  H    1.003720
    75  H    1.003393
    76  H    1.001665
    77  H    1.000608
    78  H    1.000473
    79  H    1.001088
    80  Mg  12.000456
    81  C    5.970293
    82  C    6.013078
    83  C    6.021575
    84  C    5.984577
    85  N    6.989867
    86  C    6.034267
    87  C    5.983058
    88  C    6.014881
    89  C    5.970293
    90  C    6.000458
    91  C    5.997775
    92  C    6.001052
    93  H    0.999979
    94  N    7.008237
    95  C    5.953905
    96  C    5.984129
    97  C    5.979590
    98  C    5.966645
    99  C    6.006489
   100  C    5.985339
   101  O    7.970049
   102  C    6.009619
   103  N    7.001566
   104  C    5.964332
   105  C    6.013281
   106  C    5.989379
   107  C    6.032063
   108  C    6.000705
   109  C    5.992882
   110  C    6.001613
   111  N    6.995824
   112  C    6.039292
   113  C    6.027480
   114  C    6.002050
   115  C    6.044817
   116  C    5.998003
   117  C    6.017319
   118  O    8.029897
   119  C    6.007546
   120  C    5.999348
   121  O    8.007857
   122  O    8.000793
   123  C    5.997691
   124  H    0.990630
   125  H    0.995699
   126  H    1.011067
   127  H    1.005522
   128  H    0.995293
   129  H    0.999837
   130  H    0.987780
   131  H    1.006134
   132  H    1.001632
   133  H    0.995254
   134  H    1.007658
   135  H    1.002531
   136  H    0.981785
   137  H    0.980851
   138  H    0.979527
   139  H    0.988762
   140  H    0.992924
   141  H    0.984578
   142  H    0.999396
   143  H    0.999710
   144  H    0.990323
   145  H    0.998953
   146  H    1.004704
   147  H    0.994318
   148  H    1.009453
   149  H    1.003029
   150  H    0.999987
   151  H    1.007383
   152  H    1.015421
   153  H    1.018055
   154  H    1.021711
   155  H    1.008379
   156  H    1.002675
   157  H    1.003307
   158  H    1.006386
 Sum of Mulliken charges = 624.00000

 Dipole moment (field-independent basis, Debye):
    X=             10.4075    Y=             -2.1263    Z=              3.5804  Tot=             11.2097
 Quadrupole moment (field-independent basis, Debye-Ang):
   XX=            279.7367   YY=              2.3024   ZZ=             -3.5443
   XY=            -15.9431   XZ=            117.3693   YZ=              3.9244

 Normal termination of Gaussian 16 at Tue Sep 21 23:41:39 2021.
