 Gaussian 16, Revision A.03,
 Gaussian 16:  ES64L-G16RevA.03 25-Dec-2016

 -----------------------------------
 #p cam-b3lyp/Def2SVP td=(nstates=5)
 -----------------------------------

 --------------------------------
 TDDFT excited states in gaussian
 --------------------------------
 Symbolic Z-matrix:
 Charge =  0 Multiplicity = 1

                         Standard orientation:
 ---------------------------------------------------------------------
 Center     Atomic      Atomic             Coordinates (Angstroms)
 Number     Number       Type             X           Y           Z
 ---------------------------------------------------------------------
      1         12           0        5.368822    0.345552    0.690660
      2          6           0        5.098390   -3.118362   -0.045801
      3          6           0        2.726146   -0.185328    2.981173
      4          6           0        5.255939    3.565259    1.205524
      5          6           0        7.747711    0.641026   -1.829295
      6          7           0        4.027494   -1.483887    1.396027
      7          6           0        4.231703   -2.778129    0.984529
      8          6           0        3.378891   -3.786263    1.735997
      9          6           0        2.529058   -2.775969    2.619928
     10          6           0        3.144370   -1.392698    2.357963
     11          6           0        1.035297   -2.942312    2.356827
     12          6           0        4.264239   -4.739083    2.568954
     13          6           0        3.821475   -6.244787    2.715031
     14          1           0        2.339310   -6.597594    2.447590
     15          7           0        4.211649    1.536059    1.981949
     16          6           0        3.134203    1.130170    2.769903
     17          6           0        2.618722    2.311026    3.480658
     18          6           0        3.428755    3.406183    3.035485
     19          6           0        4.371227    2.816692    2.065296
     20          6           0        1.476420    2.272638    4.347929
     21          6           0        3.345361    4.874783    3.439237
     22          8           0        4.057642    5.730577    2.890584
     23          6           0        2.546120    5.292274    4.610661
     24          7           0        6.289899    1.901960   -0.262514
     25          6           0        6.155456    3.144579    0.208355
     26          6           0        6.978873    4.161797   -0.646706
     27          6           0        7.900768    3.202470   -1.464468
     28          6           0        7.309380    1.850014   -1.217835
     29          6           0        6.102762    5.160780   -1.485109
     30          6           0        9.324802    3.334612   -0.801233
     31          6           0        9.769610    2.337120    0.323278
     32          7           0        6.340290   -0.939079   -0.601423
     33          6           0        7.291540   -0.650748   -1.596760
     34          6           0        7.602297   -1.908595   -2.320378
     35          6           0        6.730242   -2.844230   -1.776201
     36          6           0        6.007802   -2.288620   -0.741515
     37          6           0        8.402579   -1.879235   -3.532447
     38          6           0        6.254058   -4.208841   -1.988634
     39          8           0        6.606163   -5.003578   -2.852993
     40          6           0        5.132332   -4.454538   -0.873651
     41          6           0        3.833448   -4.818850   -1.490018
     42          8           0        2.919920   -4.046415   -1.765573
     43          8           0        3.798975   -6.210882   -1.696755
     44          6           0        2.674436   -6.851965   -2.339985
     45          1           0        2.099158   -0.296988    3.868677
     46          1           0        5.283883    4.648614    1.342527
     47          1           0        8.530792    0.852801   -2.559913
     48          1           0        2.743785   -4.375658    1.074162
     49          1           0        2.636182   -3.119740    3.648374
     50          1           0        0.432153   -3.142451    3.241719
     51          1           0        0.757541   -3.702276    1.626440
     52          1           0        0.674046   -1.970913    2.016608
     53          1           0        4.407103   -4.352341    3.577902
     54          1           0        5.210418   -4.642584    2.035344
     55          1           0        3.953551   -6.579479    3.743390
     56          1           0        4.591758   -6.816142    2.197057
     57          1           0        1.792791    2.726871    5.287132
     58          1           0        1.008339    1.288838    4.333493
     59          1           0        0.778452    2.878197    3.768934
     60          1           0        1.469858    5.254672    4.439605
     61          1           0        2.770407    6.331969    4.848288
     62          1           0        2.712587    4.559931    5.400112
     63          1           0        7.457695    4.695928    0.174019
     64          1           0        7.984081    3.509785   -2.507229
     65          1           0        5.993866    6.102819   -0.947540
     66          1           0        5.174563    4.640481   -1.719191
     67          1           0        6.648994    5.327018   -2.413450
     68          1           0        9.518432    4.383019   -0.573516
     69          1           0        9.989451    2.965818   -1.583037
     70          1           0       10.240676    2.987054    1.060126
     71          1           0       10.514479    1.616018   -0.015757
     72          1           0        8.970234    1.802431    0.835172
     73          1           0        8.019152   -1.092505   -4.180918
     74          1           0        8.242861   -2.836492   -4.029718
     75          1           0        9.466926   -1.882312   -3.298947
     76          1           0        5.518380   -5.309615   -0.317889
     77          1           0        2.823818   -7.019824   -3.406295
     78          1           0        1.729304   -6.416323   -2.015530
     79          1           0        2.642450   -7.794520   -1.792733
     80         12           0       -4.477021    0.759399   -1.084108
     81          6           0       -7.269882   -1.334679   -0.269018
     82          6           0       -2.485552   -1.819278   -0.676605
     83          6           0       -2.024588    2.988571   -1.055828
     84          6           0       -6.889749    3.535577   -1.101903
     85          7           0       -4.859511   -1.346642   -0.579550
     86          6           0       -6.059117   -2.008166   -0.249585
     87          6           0       -5.870453   -3.534715    0.091284
     88          6           0       -4.239245   -3.622432   -0.139135
     89          6           0       -3.797400   -2.207916   -0.500964
     90          6           0       -3.474101   -4.135691    1.155305
     91          6           0       -6.733769   -4.535397   -0.753274
     92          6           0       -6.274798   -5.988500   -0.731148
     93          1           0       -7.248792   -6.959786   -0.039396
     94          7           0       -2.509743    0.585061   -0.990001
     95          6           0       -1.779425   -0.570571   -0.841457
     96          6           0       -0.352291   -0.328721   -0.866780
     97          6           0       -0.247462    1.112938   -0.994278
     98          6           0       -1.664605    1.614104   -1.091939
     99          6           0        0.704098   -1.330678   -0.844422
    100          6           0        0.983532    1.998162   -1.083228
    101          8           0        0.949929    3.175751   -1.306548
    102          6           0        2.283015    1.301439   -0.778484
    103          7           0       -4.458355    2.965098   -1.015751
    104          6           0       -3.271835    3.622592   -1.046949
    105          6           0       -3.488880    5.156585   -1.141122
    106          6           0       -5.046342    5.266234   -1.288853
    107          6           0       -5.512385    3.827133   -1.180315
    108          6           0       -2.932897    6.054770    0.015918
    109          6           0       -5.571140    5.914427   -2.618385
    110          6           0       -5.452930    7.454524   -2.636667
    111          7           0       -6.589686    1.113169   -0.749048
    112          6           0       -7.398556    2.220212   -0.863906
    113          6           0       -8.741432    1.824824   -0.705372
    114          6           0       -8.770964    0.510687   -0.423038
    115          6           0       -7.413234    0.068723   -0.429078
    116          6           0       -9.884306    2.808521   -0.920116
    117          6           0       -9.553827   -0.674120   -0.057475
    118          8           0      -10.737412   -0.806564    0.119160
    119          6           0       -8.559711   -1.924207    0.076413
    120          6           0       -8.516112   -2.302316    1.522613
    121          8           0       -7.836618   -1.902317    2.440941
    122          8           0       -9.441977   -3.319347    1.645287
    123          6           0       -9.607976   -3.920300    2.990109
    124          1           0       -1.741379   -2.601066   -0.511587
    125          1           0       -1.186392    3.670098   -0.891981
    126          1           0       -7.478394    4.444500   -1.246282
    127          1           0       -6.030736   -3.655640    1.162760
    128          1           0       -4.052186   -4.354492   -0.925102
    129          1           0       -2.725531   -4.872131    0.863483
    130          1           0       -4.051486   -4.535344    1.988547
    131          1           0       -2.859967   -3.337445    1.570999
    132          1           0       -6.683080   -4.045770   -1.726667
    133          1           0       -7.810059   -4.564804   -0.582054
    134          1           0       -5.317876   -6.050726   -0.213715
    135          1           0       -6.264497   -6.364984   -1.753640
    136          1           0        1.116718   -1.172266   -1.840765
    137          1           0        0.298155   -2.326683   -0.666879
    138          1           0        1.517825   -1.201019   -0.131171
    139          1           0        2.733861    0.957521   -1.709280
    140          1           0        2.251674    0.692758    0.125655
    141          1           0        2.854152    2.072537   -0.262231
    142          1           0       -3.159103    5.424864   -2.145245
    143          1           0       -5.454507    5.731453   -0.391320
    144          1           0       -3.663470    6.664943    0.547796
    145          1           0       -2.317469    6.805727   -0.478971
    146          1           0       -2.374231    5.527940    0.789502
    147          1           0       -6.627332    5.677375   -2.741307
    148          1           0       -5.004925    5.422828   -3.410703
    149          1           0       -5.390285    7.843497   -1.620177
    150          1           0       -6.325053    7.812029   -3.183981
    151          1           0       -4.547189    7.827486   -3.115756
    152          1           0      -10.795387    2.293809   -1.225442
    153          1           0       -9.573248    3.551522   -1.654553
    154          1           0      -10.044597    3.405400   -0.021987
    155          1           0       -8.867814   -2.754733   -0.559170
    156          1           0      -10.679124   -4.087000    3.103233
    157          1           0       -9.244811   -3.298200    3.808022
    158          1           0       -9.040321   -4.839324    2.841023
 ---------------------------------------------------------------------

 SCF Done:  E(RCAM-B3LYP) =  -4069.82130719     A.U. after   17 cycles

 Excitation energies and oscillator strengths:

 Excited State   1:      Singlet-A      1.6870 eV  734.93 nm  f=0.5855  <S**2>=0.000
     310 -> 316       -0.16915
     311 -> 313        0.18177
     312 -> 314        0.66213
     310 <- 316       -0.10358
 This state for optimization and/or second-order correction.
 Total Energy, E(TD-HF/TD-DFT) =  -4069.75931036
 Copying the excited state density for this state as the 1-particle RhoCI density.

 Excited State   2:      Singlet-A      1.7486 eV  709.04 nm  f=0.2294  <S**2>=0.000
     309 -> 315       -0.18277
     311 -> 313        0.65640
     312 -> 314       -0.17944
     309 <- 315       -0.10422

 Excited State   3:      Singlet-A      2.2173 eV  559.16 nm  f=0.0972  <S**2>=0.000
     310 -> 314        0.64444
     312 -> 316        0.26692

 Excited State   4:      Singlet-A      2.2683 eV  546.59 nm  f=0.0822  <S**2>=0.000
     309 -> 313        0.61863
     311 -> 315        0.31927

 Excited State   5:      Singlet-A      2.3461 eV  528.47 nm  f=0.0000  <S**2>=0.000
     312 -> 313        0.70482

 The electronic state is 1-A.
 Alpha  occ. eigenvalues --  -46.88925 -46.88360 -19.24614 -19.23773 -19.20660
 Alpha  occ. eigenvalues --  -19.19839 -19.19769 -19.18912 -19.18861 -19.18559
 Alpha  occ. eigenvalues --  -14.42646 -14.42011 -14.41641 -14.41114 -14.40036
 Alpha  occ. eigenvalues --  -14.39377 -14.39345 -14.38634 -10.40179 -10.38886
 Alpha  occ. eigenvalues --  -10.35836 -10.35408 -10.35080 -10.34362 -10.31754
 Alpha  occ. eigenvalues --  -10.31526 -10.31176 -10.31121 -10.30796 -10.30725
 Alpha  occ. eigenvalues --  -10.30705 -10.30704 -10.30698 -10.30667 -10.30217
 Alpha  occ. eigenvalues --  -10.29937 -10.29889 -10.29865 -10.29645 -10.29596
 Alpha  occ. eigenvalues --  -10.29384 -10.29325 -10.29310 -10.28816 -10.28812
 Alpha  occ. eigenvalues --  -10.28739 -10.28683 -10.28505 -10.28364 -10.28224
 Alpha  occ. eigenvalues --  -10.28033 -10.27923 -10.27810 -10.27755 -10.27595
 Alpha  occ. eigenvalues --  -10.27550 -10.27524 -10.27521 -10.27465 -10.27285
 Alpha  occ. eigenvalues --  -10.27245 -10.27080 -10.26793 -10.26746 -10.26675
 Alpha  occ. eigenvalues --  -10.26563 -10.26561 -10.26552 -10.26551 -10.26506
 Alpha  occ. eigenvalues --  -10.26478 -10.26390 -10.26176 -10.25913 -10.25853
 Alpha  occ. eigenvalues --  -10.25681 -10.25680 -10.25676 -10.25480 -10.25450
 Alpha  occ. eigenvalues --  -10.25441 -10.25414 -10.25345 -10.25129 -10.24928
 Alpha  occ. eigenvalues --  -10.24464  -3.17463  -3.16904  -1.92372  -1.91930
 Alpha  occ. eigenvalues --   -1.91801  -1.91750  -1.91340  -1.91227  -1.15629
 Alpha  occ. eigenvalues --   -1.15323  -1.10956  -1.10605  -1.10109  -1.09314
 Alpha  occ. eigenvalues --   -1.07937  -1.07391  -1.05244  -1.04501  -1.03578
 Alpha  occ. eigenvalues --   -1.03424  -1.03050  -1.02311  -1.01798  -1.01400
 Alpha  occ. eigenvalues --   -0.92824  -0.92456  -0.90146  -0.89159  -0.88650
 Alpha  occ. eigenvalues --   -0.88606  -0.88015  -0.87860  -0.87747  -0.87046
 Alpha  occ. eigenvalues --   -0.86858  -0.86645  -0.86576  -0.85789  -0.84547
 Alpha  occ. eigenvalues --   -0.83719  -0.83672  -0.83047  -0.82836  -0.82282
 Alpha  occ. eigenvalues --   -0.82040  -0.81555  -0.81217  -0.80862  -0.80514
 Alpha  occ. eigenvalues --   -0.79872  -0.79174  -0.77521  -0.77370  -0.77291
 Alpha  occ. eigenvalues --   -0.76839  -0.76476  -0.76239  -0.75416  -0.75090
 Alpha  occ. eigenvalues --   -0.74632  -0.72547  -0.72509  -0.71675  -0.71177
 Alpha  occ. eigenvalues --   -0.69499  -0.69462  -0.69341  -0.68597  -0.68241
 Alpha  occ. eigenvalues --   -0.67519  -0.67012  -0.66635  -0.65491  -0.65031
 Alpha  occ. eigenvalues --   -0.64868  -0.64766  -0.64612  -0.64408  -0.64268
 Alpha  occ. eigenvalues --   -0.63705  -0.62033  -0.61322  -0.60586  -0.59846
 Alpha  occ. eigenvalues --   -0.59719  -0.59440  -0.59249  -0.58613  -0.58554
 Alpha  occ. eigenvalues --   -0.58214  -0.58165  -0.57652  -0.57601  -0.56628
 Alpha  occ. eigenvalues --   -0.56554  -0.55903  -0.55869  -0.55795  -0.55546
 Alpha  occ. eigenvalues --   -0.54815  -0.54558  -0.54395  -0.54294  -0.54212
 Alpha  occ. eigenvalues --   -0.54118  -0.53721  -0.53553  -0.53523  -0.53395
 Alpha  occ. eigenvalues --   -0.53285  -0.52541  -0.52422  -0.52236  -0.52192
 Alpha  occ. eigenvalues --   -0.51940  -0.51729  -0.51578  -0.51426  -0.50999
 Alpha  occ. eigenvalues --   -0.50967  -0.50837  -0.50722  -0.50311  -0.50228
 Alpha  occ. eigenvalues --   -0.50085  -0.50032  -0.49860  -0.49639  -0.49511
 Alpha  occ. eigenvalues --   -0.49379  -0.49209  -0.49099  -0.49004  -0.48896
 Alpha  occ. eigenvalues --   -0.48692  -0.48493  -0.48329  -0.48213  -0.47945
 Alpha  occ. eigenvalues --   -0.47801  -0.47634  -0.47604  -0.47377  -0.47177
 Alpha  occ. eigenvalues --   -0.46901  -0.46881  -0.46576  -0.46455  -0.46305
 Alpha  occ. eigenvalues --   -0.46185  -0.45710  -0.45603  -0.45582  -0.45514
 Alpha  occ. eigenvalues --   -0.45186  -0.45170  -0.45009  -0.44890  -0.44794
 Alpha  occ. eigenvalues --   -0.44697  -0.44632  -0.44499  -0.44428  -0.44322
 Alpha  occ. eigenvalues --   -0.44299  -0.43966  -0.43817  -0.43759  -0.43671
 Alpha  occ. eigenvalues --   -0.43479  -0.43427  -0.43143  -0.42981  -0.42938
 Alpha  occ. eigenvalues --   -0.42618  -0.42408  -0.42356  -0.41917  -0.41857
 Alpha  occ. eigenvalues --   -0.41617  -0.41426  -0.41403  -0.41276  -0.41216
 Alpha  occ. eigenvalues --   -0.40782  -0.40708  -0.40606  -0.40483  -0.40330
 Alpha  occ. eigenvalues --   -0.40045  -0.39812  -0.39187  -0.39005  -0.38682
 Alpha  occ. eigenvalues --   -0.38125  -0.37976  -0.37784  -0.37511  -0.37419
 Alpha  occ. eigenvalues --   -0.36966  -0.36856  -0.36760  -0.36460  -0.36154
 Alpha  occ. eigenvalues --   -0.36030  -0.35656  -0.34846  -0.34549  -0.34441
 Alpha  occ. eigenvalues --   -0.33744  -0.33712  -0.32356  -0.31352  -0.31313
 Alpha  occ. eigenvalues --   -0.31258  -0.31037  -0.30619  -0.30393  -0.30278
 Alpha  occ. eigenvalues --   -0.29766  -0.29744  -0.29456  -0.24278  -0.23382
 Alpha  occ. eigenvalues --   -0.21201  -0.20727
 Alpha virt. eigenvalues --   -0.08532  -0.08269  -0.02136  -0.00929  -0.00110
 Alpha virt. eigenvalues --    0.01159   0.01868   0.02678   0.02925   0.03052
 Alpha virt. eigenvalues --    0.04207   0.04642   0.05017   0.05655   0.05964

 Mulliken charges:
               1
     1  Mg   0.770557
     2  C    0.031032
     3  C   -0.101626
     4  C   -0.054595
     5  C   -0.077961
     6  N   -0.205079
     7  C   -0.091695
     8  C   -0.037164
     9  C   -0.027384
    10  C    0.026728
    11  C    0.051665
    12  C    0.035819
    13  C   -0.046024
    14  H    0.026922
    15  N   -0.331739
    16  C    0.123528
    17  C   -0.167632
    18  C   -0.043383
    19  C    0.110712
    20  C    0.140029
    21  C    0.016272
    22  O   -0.218330
    23  C    0.056338
    24  N   -0.334061
    25  C    0.020151
    26  C   -0.061572
    27  C    0.003729
    28  C    0.027178
    29  C    0.090038
    30  C   -0.015245
    31  C    0.014783
    32  N   -0.395008
    33  C    0.152354
    34  C   -0.184473
    35  C    0.030949
    36  C    0.121390
    37  C    0.129634
    38  C    0.040909
    39  O   -0.159620
    40  C   -0.040154
    41  C    0.235695
    42  O   -0.219254
    43  O   -0.360113
    44  C    0.186823
    45  H   -0.012579
    46  H   -0.007921
    47  H   -0.031425
    48  H    0.021557
    49  H    0.003478
    50  H    0.005475
    51  H    0.021616
    52  H    0.012681
    53  H    0.008159
    54  H    0.012346
    55  H    0.022463
    56  H    0.030715
    57  H    0.040484
    58  H    0.016268
    59  H    0.043142
    60  H    0.030218
    61  H    0.037705
    62  H    0.029439
    63  H    0.014777
    64  H    0.009639
    65  H    0.034837
    66  H    0.036272
    67  H    0.007092
    68  H    0.021808
    69  H    0.002451
    70  H    0.011232
    71  H    0.021518
    72  H    0.027192
    73  H    0.037090
    74  H    0.019467
    75  H    0.022909
    76  H    0.046579
    77  H    0.055386
    78  H    0.028044
    79  H    0.023962
    80  Mg   0.838156
    81  C   -0.022843
    82  C   -0.058753
    83  C   -0.061993
    84  C   -0.088958
    85  N   -0.312180
    86  C   -0.054560
    87  C    0.013435
    88  C   -0.069654
    89  C    0.084009
    90  C    0.032186
    91  C    0.022332
    92  C   -0.066629
    93  H    0.012105
    94  N   -0.403780
    95  C    0.089146
    96  C   -0.116306
    97  C   -0.089972
    98  C    0.139016
    99  C    0.141282
   100  C    0.005413
   101  O   -0.173555
   102  C   -0.039500
   103  N   -0.268631
   104  C    0.008152
   105  C    0.022996
   106  C   -0.064037
   107  C   -0.004184
   108  C    0.068902
   109  C    0.013255
   110  C    0.024874
   111  N   -0.315821
   112  C    0.149884
   113  C   -0.227613
   114  C    0.063112
   115  C    0.097800
   116  C    0.138302
   117  C    0.033634
   118  O   -0.137082
   119  C   -0.039754
   120  C    0.217553
   121  O   -0.204575
   122  O   -0.356684
   123  C    0.167360
   124  H   -0.050981
   125  H   -0.002331
   126  H   -0.023200
   127  H    0.023160
   128  H    0.022489
   129  H    0.008825
   130  H    0.027187
   131  H    0.021246
   132  H    0.010080
   133  H    0.036970
   134  H    0.039183
   135  H    0.040429
   136  H    0.041217
   137  H    0.014172
   138  H    0.033001
   139  H    0.074927
   140  H    0.061564
   141  H    0.056352
   142  H    0.012456
   143  H    0.006634
   144  H    0.011573
   145  H    0.018711
   146  H    0.025754
   147  H    0.004761
   148  H    0.008329
   149  H    0.010688
   150  H    0.020041
   151  H    0.015831
   152  H    0.033846
   153  H    0.006979
   154  H    0.020475
   155  H    0.051395
   156  H    0.045444
   157  H    0.055175
   158  H    0.036570
 Sum of Mulliken charges =  -0.00000

 Dipole moment (field-independent basis, Debye):
    X=              2.7628    Y=             -0.9007    Z=              2.8570  Tot=              4.0752
 Quadrupole moment (field-independent basis, Debye-Ang):
   XX=           -556.0749   YY=           -490.9356   ZZ=           -494.6052
   XY=              9.4271   XZ=             16.2837   YZ=            -20.0769

 Normal termination of Gaussian 16 at Wed Sep 15 06:13:55 2021.
