 Gaussian 16, Revision A.03,
 Gaussian 16:  ES64L-G16RevA.03 25-Dec-2016

 -----------------------------------
 #p cam-b3lyp/Def2SVP td=(nstates=5)
 -----------------------------------

 --------------------------------
 TDDFT excited states in gaussian
 --------------------------------
 Symbolic Z-matrix:
 Charge =  0 Multiplicity = 1

                         Standard orientation:
 ---------------------------------------------------------------------
 Center     Atomic      Atomic             Coordinates (Angstroms)
 Number     Number       Type             X           Y           Z
 ---------------------------------------------------------------------
      1         12           0      -27.031715    0.762232    0.109659
      2          6           0      -25.872373   -2.307864    1.319359
      3          6           0      -28.582855   -1.042331   -2.415319
      4          6           0      -27.755215    3.618604   -1.264734
      5          6           0      -25.163968    2.362662    2.657957
      6          7           0      -26.875459   -1.440782   -0.722909
      7          6           0      -26.492272   -2.473103    0.035316
      8          6           0      -26.845743   -3.727091   -0.692161
      9          6           0      -27.318301   -3.261576   -2.091288
     10          6           0      -27.653042   -1.823459   -1.748396
     11          6           0      -26.383524   -3.394759   -3.294789
     12          6           0      -27.950258   -4.542166    0.052527
     13          6           0      -27.729864   -6.070064    0.296520
     14          1           0      -26.872967   -6.887111   -0.720124
     15          7           0      -28.182488    1.234087   -1.562714
     16          6           0      -28.874095    0.314329   -2.339817
     17          6           0      -29.640889    1.069897   -3.276153
     18          6           0      -29.322496    2.469745   -3.055707
     19          6           0      -28.401939    2.519256   -1.929647
     20          6           0      -30.518757    0.457053   -4.389197
     21          6           0      -29.766570    3.729970   -3.852672
     22          8           0      -29.429314    4.842389   -3.597335
     23          6           0      -30.745962    3.488376   -4.984401
     24          7           0      -26.524946    2.683591    0.657642
     25          6           0      -26.903022    3.714649   -0.130621
     26          6           0      -26.440212    5.105168    0.384975
     27          6           0      -25.839544    4.686020    1.795094
     28          6           0      -25.850805    3.162656    1.749537
     29          6           0      -25.392272    5.791327   -0.667469
     30          6           0      -26.552075    5.362851    3.007943
     31          6           0      -27.614297    4.565050    3.742888
     32          7           0      -25.776468    0.211924    1.737218
     33          6           0      -25.177198    0.956915    2.716718
     34          6           0      -24.484313    0.014189    3.663556
     35          6           0      -24.746216   -1.269997    3.134894
     36          6           0      -25.507056   -1.123097    1.928016
     37          6           0      -23.558015    0.361897    4.797075
     38          6           0      -24.520774   -2.701219    3.321553
     39          8           0      -23.876653   -3.258182    4.215127
     40          6           0      -25.369738   -3.393541    2.259476
     41          6           0      -24.454061   -4.372140    1.581575
     42          8           0      -23.619131   -4.086548    0.742921
     43          8           0      -24.618458   -5.519836    2.218597
     44          6           0      -23.592559   -6.540563    2.073066
     45          1           0      -28.950425   -1.586726   -3.287124
     46          1           0      -28.134695    4.584979   -1.602289
     47          1           0      -24.600680    2.857173    3.452464
     48          1           0      -25.956976   -4.354213   -0.754645
     49          1           0      -28.172037   -3.890846   -2.343127
     50          1           0      -25.418132   -3.865699   -3.108640
     51          1           0      -26.193928   -2.415290   -3.734761
     52          1           0      -26.921655   -3.996478   -4.026882
     53          1           0      -28.949020   -4.398443   -0.359157
     54          1           0      -27.938083   -4.013419    1.005516
     55          1           0      -28.743348   -6.473227    0.294640
     56          1           0      -27.288847   -6.203042    1.284078
     57          1           0      -30.286653    0.842288   -5.382132
     58          1           0      -31.568523    0.732579   -4.287134
     59          1           0      -30.496741   -0.632624   -4.433560
     60          1           0      -31.612756    2.903487   -4.676011
     61          1           0      -30.199450    3.029503   -5.808425
     62          1           0      -31.042356    4.434642   -5.436945
     63          1           0      -27.269098    5.801381    0.511606
     64          1           0      -24.810293    5.015902    1.935531
     65          1           0      -24.427839    5.732155   -0.162841
     66          1           0      -25.542287    6.863857   -0.793039
     67          1           0      -25.270438    5.237689   -1.599145
     68          1           0      -27.112058    6.180783    2.554398
     69          1           0      -25.847521    5.786360    3.723434
     70          1           0      -28.193816    4.101457    2.943621
     71          1           0      -28.144450    5.357262    4.270989
     72          1           0      -27.341366    3.721855    4.376902
     73          1           0      -23.278417    1.405298    4.943132
     74          1           0      -22.618255   -0.175221    4.668010
     75          1           0      -24.021993   -0.071321    5.682600
     76          1           0      -26.145815   -4.051057    2.651733
     77          1           0      -22.672769   -6.317909    1.533167
     78          1           0      -24.094971   -7.294112    1.465784
     79          1           0      -23.585610   -7.145188    2.980057
     80         12           0       27.224246    0.594021   -0.023274
     81          6           0       25.131256   -1.812529   -1.557693
     82          6           0       28.787850   -1.929767    1.581376
     83          6           0       29.038524    2.873571    1.470163
     84          6           0       24.960376    3.096719   -1.239515
     85          7           0       26.934142   -1.664994    0.105523
     86          6           0       26.185589   -2.381713   -0.813039
     87          6           0       26.612664   -3.805404   -0.701122
     88          6           0       27.330526   -3.892397    0.646069
     89          6           0       27.758032   -2.413910    0.823316
     90          6           0       26.334696   -4.322505    1.787575
     91          6           0       27.529635   -4.389949   -1.905306
     92          6           0       27.267353   -5.816504   -2.478022
     93          1           0       27.136051   -6.972889   -1.445068
     94          7           0       28.720262    0.445762    1.368489
     95          6           0       29.205946   -0.654032    1.864112
     96          6           0       30.246144   -0.298295    2.844791
     97          6           0       30.511005    1.096550    2.693135
     98          6           0       29.383713    1.549670    1.829686
     99          6           0       31.003206   -1.232971    3.857038
    100          6           0       31.618798    1.988219    3.253123
    101          8           0       31.652655    3.227217    3.127041
    102          6           0       32.588641    1.396217    4.161636
    103          7           0       26.886629    2.734822    0.218836
    104          6           0       27.900427    3.477910    0.817845
    105          6           0       27.636092    5.009904    0.550691
    106          6           0       26.427242    4.998443   -0.417877
    107          6           0       26.077500    3.512928   -0.531130
    108          6           0       27.497757    5.825591    1.836417
    109          6           0       26.619188    5.747921   -1.760360
    110          6           0       25.425023    6.564810   -2.306636
    111          7           0       25.413971    0.685455   -1.142592
    112          6           0       24.589991    1.743642   -1.512717
    113          6           0       23.573675    1.243164   -2.402988
    114          6           0       23.715740   -0.145272   -2.399964
    115          6           0       24.864327   -0.472292   -1.627675
    116          6           0       22.645681    1.997438   -3.137951
    117          6           0       23.211870   -1.411113   -2.952917
    118          8           0       22.312607   -1.674649   -3.735385
    119          6           0       24.147770   -2.551122   -2.433442
    120          6           0       23.271361   -3.562238   -1.715952
    121          8           0       22.825929   -3.628695   -0.592662
    122          8           0       23.151348   -4.543173   -2.657506
    123          6           0       22.644926   -5.864634   -2.216187
    124          1           0       29.360419   -2.739378    2.039542
    125          1           0       29.788291    3.586748    1.818807
    126          1           0       24.399872    3.849404   -1.797038
    127          1           0       25.811679   -4.544829   -0.681256
    128          1           0       28.263573   -4.452613    0.590505
    129          1           0       26.796461   -4.915376    2.576396
    130          1           0       25.553121   -5.000469    1.443759
    131          1           0       25.994248   -3.385915    2.227830
    132          1           0       28.581230   -4.263048   -1.650238
    133          1           0       27.461019   -3.727263   -2.768799
    134          1           0       28.192905   -6.018353   -3.018418
    135          1           0       26.373850   -5.649170   -3.079528
    136          1           0       32.060308   -1.391761    3.645121
    137          1           0       30.487285   -2.193487    3.845934
    138          1           0       31.082513   -0.848763    4.874026
    139          1           0       33.066045    0.526536    3.709377
    140          1           0       32.114171    1.105584    5.099010
    141          1           0       33.411980    2.104727    4.246910
    142          1           0       28.471344    5.354101   -0.059397
    143          1           0       25.530390    5.359660    0.085020
    144          1           0       26.451335    5.831497    2.143263
    145          1           0       27.741423    6.882334    1.731512
    146          1           0       27.955653    5.273578    2.656555
    147          1           0       27.006376    5.124108   -2.565843
    148          1           0       27.447021    6.455348   -1.695981
    149          1           0       24.960475    5.899195   -3.034280
    150          1           0       25.882567    7.391988   -2.850295
    151          1           0       24.752656    6.837843   -1.493787
    152          1           0       21.717666    1.538994   -3.478848
    153          1           0       23.192133    2.434563   -3.974254
    154          1           0       22.317271    2.785081   -2.460782
    155          1           0       24.676681   -3.009325   -3.268945
    156          1           0       23.294483   -6.585676   -2.711618
    157          1           0       21.619325   -6.105363   -2.494843
    158          1           0       22.767254   -5.968762   -1.138409
 ---------------------------------------------------------------------

 SCF Done:  E(RCAM-B3LYP) =  -4069.80274767     A.U. after   17 cycles

 Excitation energies and oscillator strengths:

 Excited State   1:      Singlet-A      1.7293 eV  716.97 nm  f=0.4128  <S**2>=0.000
     310 -> 316        0.18713
     311 -> 313        0.68358
     310 <- 316        0.10972
 This state for optimization and/or second-order correction.
 Total Energy, E(TD-HF/TD-DFT) =  -4069.73919824
 Copying the excited state density for this state as the 1-particle RhoCI density.

 Excited State   2:      Singlet-A      1.7330 eV  715.44 nm  f=0.3697  <S**2>=0.000
     309 -> 315       -0.19052
     312 -> 314        0.68136
     309 <- 315       -0.10755

 Excited State   3:      Singlet-A      2.2139 eV  560.03 nm  f=0.1002  <S**2>=0.000
     310 -> 313        0.64250
     311 -> 316       -0.28231

 Excited State   4:      Singlet-A      2.2617 eV  548.20 nm  f=0.0688  <S**2>=0.000
     309 -> 314        0.62175
     312 -> 315        0.32225

 Excited State   5:      Singlet-A      3.2242 eV  384.54 nm  f=0.0000  <S**2>=0.000
     312 -> 313        0.70711

 The electronic state is 1-A.
 Alpha  occ. eigenvalues --  -46.89361 -46.88779 -19.26246 -19.24349 -19.20021
 Alpha  occ. eigenvalues --  -19.19630 -19.19401 -19.19249 -19.18672 -19.18611
 Alpha  occ. eigenvalues --  -14.41770 -14.41768 -14.41585 -14.41416 -14.39849
 Alpha  occ. eigenvalues --  -14.39302 -14.38946 -14.38726 -10.39223 -10.39140
 Alpha  occ. eigenvalues --  -10.35515 -10.35452 -10.34806 -10.34484 -10.32042
 Alpha  occ. eigenvalues --  -10.31689 -10.31443 -10.31252 -10.31059 -10.30804
 Alpha  occ. eigenvalues --  -10.30777 -10.30741 -10.30628 -10.30332 -10.30033
 Alpha  occ. eigenvalues --  -10.29978 -10.29857 -10.29725 -10.29548 -10.29534
 Alpha  occ. eigenvalues --  -10.29471 -10.29445 -10.29370 -10.29245 -10.28964
 Alpha  occ. eigenvalues --  -10.28363 -10.28268 -10.28203 -10.28194 -10.28039
 Alpha  occ. eigenvalues --  -10.27909 -10.27888 -10.27702 -10.27659 -10.27573
 Alpha  occ. eigenvalues --  -10.27550 -10.27523 -10.27472 -10.27345 -10.27306
 Alpha  occ. eigenvalues --  -10.27173 -10.27135 -10.27110 -10.26999 -10.26682
 Alpha  occ. eigenvalues --  -10.26681 -10.26676 -10.26592 -10.26531 -10.26476
 Alpha  occ. eigenvalues --  -10.26363 -10.26329 -10.26293 -10.26196 -10.26042
 Alpha  occ. eigenvalues --  -10.25933 -10.25892 -10.25795 -10.25782 -10.25703
 Alpha  occ. eigenvalues --  -10.25618 -10.25373 -10.25247 -10.25198 -10.25064
 Alpha  occ. eigenvalues --  -10.24787  -3.17748  -3.17236  -1.92646  -1.92205
 Alpha  occ. eigenvalues --   -1.92144  -1.92040  -1.91726  -1.91496  -1.18322
 Alpha  occ. eigenvalues --   -1.16105  -1.11354  -1.09599  -1.09581  -1.09355
 Alpha  occ. eigenvalues --   -1.08658  -1.07750  -1.05143  -1.05005  -1.03931
 Alpha  occ. eigenvalues --   -1.03764  -1.03045  -1.02589  -1.02060  -1.01850
 Alpha  occ. eigenvalues --   -0.93341  -0.92757  -0.88871  -0.88708  -0.88605
 Alpha  occ. eigenvalues --   -0.88468  -0.88011  -0.87975  -0.87552  -0.87117
 Alpha  occ. eigenvalues --   -0.87086  -0.86875  -0.86224  -0.85522  -0.84431
 Alpha  occ. eigenvalues --   -0.84223  -0.83717  -0.83582  -0.82722  -0.82607
 Alpha  occ. eigenvalues --   -0.82458  -0.81492  -0.81400  -0.80774  -0.80586
 Alpha  occ. eigenvalues --   -0.80013  -0.78377  -0.77897  -0.77440  -0.77329
 Alpha  occ. eigenvalues --   -0.77023  -0.76995  -0.76297  -0.75850  -0.75108
 Alpha  occ. eigenvalues --   -0.75104  -0.72665  -0.72498  -0.71807  -0.71697
 Alpha  occ. eigenvalues --   -0.69516  -0.68887  -0.68882  -0.68743  -0.68032
 Alpha  occ. eigenvalues --   -0.67688  -0.67356  -0.66089  -0.65466  -0.65300
 Alpha  occ. eigenvalues --   -0.65255  -0.65038  -0.64956  -0.64637  -0.64328
 Alpha  occ. eigenvalues --   -0.64318  -0.62796  -0.61928  -0.60472  -0.59840
 Alpha  occ. eigenvalues --   -0.59645  -0.59595  -0.59224  -0.59194  -0.58450
 Alpha  occ. eigenvalues --   -0.58309  -0.58089  -0.57933  -0.57490  -0.57297
 Alpha  occ. eigenvalues --   -0.56854  -0.56143  -0.55993  -0.55887  -0.55193
 Alpha  occ. eigenvalues --   -0.54948  -0.54781  -0.54664  -0.54452  -0.53689
 Alpha  occ. eigenvalues --   -0.53581  -0.53557  -0.53245  -0.53236  -0.53215
 Alpha  occ. eigenvalues --   -0.52939  -0.52927  -0.52509  -0.52418  -0.52111
 Alpha  occ. eigenvalues --   -0.52014  -0.51687  -0.51674  -0.51559  -0.51330
 Alpha  occ. eigenvalues --   -0.51225  -0.51193  -0.51031  -0.50789  -0.50403
 Alpha  occ. eigenvalues --   -0.50119  -0.49967  -0.49669  -0.49598  -0.49391
 Alpha  occ. eigenvalues --   -0.49349  -0.49187  -0.48974  -0.48833  -0.48826
 Alpha  occ. eigenvalues --   -0.48657  -0.48357  -0.48166  -0.48103  -0.47952
 Alpha  occ. eigenvalues --   -0.47651  -0.47380  -0.47290  -0.47122  -0.46884
 Alpha  occ. eigenvalues --   -0.46883  -0.46638  -0.46394  -0.46245  -0.46004
 Alpha  occ. eigenvalues --   -0.45909  -0.45889  -0.45853  -0.45643  -0.45578
 Alpha  occ. eigenvalues --   -0.45539  -0.45342  -0.45021  -0.44991  -0.44917
 Alpha  occ. eigenvalues --   -0.44811  -0.44681  -0.44439  -0.44342  -0.44037
 Alpha  occ. eigenvalues --   -0.43838  -0.43740  -0.43674  -0.43318  -0.43244
 Alpha  occ. eigenvalues --   -0.43050  -0.43008  -0.42956  -0.42932  -0.42711
 Alpha  occ. eigenvalues --   -0.42700  -0.42295  -0.42153  -0.42152  -0.41906
 Alpha  occ. eigenvalues --   -0.41741  -0.41637  -0.41529  -0.41230  -0.41190
 Alpha  occ. eigenvalues --   -0.40989  -0.40857  -0.40711  -0.40542  -0.40264
 Alpha  occ. eigenvalues --   -0.40238  -0.39844  -0.39605  -0.39602  -0.39279
 Alpha  occ. eigenvalues --   -0.38764  -0.38379  -0.37655  -0.37384  -0.37142
 Alpha  occ. eigenvalues --   -0.37092  -0.36704  -0.36515  -0.36439  -0.36379
 Alpha  occ. eigenvalues --   -0.36202  -0.35919  -0.34653  -0.34384  -0.34046
 Alpha  occ. eigenvalues --   -0.33889  -0.33137  -0.33092  -0.31678  -0.31392
 Alpha  occ. eigenvalues --   -0.31161  -0.30764  -0.30549  -0.30452  -0.30366
 Alpha  occ. eigenvalues --   -0.29907  -0.29248  -0.28936  -0.23960  -0.23775
 Alpha  occ. eigenvalues --   -0.21056  -0.20960
 Alpha virt. eigenvalues --   -0.08469  -0.08268  -0.02049  -0.01502  -0.00127
 Alpha virt. eigenvalues --    0.00211   0.01761   0.02329   0.02835   0.02892
 Alpha virt. eigenvalues --    0.05082   0.05205   0.05622   0.05790   0.05914

 Mulliken charges:
               1
     1  Mg   0.807191
     2  C    0.010125
     3  C   -0.042617
     4  C   -0.040206
     5  C   -0.078419
     6  N   -0.217002
     7  C   -0.014060
     8  C   -0.051637
     9  C   -0.035700
    10  C   -0.041058
    11  C    0.091908
    12  C    0.029468
    13  C   -0.055145
    14  H    0.020737
    15  N   -0.403170
    16  C    0.176107
    17  C   -0.142586
    18  C   -0.065080
    19  C    0.100914
    20  C    0.112268
    21  C    0.006140
    22  O   -0.163607
    23  C    0.038893
    24  N   -0.314206
    25  C    0.051125
    26  C   -0.056839
    27  C   -0.004296
    28  C    0.059411
    29  C    0.060123
    30  C    0.013059
    31  C    0.020701
    32  N   -0.344795
    33  C    0.108666
    34  C   -0.166511
    35  C    0.012390
    36  C    0.108758
    37  C    0.113981
    38  C    0.067822
    39  O   -0.178330
    40  C   -0.028031
    41  C    0.157529
    42  O   -0.218689
    43  O   -0.295398
    44  C    0.187431
    45  H   -0.031092
    46  H   -0.001837
    47  H   -0.034046
    48  H    0.016169
    49  H   -0.005349
    50  H    0.024668
    51  H    0.019637
    52  H    0.007994
    53  H    0.014562
    54  H    0.002807
    55  H    0.029671
    56  H    0.038925
    57  H    0.016320
    58  H    0.018553
    59  H    0.011107
    60  H    0.037277
    61  H    0.030752
    62  H    0.013021
    63  H    0.024802
    64  H    0.004432
    65  H   -0.001463
    66  H    0.023653
    67  H    0.037604
    68  H   -0.001795
    69  H    0.004092
    70  H    0.009614
    71  H    0.020951
    72  H    0.019957
    73  H    0.016252
    74  H    0.039049
    75  H    0.036319
    76  H    0.044855
    77  H    0.067437
    78  H    0.009506
    79  H    0.038230
    80  Mg   0.808049
    81  C   -0.037984
    82  C   -0.089794
    83  C   -0.053007
    84  C   -0.086835
    85  N   -0.255078
    86  C    0.011451
    87  C   -0.052158
    88  C   -0.029222
    89  C   -0.033323
    90  C    0.087630
    91  C    0.015892
    92  C   -0.056953
    93  H    0.015486
    94  N   -0.338745
    95  C    0.178086
    96  C   -0.150807
    97  C   -0.029483
    98  C    0.090554
    99  C    0.102823
   100  C    0.020429
   101  O   -0.219869
   102  C    0.059540
   103  N   -0.286777
   104  C    0.009237
   105  C   -0.007533
   106  C   -0.009747
   107  C    0.041949
   108  C    0.096740
   109  C    0.007916
   110  C    0.017124
   111  N   -0.353021
   112  C    0.116912
   113  C   -0.178594
   114  C    0.026952
   115  C    0.138506
   116  C    0.109211
   117  C    0.030103
   118  O   -0.162840
   119  C   -0.011618
   120  C    0.215720
   121  O   -0.195411
   122  O   -0.342978
   123  C    0.168209
   124  H   -0.039321
   125  H   -0.000879
   126  H   -0.036910
   127  H    0.001996
   128  H   -0.005763
   129  H    0.006474
   130  H    0.024723
   131  H    0.035957
   132  H   -0.001573
   133  H   -0.000266
   134  H    0.042172
   135  H    0.049214
   136  H    0.021988
   137  H    0.018331
   138  H    0.019678
   139  H    0.017019
   140  H    0.053765
   141  H    0.028147
   142  H    0.011537
   143  H    0.009130
   144  H   -0.005873
   145  H    0.023805
   146  H    0.026162
   147  H   -0.000020
   148  H   -0.001196
   149  H    0.023410
   150  H    0.015934
   151  H    0.024093
   152  H    0.035016
   153  H    0.030444
   154  H    0.016873
   155  H    0.051177
   156  H    0.029853
   157  H    0.045946
   158  H    0.042214
 Sum of Mulliken charges =  -0.00000

 Dipole moment (field-independent basis, Debye):
    X=              2.1341    Y=             -2.5928    Z=              0.1456  Tot=              3.3613
 Quadrupole moment (field-independent basis, Debye-Ang):
   XX=           -189.3122   YY=           -467.5264   ZZ=           -511.6054
   XY=              9.3964   XZ=              2.0789   YZ=              9.4486

 Normal termination of Gaussian 16 at Thu Sep 16 14:29:48 2021.
