 Gaussian 16, Revision A.03,
 Gaussian 16:  ES64L-G16RevA.03 25-Dec-2016

 ----------------------------------------------------------
 #p cam-b3lyp/Def2SVP td=(nstates=5) density=(transition=1)
 ----------------------------------------------------------

 --------------------------------
 TDDFT excited states in gaussian
 --------------------------------
 Symbolic Z-matrix:
 Charge =  0 Multiplicity = 1

                         Standard orientation:
 ---------------------------------------------------------------------
 Center     Atomic      Atomic             Coordinates (Angstroms)
 Number     Number       Type             X           Y           Z
 ---------------------------------------------------------------------
      1         12           0       -5.036688   -0.150784    1.036078
      2          6           0       -4.486935    3.147524   -0.256944
      3          6           0       -2.931292    0.652385    3.646395
      4          6           0       -5.060967   -3.319700    1.831432
      5          6           0       -6.935617   -0.767264   -1.796670
      6          7           0       -3.587541    1.660157    1.489680
      7          6           0       -3.686176    2.870549    0.858539
      8          6           0       -2.962437    3.954377    1.701700
      9          6           0       -2.399206    3.144319    2.943427
     10          6           0       -2.967448    1.695933    2.717052
     11          6           0       -0.826050    3.090347    3.142077
     12          6           0       -3.852338    5.142914    2.153656
     13          6           0       -3.297244    6.516065    2.018069
     14          1           0       -1.758366    6.821444    1.863836
     15          7           0       -4.101493   -1.253641    2.560747
     16          6           0       -3.373557   -0.746293    3.636714
     17          6           0       -2.927123   -1.870716    4.481383
     18          6           0       -3.656603   -3.026117    4.002922
     19          6           0       -4.306890   -2.572194    2.751701
     20          6           0       -1.982166   -1.782004    5.641298
     21          6           0       -3.764276   -4.463356    4.564698
     22          8           0       -4.648834   -5.288969    4.254517
     23          6           0       -2.858947   -4.830514    5.670885
     24          7           0       -5.811611   -1.746961    0.120177
     25          6           0       -5.612083   -3.001295    0.653646
     26          6           0       -6.496279   -4.061457   -0.059577
     27          6           0       -7.380651   -3.127524   -0.999018
     28          6           0       -6.686865   -1.781134   -0.885773
     29          6           0       -5.774925   -5.238120   -0.835066
     30          6           0       -8.858820   -3.009644   -0.662916
     31          6           0       -9.830282   -3.590158   -1.711885
     32          7           0       -5.773957    0.981008   -0.590064
     33          6           0       -6.511244    0.577920   -1.678212
     34          6           0       -6.670610    1.695156   -2.618244
     35          6           0       -5.935404    2.719374   -2.048311
     36          6           0       -5.408082    2.247542   -0.825526
     37          6           0       -7.380668    1.728182   -3.931270
     38          6           0       -5.583575    4.077355   -2.259985
     39          8           0       -5.944319    4.921470   -3.128810
     40          6           0       -4.663020    4.407239   -1.162477
     41          6           0       -3.385918    4.983129   -1.711806
     42          8           0       -2.559605    4.377203   -2.304001
     43          8           0       -3.284863    6.268195   -1.372895
     44          6           0       -2.328608    7.092160   -2.031046
     45          1           0       -2.268742    0.817859    4.498700
     46          1           0       -5.196032   -4.391391    1.997115
     47          1           0       -7.468747   -0.994515   -2.721308
     48          1           0       -2.158163    4.333168    1.069929
     49          1           0       -2.830041    3.532910    3.865693
     50          1           0       -0.250490    3.746776    2.490042
     51          1           0       -0.511380    2.082063    2.869002
     52          1           0       -0.568076    3.261818    4.187576
     53          1           0       -4.126944    5.089555    3.207796
     54          1           0       -4.788586    5.202907    1.599478
     55          1           0       -3.520224    7.092469    2.916432
     56          1           0       -3.800207    6.984410    1.172483
     57          1           0       -1.162797   -2.485363    5.494511
     58          1           0       -2.550446   -2.084303    6.520948
     59          1           0       -1.713221   -0.748464    5.861827
     60          1           0       -1.838947   -4.777868    5.290061
     61          1           0       -3.068375   -5.879890    5.876955
     62          1           0       -3.083326   -4.280573    6.584439
     63          1           0       -7.139540   -4.471244    0.719788
     64          1           0       -7.300740   -3.533588   -2.007347
     65          1           0       -4.693790   -5.138556   -0.745320
     66          1           0       -6.117875   -5.346364   -1.864745
     67          1           0       -6.099066   -6.170857   -0.373232
     68          1           0       -9.210470   -2.029031   -0.341917
     69          1           0       -9.024477   -3.617778    0.225748
     70          1           0      -10.709273   -2.993615   -1.955217
     71          1           0      -10.325088   -4.438881   -1.238958
     72          1           0       -9.384144   -3.851302   -2.670552
     73          1           0       -8.082498    0.902113   -4.049450
     74          1           0       -6.677351    1.532634   -4.740589
     75          1           0       -7.761737    2.742465   -4.049441
     76          1           0       -5.176758    5.155897   -0.559986
     77          1           0       -2.724800    7.277227   -3.030482
     78          1           0       -1.398064    6.550416   -2.201114
     79          1           0       -2.230141    8.056952   -1.532762
     80         12           0        4.168580   -1.085487   -1.091260
     81          6           0        6.803789    1.080252   -0.137712
     82          6           0        2.083126    1.700777   -0.765356
     83          6           0        1.628827   -2.922850   -2.067624
     84          6           0        6.254050   -3.815790   -0.556297
     85          7           0        4.465970    1.114261   -0.549327
     86          6           0        5.626786    1.797211   -0.346310
     87          6           0        5.482260    3.302405   -0.063638
     88          6           0        3.876162    3.392523   -0.168975
     89          6           0        3.482567    1.982400   -0.495816
     90          6           0        3.161295    3.852577    1.162745
     91          6           0        6.212992    4.195921   -1.118288
     92          6           0        7.437151    5.054247   -0.824184
     93          1           0        7.638905    6.402522   -1.503115
     94          7           0        2.134397   -0.680159   -1.461201
     95          6           0        1.444240    0.512374   -1.200209
     96          6           0        0.042095    0.262551   -1.449489
     97          6           0       -0.099193   -1.016762   -1.981486
     98          6           0        1.262192   -1.581904   -1.906757
     99          6           0       -0.912812    1.401821   -1.339111
    100          6           0       -1.334536   -1.793677   -2.435377
    101          8           0       -1.317869   -2.952251   -2.862102
    102          6           0       -2.610366   -1.049952   -2.495325
    103          7           0        3.901424   -3.094385   -1.197405
    104          6           0        2.829469   -3.653372   -1.836307
    105          6           0        3.127308   -5.135674   -2.245553
    106          6           0        4.516608   -5.376709   -1.669526
    107          6           0        4.914920   -4.020942   -1.022867
    108          6           0        2.016858   -6.142657   -1.800494
    109          6           0        5.468300   -5.828013   -2.787896
    110          6           0        6.392536   -6.958688   -2.515893
    111          7           0        6.093124   -1.386845   -0.380775
    112          6           0        6.824410   -2.539418   -0.242567
    113          6           0        8.155155   -2.263051    0.209574
    114          6           0        8.292196   -0.789096    0.191544
    115          6           0        6.971958   -0.326991   -0.192137
    116          6           0        9.220580   -3.312966    0.568585
    117          6           0        9.173553    0.384812    0.413740
    118          8           0       10.397467    0.440957    0.621701
    119          6           0        8.220628    1.631560    0.196739
    120          6           0        8.351736    2.292017    1.533515
    121          8           0        7.712692    2.077347    2.556408
    122          8           0        9.198732    3.283254    1.479542
    123          6           0        9.604432    3.973226    2.728118
    124          1           0        1.587059    2.673209   -0.774995
    125          1           0        0.868961   -3.653425   -2.351641
    126          1           0        6.913645   -4.680624   -0.462910
    127          1           0        5.805777    3.477485    0.963179
    128          1           0        3.443817    3.994541   -0.968795
    129          1           0        3.747276    3.812603    2.080559
    130          1           0        2.288232    3.227850    1.348086
    131          1           0        2.817858    4.878586    1.029365
    132          1           0        5.469276    4.903125   -1.485865
    133          1           0        6.557972    3.587165   -1.953087
    134          1           0        8.219137    4.432579   -1.260464
    135          1           0        7.408991    5.109047    0.264121
    136          1           0       -1.395138    1.621984   -2.290473
    137          1           0       -0.405801    2.308858   -1.009014
    138          1           0       -1.724003    1.217449   -0.635436
    139          1           0       -2.460814   -0.115210   -3.035839
    140          1           0       -2.922632   -0.678723   -1.519115
    141          1           0       -3.411609   -1.571509   -3.017887
    142          1           0        3.116767   -5.065767   -3.333135
    143          1           0        4.511438   -6.207060   -0.963612
    144          1           0        1.113818   -5.671179   -1.413049
    145          1           0        2.336034   -6.832966   -1.020540
    146          1           0        1.810786   -6.843348   -2.609475
    147          1           0        6.046476   -4.924898   -2.979131
    148          1           0        4.973792   -6.156768   -3.701611
    149          1           0        7.382274   -6.561072   -2.739206
    150          1           0        6.086648   -7.839965   -3.079621
    151          1           0        6.471550   -7.245561   -1.467071
    152          1           0        9.142944   -3.547326    1.629618
    153          1           0       10.198567   -2.907961    0.309006
    154          1           0        9.063546   -4.255404    0.043484
    155          1           0        8.676585    2.239591   -0.584395
    156          1           0        8.780573    4.446623    3.261084
    157          1           0       10.389003    4.717233    2.591670
    158          1           0       10.085306    3.363540    3.492453
 ---------------------------------------------------------------------

 SCF Done:  E(RCAM-B3LYP) =  -4069.80740051     A.U. after   17 cycles

 Excitation energies and oscillator strengths:

 Excited State   1:      Singlet-A      1.7013 eV  728.74 nm  f=0.3186  <S**2>=0.000
     309 -> 315        0.17172
     311 -> 313        0.67919
     312 -> 314       -0.10506
     309 <- 315        0.10463
 This state for optimization and/or second-order correction.
 Total Energy, E(TD-HF/TD-DFT) =  -4069.74487734
 Copying the excited state density for this state as the 1-particle RhoCI density.

 Excited State   2:      Singlet-A      1.7754 eV  698.36 nm  f=0.4752  <S**2>=0.000
     310 -> 316       -0.17892
     311 -> 313        0.10326
     312 -> 314        0.67552
     310 <- 316       -0.10188

 Excited State   3:      Singlet-A      2.1605 eV  573.87 nm  f=0.0007  <S**2>=0.000
     312 -> 313        0.70354

 Excited State   4:      Singlet-A      2.2046 eV  562.38 nm  f=0.0481  <S**2>=0.000
     309 -> 313        0.61545
     310 -> 314        0.20596
     311 -> 315       -0.24787

 Excited State   5:      Singlet-A      2.2354 eV  554.63 nm  f=0.1461  <S**2>=0.000
     309 -> 313       -0.20384
     310 -> 314        0.59921
     312 -> 316        0.28402

 The electronic state is 1-A.
 Alpha  occ. eigenvalues --  -46.89545 -46.88140 -19.25927 -19.25127 -19.20821
 Alpha  occ. eigenvalues --  -19.19617 -19.19008 -19.18911 -19.18538 -19.17988
 Alpha  occ. eigenvalues --  -14.42745 -14.42233 -14.42178 -14.41502 -14.40340
 Alpha  occ. eigenvalues --  -14.40111 -14.39369 -14.38617 -10.40068 -10.38439
 Alpha  occ. eigenvalues --  -10.35376 -10.35324 -10.35315 -10.35116 -10.32321
 Alpha  occ. eigenvalues --  -10.32315 -10.31822 -10.31603 -10.31498 -10.31316
 Alpha  occ. eigenvalues --  -10.31089 -10.31075 -10.30761 -10.30666 -10.30519
 Alpha  occ. eigenvalues --  -10.30340 -10.30202 -10.30142 -10.30106 -10.29914
 Alpha  occ. eigenvalues --  -10.29297 -10.29272 -10.29005 -10.28968 -10.28922
 Alpha  occ. eigenvalues --  -10.28875 -10.28784 -10.28773 -10.28771 -10.28509
 Alpha  occ. eigenvalues --  -10.28431 -10.28362 -10.28336 -10.28220 -10.28121
 Alpha  occ. eigenvalues --  -10.27790 -10.27685 -10.27667 -10.27558 -10.27497
 Alpha  occ. eigenvalues --  -10.27459 -10.27399 -10.27349 -10.27305 -10.27301
 Alpha  occ. eigenvalues --  -10.27273 -10.26955 -10.26688 -10.26660 -10.26495
 Alpha  occ. eigenvalues --  -10.26491 -10.26434 -10.26271 -10.25936 -10.25902
 Alpha  occ. eigenvalues --  -10.25818 -10.25760 -10.25678 -10.25676 -10.25648
 Alpha  occ. eigenvalues --  -10.25616 -10.25400 -10.25337 -10.25295 -10.24957
 Alpha  occ. eigenvalues --  -10.24640  -3.18123  -3.16738  -1.93012  -1.92591
 Alpha  occ. eigenvalues --   -1.92419  -1.91640  -1.91195  -1.91041  -1.19603
 Alpha  occ. eigenvalues --   -1.17611  -1.10745  -1.09513  -1.08699  -1.08657
 Alpha  occ. eigenvalues --   -1.08069  -1.06292  -1.05414  -1.05134  -1.04296
 Alpha  occ. eigenvalues --   -1.03562  -1.03170  -1.02398  -1.02375  -1.00971
 Alpha  occ. eigenvalues --   -0.94229  -0.91509  -0.89582  -0.89200  -0.89163
 Alpha  occ. eigenvalues --   -0.88728  -0.88699  -0.88312  -0.88276  -0.87345
 Alpha  occ. eigenvalues --   -0.87258  -0.86832  -0.86396  -0.85197  -0.84711
 Alpha  occ. eigenvalues --   -0.84033  -0.84012  -0.83200  -0.83063  -0.82618
 Alpha  occ. eigenvalues --   -0.82533  -0.82187  -0.81991  -0.81028  -0.80500
 Alpha  occ. eigenvalues --   -0.80080  -0.78796  -0.78267  -0.77904  -0.77665
 Alpha  occ. eigenvalues --   -0.77184  -0.76811  -0.76647  -0.75911  -0.75646
 Alpha  occ. eigenvalues --   -0.74757  -0.73722  -0.72023  -0.71813  -0.71495
 Alpha  occ. eigenvalues --   -0.69885  -0.69369  -0.68810  -0.68074  -0.67914
 Alpha  occ. eigenvalues --   -0.67285  -0.66729  -0.66472  -0.66336  -0.65613
 Alpha  occ. eigenvalues --   -0.65572  -0.65405  -0.65074  -0.64998  -0.64498
 Alpha  occ. eigenvalues --   -0.63844  -0.63737  -0.62115  -0.60974  -0.60416
 Alpha  occ. eigenvalues --   -0.60249  -0.59872  -0.59807  -0.59147  -0.58715
 Alpha  occ. eigenvalues --   -0.58637  -0.58305  -0.58180  -0.57554  -0.57268
 Alpha  occ. eigenvalues --   -0.57221  -0.56630  -0.56121  -0.56028  -0.55398
 Alpha  occ. eigenvalues --   -0.55353  -0.54633  -0.54259  -0.54033  -0.53996
 Alpha  occ. eigenvalues --   -0.53934  -0.53918  -0.53547  -0.53493  -0.53148
 Alpha  occ. eigenvalues --   -0.53038  -0.52930  -0.52443  -0.52371  -0.52338
 Alpha  occ. eigenvalues --   -0.52090  -0.51977  -0.51856  -0.51838  -0.51570
 Alpha  occ. eigenvalues --   -0.51087  -0.50710  -0.50389  -0.50231  -0.50193
 Alpha  occ. eigenvalues --   -0.49891  -0.49857  -0.49724  -0.49611  -0.49387
 Alpha  occ. eigenvalues --   -0.49315  -0.49289  -0.49039  -0.48827  -0.48793
 Alpha  occ. eigenvalues --   -0.48657  -0.48490  -0.48367  -0.48102  -0.48083
 Alpha  occ. eigenvalues --   -0.47899  -0.47754  -0.47560  -0.47479  -0.47215
 Alpha  occ. eigenvalues --   -0.47166  -0.47007  -0.46739  -0.46656  -0.46597
 Alpha  occ. eigenvalues --   -0.46438  -0.46364  -0.45880  -0.45757  -0.45735
 Alpha  occ. eigenvalues --   -0.45490  -0.45362  -0.45220  -0.45046  -0.45036
 Alpha  occ. eigenvalues --   -0.44970  -0.44907  -0.44626  -0.44298  -0.44212
 Alpha  occ. eigenvalues --   -0.44056  -0.43734  -0.43701  -0.43492  -0.43479
 Alpha  occ. eigenvalues --   -0.43216  -0.43038  -0.42869  -0.42818  -0.42690
 Alpha  occ. eigenvalues --   -0.42603  -0.42436  -0.42083  -0.41960  -0.41921
 Alpha  occ. eigenvalues --   -0.41638  -0.41481  -0.41396  -0.41165  -0.41101
 Alpha  occ. eigenvalues --   -0.40978  -0.40725  -0.40487  -0.40458  -0.40138
 Alpha  occ. eigenvalues --   -0.40053  -0.39851  -0.39714  -0.39550  -0.39258
 Alpha  occ. eigenvalues --   -0.38611  -0.38424  -0.38169  -0.37665  -0.37497
 Alpha  occ. eigenvalues --   -0.37298  -0.36941  -0.36880  -0.36330  -0.36281
 Alpha  occ. eigenvalues --   -0.36173  -0.35693  -0.35599  -0.34747  -0.34099
 Alpha  occ. eigenvalues --   -0.33497  -0.33204  -0.32708  -0.32198  -0.32002
 Alpha  occ. eigenvalues --   -0.31325  -0.31243  -0.31151  -0.31080  -0.30284
 Alpha  occ. eigenvalues --   -0.29968  -0.29922  -0.28347  -0.24721  -0.23546
 Alpha  occ. eigenvalues --   -0.21834  -0.20804
 Alpha virt. eigenvalues --   -0.09526  -0.08033  -0.02066  -0.01492  -0.00741
 Alpha virt. eigenvalues --    0.00250   0.01436   0.01891   0.02478   0.03059
 Alpha virt. eigenvalues --    0.04558   0.05256   0.05419   0.05524   0.05924

 Mulliken charges:
               1
     1  Mg  12.000417
     2  C    5.973512
     3  C    6.011684
     4  C    6.032412
     5  C    5.992235
     6  N    6.995125
     7  C    6.037550
     8  C    5.988831
     9  C    6.006860
    10  C    5.971075
    11  C    6.002763
    12  C    5.997992
    13  C    5.999010
    14  H    1.005457
    15  N    7.006494
    16  C    5.951568
    17  C    5.982010
    18  C    5.983717
    19  C    5.960817
    20  C    6.004767
    21  C    5.984764
    22  O    7.969632
    23  C    6.008318
    24  N    7.008117
    25  C    5.959702
    26  C    6.013675
    27  C    5.990708
    28  C    6.030009
    29  C    5.999301
    30  C    5.990758
    31  C    5.998577
    32  N    6.993225
    33  C    6.039058
    34  C    6.035087
    35  C    6.000567
    36  C    6.038104
    37  C    5.995343
    38  C    6.015384
    39  O    8.029836
    40  C    5.995218
    41  C    6.005234
    42  O    8.006450
    43  O    8.001277
    44  C    5.998330
    45  H    0.989510
    46  H    0.994405
    47  H    1.012985
    48  H    1.000673
    49  H    0.997747
    50  H    0.987340
    51  H    1.004777
    52  H    0.998247
    53  H    1.008972
    54  H    0.992643
    55  H    1.003325
    56  H    0.995045
    57  H    0.980235
    58  H    0.980311
    59  H    0.980933
    60  H    0.991747
    61  H    0.983987
    62  H    0.992376
    63  H    1.000058
    64  H    1.002373
    65  H    1.003308
    66  H    0.989541
    67  H    1.000079
    68  H    0.997956
    69  H    1.014431
    70  H    0.999539
    71  H    1.006610
    72  H    1.000654
    73  H    1.018958
    74  H    1.024329
    75  H    1.015997
    76  H    1.009103
    77  H    0.999539
    78  H    1.005222
    79  H    1.004752
    80  Mg  12.003025
    81  C    5.997129
    82  C    6.004018
    83  C    6.007130
    84  C    5.999477
    85  N    6.998728
    86  C    6.004790
    87  C    5.998036
    88  C    6.001445
    89  C    5.994932
    90  C    6.000260
    91  C    5.999805
    92  C    6.000073
    93  H    0.999613
    94  N    7.001697
    95  C    5.993663
    96  C    6.003044
    97  C    5.996441
    98  C    5.995026
    99  C    5.997987
   100  C    6.004527
   101  O    7.997742
   102  C    5.997776
   103  N    7.002529
   104  C    5.993739
   105  C    6.000462
   106  C    5.998823
   107  C    6.004865
   108  C    5.999711
   109  C    5.999698
   110  C    5.999901
   111  N    6.999862
   112  C    6.005268
   113  C    6.005007
   114  C    6.000368
   115  C    6.005216
   116  C    5.999777
   117  C    6.002850
   118  O    8.004169
   119  C    5.999846
   120  C    6.000061
   121  O    8.002304
   122  O    7.999724
   123  C    5.999400
   124  H    0.994812
   125  H    1.000102
   126  H    1.002125
   127  H    1.000773
   128  H    0.997487
   129  H    0.999430
   130  H    1.004459
   131  H    0.996660
   132  H    1.000179
   133  H    0.999243
   134  H    0.999281
   135  H    1.000568
   136  H    0.988722
   137  H    0.997684
   138  H    0.998393
   139  H    0.991838
   140  H    1.003354
   141  H    0.991149
   142  H    0.998546
   143  H    1.001856
   144  H    1.003724
   145  H    1.000719
   146  H    0.998331
   147  H    0.998702
   148  H    1.001108
   149  H    0.999042
   150  H    1.000838
   151  H    1.000667
   152  H    1.004229
   153  H    1.002032
   154  H    1.002821
   155  H    1.000595
   156  H    1.001251
   157  H    1.000168
   158  H    1.000495
 Sum of Mulliken charges = 624.00000

 Dipole moment (field-independent basis, Debye):
    X=             -2.3649    Y=              5.1223    Z=             -8.1803  Tot=              9.9372
 Quadrupole moment (field-independent basis, Debye-Ang):
   XX=             54.4860   YY=              0.2286   ZZ=            -18.3136
   XY=            -28.5272   XZ=             38.3665   YZ=              6.9014

 Normal termination of Gaussian 16 at Thu Sep 23 07:34:13 2021.
