 Gaussian 16, Revision A.03,
 Gaussian 16:  ES64L-G16RevA.03 25-Dec-2016

 -----------------------------------
 #p cam-b3lyp/Def2SVP td=(nstates=5)
 -----------------------------------

 --------------------------------
 TDDFT excited states in gaussian
 --------------------------------
 Symbolic Z-matrix:
 Charge =  0 Multiplicity = 1

                         Standard orientation:
 ---------------------------------------------------------------------
 Center     Atomic      Atomic             Coordinates (Angstroms)
 Number     Number       Type             X           Y           Z
 ---------------------------------------------------------------------
      1         12           0      -24.164228   -0.674560    0.198835
      2          6           0      -23.110920    2.418815   -1.156145
      3          6           0      -23.736774    0.642946    3.174511
      4          6           0      -24.120798   -3.792043    1.299490
      5          6           0      -23.838263   -1.949178   -3.102296
      6          7           0      -23.644560    1.434502    0.841700
      7          6           0      -23.353396    2.501837    0.191844
      8          6           0      -23.353111    3.730795    1.124128
      9          6           0      -23.077875    3.083338    2.575532
     10          6           0      -23.435182    1.587905    2.189281
     11          6           0      -21.616293    3.241004    3.154416
     12          6           0      -24.800096    4.452677    1.121499
     13          6           0      -24.914270    6.000467    1.307077
     14          1           0      -23.778923    6.684198    2.154634
     15          7           0      -24.166945   -1.463062    2.012999
     16          6           0      -24.034562   -0.694323    3.159587
     17          6           0      -24.099650   -1.611252    4.351751
     18          6           0      -24.252477   -2.938726    3.770094
     19          6           0      -24.186699   -2.858469    2.308357
     20          6           0      -23.957393   -1.076561    5.764296
     21          6           0      -24.451009   -4.240629    4.514662
     22          8           0      -24.533759   -5.353647    3.976940
     23          6           0      -24.595306   -4.201966    5.982029
     24          7           0      -24.103673   -2.667844   -0.808786
     25          6           0      -24.049992   -3.764290   -0.074406
     26          6           0      -24.330952   -5.043457   -0.981736
     27          6           0      -24.201855   -4.376056   -2.456522
     28          6           0      -24.076323   -2.896020   -2.105232
     29          6           0      -23.373897   -6.247170   -0.694142
     30          6           0      -25.356087   -4.629190   -3.481081
     31          6           0      -25.034832   -5.491618   -4.674583
     32          7           0      -23.802903    0.078080   -1.819708
     33          6           0      -23.712501   -0.599665   -3.019240
     34          6           0      -23.304362    0.275883   -4.037086
     35          6           0      -23.017809    1.463030   -3.336829
     36          6           0      -23.289671    1.324865   -1.996266
     37          6           0      -23.129532   -0.004461   -5.444226
     38          6           0      -22.624786    2.796744   -3.579546
     39          8           0      -22.388205    3.499042   -4.599835
     40          6           0      -22.405841    3.401017   -2.120114
     41          6           0      -22.922849    4.791280   -2.055175
     42          8           0      -24.082503    5.173213   -2.198185
     43          8           0      -21.827849    5.629014   -1.673384
     44          6           0      -22.096298    7.067621   -1.552044
     45          1           0      -23.716208    1.161964    4.135502
     46          1           0      -24.168544   -4.813767    1.680233
     47          1           0      -23.817749   -2.333617   -4.124828
     48          1           0      -22.433268    4.280087    0.925151
     49          1           0      -23.687262    3.615183    3.305404
     50          1           0      -20.911801    3.580018    2.395207
     51          1           0      -21.214329    2.287193    3.495684
     52          1           0      -21.694096    3.976838    3.954711
     53          1           0      -25.469971    3.982224    1.841420
     54          1           0      -25.297911    4.200084    0.185085
     55          1           0      -25.845741    6.318666    1.776380
     56          1           0      -24.709919    6.444948    0.332232
     57          1           0      -24.696960   -1.504266    6.442163
     58          1           0      -24.028430    0.009653    5.821242
     59          1           0      -22.925972   -1.200940    6.093224
     60          1           0      -23.723444   -3.745233    6.451229
     61          1           0      -24.730653   -5.212944    6.366468
     62          1           0      -25.469778   -3.669514    6.356062
     63          1           0      -25.359625   -5.395418   -0.904765
     64          1           0      -23.225803   -4.561886   -2.907147
     65          1           0      -22.604111   -5.957401    0.021321
     66          1           0      -23.071163   -6.509116   -1.708166
     67          1           0      -24.002777   -7.076691   -0.373468
     68          1           0      -25.661024   -3.657434   -3.870046
     69          1           0      -26.218375   -5.044909   -2.959413
     70          1           0      -24.047816   -5.886370   -4.437278
     71          1           0      -24.937139   -4.835631   -5.540367
     72          1           0      -25.717689   -6.331067   -4.799484
     73          1           0      -24.052445   -0.471595   -5.786873
     74          1           0      -22.439577   -0.812180   -5.688636
     75          1           0      -22.965503    0.927344   -5.985780
     76          1           0      -21.336539    3.389430   -1.906615
     77          1           0      -21.176750    7.615689   -1.345071
     78          1           0      -22.674359    7.234752   -0.643001
     79          1           0      -22.494565    7.437806   -2.496148
     80         12           0       24.101758   -0.558263    0.190711
     81          6           0       22.008058    2.064010    1.091027
     82          6           0       26.467393    1.775305   -0.664496
     83          6           0       26.095486   -3.133322   -0.953414
     84          6           0       21.481884   -2.831197    0.538000
     85          7           0       24.233820    1.653771    0.311877
     86          6           0       23.326552    2.513793    0.805290
     87          6           0       23.819123    3.973961    0.935344
     88          6           0       25.188894    3.902217    0.133816
     89          6           0       25.325188    2.330189   -0.151553
     90          6           0       25.082563    4.808594   -1.144128
     91          6           0       23.978003    4.280678    2.512345
     92          6           0       23.235140    5.536945    3.055069
     93          1           0       22.872969    6.593814    1.949808
     94          7           0       25.974123   -0.709970   -0.751565
     95          6           0       26.832464    0.393916   -0.934282
     96          6           0       28.134578   -0.092654   -1.337610
     97          6           0       28.040438   -1.483186   -1.476456
     98          6           0       26.668970   -1.866417   -0.974676
     99          6           0       29.224076    0.868066   -1.834792
    100          6           0       29.123617   -2.468280   -1.990466
    101          8           0       28.983005   -3.701814   -2.086534
    102          6           0       30.510381   -1.902780   -2.342216
    103          7           0       23.752946   -2.662603   -0.215570
    104          6           0       24.818134   -3.512453   -0.643069
    105          6           0       24.284609   -4.926836   -0.952403
    106          6           0       22.875171   -4.877702   -0.197387
    107          6           0       22.703277   -3.365823    0.104410
    108          6           0       24.278549   -5.148932   -2.455856
    109          6           0       22.907758   -5.714741    1.150335
    110          6           0       23.969265   -5.551893    2.291069
    111          7           0       22.144356   -0.451094    0.622193
    112          6           0       21.166870   -1.446228    0.718936
    113          6           0       19.931183   -0.848571    1.108836
    114          6           0       20.207272    0.492109    1.307878
    115          6           0       21.543840    0.730097    0.902552
    116          6           0       18.578905   -1.521782    1.225018
    117          6           0       19.638397    1.717900    1.707186
    118          8           0       18.495875    1.932345    1.960449
    119          6           0       20.763610    2.807438    1.465827
    120          6           0       20.262361    3.680582    0.348887
    121          8           0       20.688187    3.641210   -0.786550
    122          8           0       19.275497    4.437012    0.843794
    123          6           0       18.417683    4.981667   -0.179988
    124          1           0       27.256250    2.503395   -0.863403
    125          1           0       26.640097   -3.881336   -1.532204
    126          1           0       20.647475   -3.528872    0.640528
    127          1           0       23.143115    4.728463    0.533507
    128          1           0       26.070135    4.194558    0.705289
    129          1           0       25.487950    4.370891   -2.056675
    130          1           0       25.674695    5.653668   -0.794089
    131          1           0       24.046925    5.142054   -1.205726
    132          1           0       25.044822    4.267997    2.734598
    133          1           0       23.585968    3.409783    3.038227
    134          1           0       23.971665    5.921569    3.759711
    135          1           0       22.316049    5.328236    3.601821
    136          1           0       29.499495    0.544561   -2.838898
    137          1           0       30.118701    0.746114   -1.222680
    138          1           0       28.855539    1.893023   -1.806788
    139          1           0       30.397376   -1.353633   -3.277888
    140          1           0       31.125275   -2.769231   -2.585092
    141          1           0       30.955059   -1.450680   -1.456007
    142          1           0       24.933438   -5.594478   -0.384754
    143          1           0       22.114993   -5.370858   -0.802137
    144          1           0       25.046560   -4.576651   -2.976454
    145          1           0       23.311774   -4.877882   -2.879481
    146          1           0       24.512291   -6.186382   -2.694059
    147          1           0       22.863993   -6.770483    0.882579
    148          1           0       21.989719   -5.396896    1.644647
    149          1           0       24.814128   -6.202728    2.065409
    150          1           0       23.465401   -5.879755    3.201069
    151          1           0       24.268529   -4.530216    2.527163
    152          1           0       18.582177   -2.331521    1.954908
    153          1           0       18.409239   -1.933146    0.230192
    154          1           0       17.777547   -0.905670    1.635263
    155          1           0       21.000246    3.484389    2.286903
    156          1           0       17.385074    5.123867    0.137894
    157          1           0       18.423973    4.593803   -1.198527
    158          1           0       18.686933    5.995641   -0.476519
 ---------------------------------------------------------------------

 SCF Done:  E(RCAM-B3LYP) =  -4069.78222726     A.U. after   19 cycles

 Excitation energies and oscillator strengths:

 Excited State   1:      Singlet-A      1.7043 eV  727.50 nm  f=0.3901  <S**2>=0.000
     310 -> 316       -0.17575
     312 -> 314        0.68647
     310 <- 316       -0.10653
 This state for optimization and/or second-order correction.
 Total Energy, E(TD-HF/TD-DFT) =  -4069.71959718
 Copying the excited state density for this state as the 1-particle RhoCI density.

 Excited State   2:      Singlet-A      1.7997 eV  688.91 nm  f=0.3650  <S**2>=0.000
     309 -> 315       -0.21221
     311 -> 313        0.67496
     309 <- 315       -0.10955

 Excited State   3:      Singlet-A      2.2245 eV  557.36 nm  f=0.0741  <S**2>=0.000
     309 -> 313        0.62894
     311 -> 315        0.30784

 Excited State   4:      Singlet-A      2.2267 eV  556.81 nm  f=0.1334  <S**2>=0.000
     310 -> 314        0.64593
     312 -> 316        0.27542

 Excited State   5:      Singlet-A      3.1640 eV  391.85 nm  f=0.0000  <S**2>=0.000
     312 -> 313        0.70710

 The electronic state is 1-A.
 Alpha  occ. eigenvalues --  -46.89404 -46.88069 -19.26144 -19.23955 -19.20231
 Alpha  occ. eigenvalues --  -19.20056 -19.19352 -19.19009 -19.18603 -19.18464
 Alpha  occ. eigenvalues --  -14.42234 -14.42163 -14.41734 -14.41424 -14.39984
 Alpha  occ. eigenvalues --  -14.39546 -14.39049 -14.38578 -10.39315 -10.39305
 Alpha  occ. eigenvalues --  -10.35136 -10.35112 -10.34819 -10.34500 -10.31590
 Alpha  occ. eigenvalues --  -10.31535 -10.31344 -10.31100 -10.30976 -10.30763
 Alpha  occ. eigenvalues --  -10.30719 -10.30656 -10.30631 -10.30338 -10.30320
 Alpha  occ. eigenvalues --  -10.30259 -10.30146 -10.29891 -10.29819 -10.29652
 Alpha  occ. eigenvalues --  -10.29627 -10.29343 -10.28874 -10.28673 -10.28656
 Alpha  occ. eigenvalues --  -10.28583 -10.28510 -10.28404 -10.28397 -10.28389
 Alpha  occ. eigenvalues --  -10.28318 -10.28132 -10.28129 -10.28022 -10.27849
 Alpha  occ. eigenvalues --  -10.27845 -10.27655 -10.27651 -10.27607 -10.27585
 Alpha  occ. eigenvalues --  -10.27552 -10.27502 -10.27479 -10.27056 -10.27000
 Alpha  occ. eigenvalues --  -10.26986 -10.26722 -10.26705 -10.26676 -10.26520
 Alpha  occ. eigenvalues --  -10.26393 -10.26387 -10.26245 -10.26240 -10.26038
 Alpha  occ. eigenvalues --  -10.25920 -10.25837 -10.25822 -10.25805 -10.25778
 Alpha  occ. eigenvalues --  -10.25600 -10.25417 -10.25249 -10.25194 -10.24672
 Alpha  occ. eigenvalues --  -10.24653  -3.17857  -3.16671  -1.92761  -1.92323
 Alpha  occ. eigenvalues --   -1.92143  -1.91571  -1.91105  -1.90993  -1.18149
 Alpha  occ. eigenvalues --   -1.13978  -1.12006  -1.09432  -1.09073  -1.08323
 Alpha  occ. eigenvalues --   -1.07300  -1.06738  -1.05794  -1.05223  -1.04144
 Alpha  occ. eigenvalues --   -1.03500  -1.03309  -1.02700  -1.01481  -1.01153
 Alpha  occ. eigenvalues --   -0.92969  -0.92789  -0.89510  -0.88622  -0.88524
 Alpha  occ. eigenvalues --   -0.88121  -0.87909  -0.87744  -0.87564  -0.87388
 Alpha  occ. eigenvalues --   -0.87068  -0.86921  -0.86489  -0.86007  -0.84285
 Alpha  occ. eigenvalues --   -0.83985  -0.83922  -0.83389  -0.82735  -0.82276
 Alpha  occ. eigenvalues --   -0.82070  -0.81522  -0.81188  -0.80898  -0.80680
 Alpha  occ. eigenvalues --   -0.79926  -0.78980  -0.77724  -0.77704  -0.77099
 Alpha  occ. eigenvalues --   -0.76981  -0.76724  -0.75901  -0.75849  -0.75248
 Alpha  occ. eigenvalues --   -0.74948  -0.73235  -0.72949  -0.72267  -0.71172
 Alpha  occ. eigenvalues --   -0.68942  -0.68881  -0.68635  -0.68607  -0.67962
 Alpha  occ. eigenvalues --   -0.67937  -0.67238  -0.66359  -0.65936  -0.65843
 Alpha  occ. eigenvalues --   -0.65672  -0.65607  -0.64612  -0.64538  -0.64468
 Alpha  occ. eigenvalues --   -0.63929  -0.62375  -0.61268  -0.60547  -0.60157
 Alpha  occ. eigenvalues --   -0.59989  -0.59392  -0.59299  -0.58949  -0.58409
 Alpha  occ. eigenvalues --   -0.58359  -0.57989  -0.57753  -0.57350  -0.57244
 Alpha  occ. eigenvalues --   -0.57007  -0.56255  -0.55778  -0.55671  -0.55491
 Alpha  occ. eigenvalues --   -0.54893  -0.54459  -0.54375  -0.53959  -0.53806
 Alpha  occ. eigenvalues --   -0.53543  -0.53358  -0.53232  -0.53114  -0.52977
 Alpha  occ. eigenvalues --   -0.52618  -0.52578  -0.52484  -0.52252  -0.52199
 Alpha  occ. eigenvalues --   -0.51983  -0.51846  -0.51725  -0.51566  -0.51122
 Alpha  occ. eigenvalues --   -0.50945  -0.50929  -0.50606  -0.50560  -0.50359
 Alpha  occ. eigenvalues --   -0.49895  -0.49878  -0.49802  -0.49571  -0.49499
 Alpha  occ. eigenvalues --   -0.49213  -0.49155  -0.48833  -0.48798  -0.48677
 Alpha  occ. eigenvalues --   -0.48584  -0.48392  -0.48320  -0.48056  -0.47937
 Alpha  occ. eigenvalues --   -0.47821  -0.47727  -0.47626  -0.47468  -0.47324
 Alpha  occ. eigenvalues --   -0.47121  -0.47043  -0.46804  -0.46644  -0.46312
 Alpha  occ. eigenvalues --   -0.46257  -0.46160  -0.46115  -0.45715  -0.45598
 Alpha  occ. eigenvalues --   -0.45564  -0.45352  -0.45173  -0.44924  -0.44924
 Alpha  occ. eigenvalues --   -0.44622  -0.44539  -0.44313  -0.44239  -0.43941
 Alpha  occ. eigenvalues --   -0.43923  -0.43743  -0.43592  -0.43570  -0.43401
 Alpha  occ. eigenvalues --   -0.43348  -0.43042  -0.43002  -0.42999  -0.42643
 Alpha  occ. eigenvalues --   -0.42618  -0.42370  -0.41947  -0.41914  -0.41738
 Alpha  occ. eigenvalues --   -0.41700  -0.41591  -0.41306  -0.41185  -0.41069
 Alpha  occ. eigenvalues --   -0.40796  -0.40766  -0.40665  -0.40658  -0.40301
 Alpha  occ. eigenvalues --   -0.40266  -0.40065  -0.39551  -0.39137  -0.39041
 Alpha  occ. eigenvalues --   -0.38499  -0.37842  -0.37669  -0.37449  -0.37410
 Alpha  occ. eigenvalues --   -0.37083  -0.37052  -0.36459  -0.36453  -0.36119
 Alpha  occ. eigenvalues --   -0.36105  -0.35650  -0.34792  -0.34488  -0.34083
 Alpha  occ. eigenvalues --   -0.33914  -0.33560  -0.32654  -0.31806  -0.31635
 Alpha  occ. eigenvalues --   -0.31305  -0.30950  -0.30514  -0.30433  -0.30258
 Alpha  occ. eigenvalues --   -0.30258  -0.29574  -0.29305  -0.24171  -0.23756
 Alpha  occ. eigenvalues --   -0.21683  -0.20965
 Alpha virt. eigenvalues --   -0.08624  -0.08538  -0.02660  -0.01329  -0.00247
 Alpha virt. eigenvalues --    0.00571   0.02247   0.02313   0.02492   0.02571
 Alpha virt. eigenvalues --    0.04543   0.04569   0.05497   0.05597   0.06018

 Mulliken charges:
               1
     1  Mg   0.815645
     2  C    0.016313
     3  C   -0.078653
     4  C   -0.039499
     5  C   -0.091668
     6  N   -0.224065
     7  C   -0.122438
     8  C    0.024874
     9  C   -0.108516
    10  C    0.025577
    11  C    0.065580
    12  C    0.060403
    13  C   -0.072468
    14  H   -0.016573
    15  N   -0.489196
    16  C    0.213738
    17  C   -0.139447
    18  C   -0.019698
    19  C    0.151511
    20  C    0.115733
    21  C    0.006983
    22  O   -0.211178
    23  C    0.033109
    24  N   -0.209863
    25  C    0.015571
    26  C   -0.071812
    27  C   -0.031123
    28  C   -0.009397
    29  C    0.089619
    30  C    0.026588
    31  C    0.020973
    32  N   -0.334491
    33  C    0.141016
    34  C   -0.143480
    35  C    0.021192
    36  C    0.107319
    37  C    0.141237
    38  C    0.060010
    39  O   -0.216325
    40  C   -0.028744
    41  C    0.225830
    42  O   -0.218484
    43  O   -0.379503
    44  C    0.184896
    45  H   -0.030780
    46  H   -0.007164
    47  H   -0.039817
    48  H    0.000441
    49  H    0.019262
    50  H    0.015695
    51  H    0.018149
    52  H    0.022283
    53  H    0.004573
    54  H    0.033037
    55  H    0.042178
    56  H    0.060409
    57  H    0.034363
    58  H    0.008029
    59  H    0.037104
    60  H    0.032545
    61  H    0.024255
    62  H    0.038681
    63  H    0.021653
    64  H    0.009467
    65  H    0.040276
    66  H    0.007216
    67  H    0.016223
    68  H    0.010555
    69  H   -0.000261
    70  H    0.002912
    71  H    0.018920
    72  H    0.023639
    73  H    0.007318
    74  H    0.021798
    75  H    0.047014
    76  H    0.051798
    77  H    0.025059
    78  H    0.027286
    79  H    0.048790
    80  Mg   0.826290
    81  C   -0.012289
    82  C   -0.055200
    83  C   -0.055303
    84  C   -0.101739
    85  N   -0.262874
    86  C   -0.021583
    87  C   -0.037414
    88  C   -0.073747
    89  C    0.047860
    90  C    0.074588
    91  C    0.036472
    92  C   -0.072631
    93  H    0.021631
    94  N   -0.381524
    95  C    0.116821
    96  C   -0.159362
    97  C   -0.046573
    98  C    0.112356
    99  C    0.135758
   100  C    0.005263
   101  O   -0.221309
   102  C    0.048245
   103  N   -0.269117
   104  C    0.003982
   105  C   -0.013057
   106  C   -0.018904
   107  C    0.072179
   108  C    0.091477
   109  C   -0.014718
   110  C    0.000579
   111  N   -0.397758
   112  C    0.133571
   113  C   -0.171126
   114  C    0.038088
   115  C    0.109018
   116  C    0.123573
   117  C    0.021062
   118  O   -0.126746
   119  C   -0.026014
   120  C    0.176020
   121  O   -0.208513
   122  O   -0.277533
   123  C    0.182009
   124  H   -0.037511
   125  H    0.007430
   126  H   -0.023673
   127  H    0.021965
   128  H    0.013741
   129  H    0.030052
   130  H    0.010715
   131  H    0.027830
   132  H    0.008552
   133  H    0.018901
   134  H    0.034136
   135  H    0.048638
   136  H    0.023689
   137  H    0.016883
   138  H    0.018138
   139  H    0.040367
   140  H    0.017709
   141  H    0.042655
   142  H    0.008190
   143  H    0.001964
   144  H    0.024907
   145  H    0.013018
   146  H    0.014149
   147  H    0.012831
   148  H   -0.002242
   149  H    0.027131
   150  H    0.014275
   151  H    0.022611
   152  H    0.014996
   153  H    0.034294
   154  H    0.032735
   155  H    0.026011
   156  H    0.038657
   157  H    0.037278
   158  H    0.007167
 Sum of Mulliken charges =  -0.00000

 Dipole moment (field-independent basis, Debye):
    X=              0.7129    Y=              0.4222    Z=              5.8047  Tot=              5.8635
 Quadrupole moment (field-independent basis, Debye-Ang):
   XX=           -451.4906   YY=           -504.9879   ZZ=           -504.9454
   XY=             95.7398   XZ=            -59.0130   YZ=             34.7372

 Normal termination of Gaussian 16 at Wed Sep 15 02:26:05 2021.
