 Gaussian 16, Revision A.03,
 Gaussian 16:  ES64L-G16RevA.03 25-Dec-2016

 ----------------------------------------------------------
 #p cam-b3lyp/Def2SVP td=(nstates=5) density=(transition=1)
 ----------------------------------------------------------

 --------------------------------
 TDDFT excited states in gaussian
 --------------------------------
 Symbolic Z-matrix:
 Charge =  0 Multiplicity = 1

                         Standard orientation:
 ---------------------------------------------------------------------
 Center     Atomic      Atomic             Coordinates (Angstroms)
 Number     Number       Type             X           Y           Z
 ---------------------------------------------------------------------
      1         12           0       20.572205   -0.850238    0.259891
      2          6           0       19.651818    1.960166   -1.906193
      3          6           0       20.957091    1.518560    2.812653
      4          6           0       21.740270   -3.233394    2.152976
      5          6           0       19.956817   -3.006091   -2.335398
      6          7           0       20.536282    1.458098    0.377794
      7          6           0       20.010362    2.414355   -0.588582
      8          6           0       20.018472    3.874563   -0.087638
      9          6           0       20.661351    3.638857    1.399524
     10          6           0       20.756637    2.111445    1.582546
     11          6           0       21.985519    4.346301    1.612622
     12          6           0       18.587902    4.488853   -0.162738
     13          6           0       18.407006    5.786384    0.566079
     14          1           0       17.643198    6.915615   -0.088981
     15          7           0       21.293664   -0.885219    2.237151
     16          6           0       21.369387    0.182952    3.138186
     17          6           0       21.868242   -0.294442    4.426566
     18          6           0       22.106622   -1.720389    4.262902
     19          6           0       21.717777   -2.042779    2.840240
     20          6           0       22.002138    0.584901    5.723607
     21          6           0       22.663263   -2.737767    5.192462
     22          8           0       22.785055   -3.928651    4.938079
     23          6           0       23.006510   -2.363929    6.574777
     24          7           0       20.724290   -2.792350   -0.001054
     25          6           0       21.353216   -3.583380    0.870165
     26          6           0       21.417569   -5.056026    0.401662
     27          6           0       20.473574   -5.024504   -0.782365
     28          6           0       20.412950   -3.486410   -1.129092
     29          6           0       22.825075   -5.509185    0.031387
     30          6           0       19.083805   -5.604958   -0.737209
     31          6           0       18.157714   -4.927622    0.250261
     32          7           0       20.035773   -0.618754   -1.739211
     33          6           0       19.723659   -1.639335   -2.655428
     34          6           0       19.315759   -1.038493   -3.901407
     35          6           0       19.224232    0.336402   -3.563993
     36          6           0       19.681612    0.558887   -2.251154
     37          6           0       18.876992   -1.713241   -5.168192
     38          6           0       18.779013    1.636846   -4.153682
     39          8           0       18.207595    1.892093   -5.235288
     40          6           0       19.084396    2.695394   -3.096260
     41          6           0       19.985334    3.781646   -3.687598
     42          8           0       21.171549    3.711522   -4.125610
     43          8           0       19.327080    4.966258   -3.536740
     44          6           0       20.066747    6.172379   -3.972656
     45          1           0       20.879105    2.219250    3.645394
     46          1           0       22.186939   -4.033828    2.746398
     47          1           0       19.767067   -3.629100   -3.212062
     48          1           0       20.621199    4.418799   -0.814647
     49          1           0       19.923754    3.923930    2.149741
     50          1           0       21.882726    5.023554    2.460963
     51          1           0       22.170075    4.927309    0.709732
     52          1           0       22.891389    3.741261    1.581604
     53          1           0       17.911034    3.684105    0.126286
     54          1           0       18.344102    4.667630   -1.210045
     55          1           0       19.310637    6.330331    0.840202
     56          1           0       17.806861    5.613320    1.458911
     57          1           0       21.317418    0.126894    6.437977
     58          1           0       21.708850    1.624155    5.575945
     59          1           0       23.043343    0.505069    6.036309
     60          1           0       23.538882   -1.416044    6.656141
     61          1           0       23.653910   -3.176074    6.903655
     62          1           0       22.038841   -2.172443    7.037513
     63          1           0       21.067846   -5.668879    1.232525
     64          1           0       20.875951   -5.562098   -1.641421
     65          1           0       22.968044   -6.524403    0.399710
     66          1           0       23.579056   -4.867188    0.485609
     67          1           0       22.912579   -5.620472   -1.049980
     68          1           0       19.176143   -6.679901   -0.579635
     69          1           0       18.553248   -5.419889   -1.671063
     70          1           0       17.601922   -5.647958    0.849399
     71          1           0       17.381623   -4.336809   -0.236795
     72          1           0       18.661539   -4.279171    0.967151
     73          1           0       17.910745   -1.315797   -5.477878
     74          1           0       18.772298   -2.797170   -5.214872
     75          1           0       19.615460   -1.462479   -5.929981
     76          1           0       18.151949    3.202580   -2.846821
     77          1           0       20.493350    6.675717   -3.105286
     78          1           0       19.257196    6.681449   -4.495721
     79          1           0       20.804083    5.952538   -4.745800
     80         12           0      -20.820594   -0.648346   -0.133102
     81          6           0      -18.850997    2.372340    0.291310
     82          6           0      -23.405115    1.151540    1.069208
     83          6           0      -22.519993   -3.333363   -0.457928
     84          6           0      -17.857890   -2.358734   -1.046245
     85          7           0      -21.072789    1.634621    0.593538
     86          6           0      -20.176921    2.636588    0.575204
     87          6           0      -20.864494    3.972415    0.916355
     88          6           0      -22.181860    3.360258    1.585937
     89          6           0      -22.261600    2.007455    1.013984
     90          6           0      -22.392515    3.559557    3.077538
     91          6           0      -21.057986    4.774593   -0.382101
     92          6           0      -21.136854    6.310524   -0.138528
     93          1           0      -20.749832    6.996387    1.252415
     94          7           0      -22.763660   -1.064226    0.210729
     95          6           0      -23.691383   -0.224962    0.797332
     96          6           0      -24.933136   -0.974358    0.962521
     97          6           0      -24.711889   -2.274827    0.445763
     98          6           0      -23.276201   -2.252967    0.046238
     99          6           0      -26.151487   -0.430875    1.565178
    100          6           0      -25.737287   -3.513567    0.272155
    101          8           0      -25.435292   -4.496895   -0.346931
    102          6           0      -27.230261   -3.376590    0.620746
    103          7           0      -20.186707   -2.634424   -0.419585
    104          6           0      -21.136297   -3.532998   -0.667245
    105          6           0      -20.623071   -4.861719   -1.153426
    106          6           0      -19.248087   -4.405731   -1.699848
    107          6           0      -19.042377   -3.098160   -0.860145
    108          6           0      -20.467218   -5.966611   -0.007544
    109          6           0      -19.150983   -4.205258   -3.270406
    110          6           0      -20.047108   -5.054400   -4.218268
    111          7           0      -18.773810   -0.187836   -0.240340
    112          6           0      -17.707766   -0.908586   -0.667918
    113          6           0      -16.566040   -0.121468   -0.794471
    114          6           0      -16.971154    1.116699   -0.384719
    115          6           0      -18.315082    1.078724   -0.069643
    116          6           0      -15.216148   -0.577392   -1.341542
    117          6           0      -16.455124    2.483545   -0.216855
    118          8           0      -15.328304    2.956083   -0.221761
    119          6           0      -17.733279    3.352434    0.160592
    120          6           0      -17.409681    4.104690    1.360165
    121          8           0      -17.389763    3.681206    2.520242
    122          8           0      -16.879202    5.277590    0.955539
    123          6           0      -16.169454    5.964028    2.020031
    124          1           0      -24.181800    1.681288    1.624849
    125          1           0      -23.122758   -4.241305   -0.518402
    126          1           0      -16.992621   -2.906449   -1.424936
    127          1           0      -20.328406    4.511905    1.697264
    128          1           0      -23.013100    3.917344    1.155899
    129          1           0      -23.236098    4.216085    3.288543
    130          1           0      -21.495883    3.981312    3.531320
    131          1           0      -22.534672    2.633302    3.634311
    132          1           0      -22.039544    4.514206   -0.778762
    133          1           0      -20.336925    4.535973   -1.163698
    134          1           0      -22.092809    6.722167   -0.463849
    135          1           0      -20.544716    6.694687   -0.969007
    136          1           0      -26.187447    0.656045    1.494737
    137          1           0      -26.123198   -0.759012    2.604370
    138          1           0      -27.072811   -0.782614    1.100394
    139          1           0      -27.768586   -2.674465   -0.015863
    140          1           0      -27.241826   -3.188869    1.694622
    141          1           0      -27.715435   -4.350848    0.555841
    142          1           0      -21.381183   -5.161261   -1.876663
    143          1           0      -18.438908   -5.089867   -1.445502
    144          1           0      -20.916376   -6.837624   -0.484169
    145          1           0      -21.007437   -5.741166    0.912604
    146          1           0      -19.444887   -6.227942    0.262992
    147          1           0      -18.108414   -4.306124   -3.568669
    148          1           0      -19.553488   -3.196602   -3.365403
    149          1           0      -21.015795   -4.574537   -4.355707
    150          1           0      -20.050456   -6.036494   -3.744137
    151          1           0      -19.582200   -5.215227   -5.190327
    152          1           0      -15.462815   -1.371653   -2.046502
    153          1           0      -14.578138   -1.034759   -0.585892
    154          1           0      -14.740136    0.274360   -1.827040
    155          1           0      -17.910092    4.019504   -0.684061
    156          1           0      -15.715821    6.902484    1.702532
    157          1           0      -15.499604    5.358242    2.630520
    158          1           0      -16.871136    6.319092    2.775584
 ---------------------------------------------------------------------

 SCF Done:  E(RCAM-B3LYP) =  -4069.79584811     A.U. after   19 cycles

 Excitation energies and oscillator strengths:

 Excited State   1:      Singlet-A      1.6630 eV  745.57 nm  f=0.3997  <S**2>=0.000
     309 -> 315       -0.16581
     311 -> 313        0.68886
     309 <- 315       -0.10534
 This state for optimization and/or second-order correction.
 Total Energy, E(TD-HF/TD-DFT) =  -4069.73473580
 Copying the excited state density for this state as the 1-particle RhoCI density.

 Excited State   2:      Singlet-A      1.8346 eV  675.81 nm  f=0.3723  <S**2>=0.000
     310 -> 316       -0.18806
     312 -> 314        0.68158
     310 <- 316       -0.10395

 Excited State   3:      Singlet-A      2.1713 eV  571.02 nm  f=0.1370  <S**2>=0.000
     309 -> 313        0.65261
     311 -> 315        0.25466

 Excited State   4:      Singlet-A      2.2402 eV  553.46 nm  f=0.1574  <S**2>=0.000
     310 -> 314        0.65518
     312 -> 316        0.25326

 Excited State   5:      Singlet-A      3.0627 eV  404.82 nm  f=0.0000  <S**2>=0.000
     312 -> 313        0.70710

 The electronic state is 1-A.
 Alpha  occ. eigenvalues --  -46.89358 -46.87725 -19.25726 -19.24888 -19.20522
 Alpha  occ. eigenvalues --  -19.19602 -19.18855 -19.18760 -19.18736 -19.18436
 Alpha  occ. eigenvalues --  -14.42469 -14.42134 -14.41477 -14.41125 -14.39949
 Alpha  occ. eigenvalues --  -14.39927 -14.38831 -14.38639 -10.39922 -10.38209
 Alpha  occ. eigenvalues --  -10.36974 -10.34812 -10.34709 -10.34617 -10.31943
 Alpha  occ. eigenvalues --  -10.31878 -10.31469 -10.31340 -10.31244 -10.31063
 Alpha  occ. eigenvalues --  -10.30791 -10.30729 -10.30661 -10.30617 -10.30586
 Alpha  occ. eigenvalues --  -10.30525 -10.30439 -10.29598 -10.29582 -10.29423
 Alpha  occ. eigenvalues --  -10.29233 -10.29200 -10.28931 -10.28919 -10.28848
 Alpha  occ. eigenvalues --  -10.28788 -10.28623 -10.28567 -10.28560 -10.28496
 Alpha  occ. eigenvalues --  -10.28405 -10.28221 -10.27963 -10.27832 -10.27702
 Alpha  occ. eigenvalues --  -10.27521 -10.27502 -10.27502 -10.27479 -10.27478
 Alpha  occ. eigenvalues --  -10.27364 -10.27357 -10.27291 -10.27257 -10.27123
 Alpha  occ. eigenvalues --  -10.27118 -10.26978 -10.26939 -10.26804 -10.26496
 Alpha  occ. eigenvalues --  -10.26253 -10.26207 -10.26081 -10.25985 -10.25866
 Alpha  occ. eigenvalues --  -10.25799 -10.25702 -10.25691 -10.25601 -10.25533
 Alpha  occ. eigenvalues --  -10.25464 -10.25364 -10.25217 -10.24673 -10.24528
 Alpha  occ. eigenvalues --  -10.23715  -3.17858  -3.16465  -1.92760  -1.92332
 Alpha  occ. eigenvalues --   -1.92143  -1.91371  -1.90931  -1.90767  -1.16480
 Alpha  occ. eigenvalues --   -1.15969  -1.12604  -1.10356  -1.09447  -1.07771
 Alpha  occ. eigenvalues --   -1.06629  -1.05779  -1.05731  -1.05198  -1.05021
 Alpha  occ. eigenvalues --   -1.04631  -1.03407  -1.02793  -1.02240  -1.00576
 Alpha  occ. eigenvalues --   -0.92339  -0.92275  -0.89664  -0.89164  -0.88831
 Alpha  occ. eigenvalues --   -0.88741  -0.88665  -0.88101  -0.87517  -0.87292
 Alpha  occ. eigenvalues --   -0.86972  -0.86898  -0.85851  -0.85583  -0.84740
 Alpha  occ. eigenvalues --   -0.84365  -0.84023  -0.83099  -0.82911  -0.82375
 Alpha  occ. eigenvalues --   -0.82273  -0.81935  -0.81390  -0.80723  -0.80089
 Alpha  occ. eigenvalues --   -0.80047  -0.78600  -0.78492  -0.77243  -0.76833
 Alpha  occ. eigenvalues --   -0.76781  -0.76630  -0.75936  -0.75706  -0.75470
 Alpha  occ. eigenvalues --   -0.75256  -0.72749  -0.72733  -0.71923  -0.71655
 Alpha  occ. eigenvalues --   -0.70268  -0.69655  -0.69417  -0.68756  -0.67604
 Alpha  occ. eigenvalues --   -0.67572  -0.67113  -0.66763  -0.65438  -0.65065
 Alpha  occ. eigenvalues --   -0.65033  -0.64660  -0.64633  -0.64298  -0.63793
 Alpha  occ. eigenvalues --   -0.63677  -0.61911  -0.61800  -0.60807  -0.60200
 Alpha  occ. eigenvalues --   -0.59500  -0.59235  -0.59134  -0.59052  -0.58400
 Alpha  occ. eigenvalues --   -0.58293  -0.57911  -0.57689  -0.57471  -0.57372
 Alpha  occ. eigenvalues --   -0.56531  -0.56252  -0.55959  -0.55471  -0.55453
 Alpha  occ. eigenvalues --   -0.55272  -0.55182  -0.54775  -0.54618  -0.54260
 Alpha  occ. eigenvalues --   -0.54037  -0.53779  -0.53603  -0.53434  -0.53045
 Alpha  occ. eigenvalues --   -0.52951  -0.52865  -0.52698  -0.52468  -0.52267
 Alpha  occ. eigenvalues --   -0.52099  -0.51669  -0.51285  -0.51151  -0.51117
 Alpha  occ. eigenvalues --   -0.50803  -0.50704  -0.50650  -0.50456  -0.50356
 Alpha  occ. eigenvalues --   -0.50159  -0.50029  -0.49763  -0.49704  -0.49493
 Alpha  occ. eigenvalues --   -0.49078  -0.48912  -0.48812  -0.48782  -0.48761
 Alpha  occ. eigenvalues --   -0.48605  -0.48516  -0.48419  -0.48290  -0.48048
 Alpha  occ. eigenvalues --   -0.47898  -0.47689  -0.47537  -0.47497  -0.47387
 Alpha  occ. eigenvalues --   -0.47041  -0.46987  -0.46728  -0.46728  -0.46492
 Alpha  occ. eigenvalues --   -0.46202  -0.46124  -0.45970  -0.45753  -0.45672
 Alpha  occ. eigenvalues --   -0.45430  -0.45412  -0.44928  -0.44914  -0.44641
 Alpha  occ. eigenvalues --   -0.44506  -0.44369  -0.44325  -0.44318  -0.44152
 Alpha  occ. eigenvalues --   -0.44055  -0.43946  -0.43894  -0.43799  -0.43460
 Alpha  occ. eigenvalues --   -0.43301  -0.43247  -0.43154  -0.42957  -0.42650
 Alpha  occ. eigenvalues --   -0.42603  -0.42474  -0.42472  -0.42251  -0.42171
 Alpha  occ. eigenvalues --   -0.42069  -0.41821  -0.41727  -0.41410  -0.41348
 Alpha  occ. eigenvalues --   -0.41175  -0.40927  -0.40432  -0.40397  -0.39922
 Alpha  occ. eigenvalues --   -0.39728  -0.39328  -0.39199  -0.39077  -0.38864
 Alpha  occ. eigenvalues --   -0.38599  -0.38247  -0.38077  -0.37442  -0.37302
 Alpha  occ. eigenvalues --   -0.37099  -0.36736  -0.36595  -0.36492  -0.36079
 Alpha  occ. eigenvalues --   -0.35919  -0.35643  -0.34275  -0.34166  -0.34067
 Alpha  occ. eigenvalues --   -0.33719  -0.33040  -0.32475  -0.31925  -0.31518
 Alpha  occ. eigenvalues --   -0.31484  -0.31242  -0.30602  -0.30370  -0.30361
 Alpha  occ. eigenvalues --   -0.30287  -0.29472  -0.29143  -0.24221  -0.23369
 Alpha  occ. eigenvalues --   -0.21448  -0.21360
 Alpha virt. eigenvalues --   -0.09264  -0.08250  -0.01632  -0.01073   0.00360
 Alpha virt. eigenvalues --    0.00572   0.02219   0.02428   0.02748   0.03399
 Alpha virt. eigenvalues --    0.04206   0.04539   0.05190   0.05723   0.05767

 Mulliken charges:
               1
     1  Mg  11.997002
     2  C    6.021393
     3  C    5.986034
     4  C    5.978680
     5  C    6.015538
     6  N    7.005370
     7  C    5.966066
     8  C    6.010974
     9  C    5.991482
    10  C    6.027368
    11  C    5.992399
    12  C    6.003242
    13  C    6.000080
    14  H    0.999525
    15  N    6.990709
    16  C    6.044039
    17  C    6.021265
    18  C    6.017089
    19  C    6.037187
    20  C    6.000015
    21  C    6.011833
    22  O    8.030817
    23  C    5.996115
    24  N    7.001228
    25  C    6.037872
    26  C    5.991849
    27  C    6.001597
    28  C    5.965531
    29  C    5.997790
    30  C    6.007975
    31  C    6.005919
    32  N    7.004478
    33  C    5.952335
    34  C    5.979445
    35  C    5.991462
    36  C    5.961612
    37  C    6.004770
    38  C    5.981360
    39  O    7.967408
    40  C    6.001511
    41  C    5.997122
    42  O    7.994272
    43  O    7.998256
    44  C    6.001626
    45  H    1.011014
    46  H    1.006013
    47  H    0.990321
    48  H    0.999900
    49  H    1.000225
    50  H    1.001604
    51  H    1.014123
    52  H    0.997997
    53  H    0.997567
    54  H    1.005888
    55  H    0.994797
    56  H    0.994367
    57  H    1.017296
    58  H    1.019262
    59  H    1.016822
    60  H    1.007069
    61  H    1.015007
    62  H    1.008258
    63  H    0.999186
    64  H    0.999678
    65  H    1.003168
    66  H    0.994721
    67  H    1.014217
    68  H    0.989026
    69  H    1.004813
    70  H    0.993886
    71  H    1.006278
    72  H    0.983557
    73  H    0.983734
    74  H    0.980086
    75  H    0.981171
    76  H    0.991525
    77  H    0.993036
    78  H    0.996934
    79  H    0.997818
    80  Mg  11.999998
    81  C    6.000009
    82  C    6.000027
    83  C    5.999992
    84  C    5.999989
    85  N    6.999963
    86  C    6.000029
    87  C    5.999979
    88  C    6.000023
    89  C    5.999938
    90  C    6.000024
    91  C    5.999982
    92  C    5.999999
    93  H    0.999963
    94  N    7.000028
    95  C    5.999830
    96  C    5.999993
    97  C    5.999907
    98  C    5.999957
    99  C    6.000042
   100  C    5.999949
   101  O    7.999945
   102  C    6.000020
   103  N    7.000039
   104  C    5.999959
   105  C    6.000025
   106  C    5.999976
   107  C    6.000035
   108  C    6.000012
   109  C    5.999985
   110  C    5.999988
   111  N    6.999987
   112  C    6.000089
   113  C    6.000061
   114  C    6.000003
   115  C    6.000058
   116  C    5.999986
   117  C    6.000104
   118  O    8.000103
   119  C    5.999985
   120  C    6.000001
   121  O    7.999980
   122  O    8.000018
   123  C    6.000014
   124  H    0.999930
   125  H    0.999997
   126  H    1.000080
   127  H    0.999987
   128  H    0.999989
   129  H    0.999959
   130  H    0.999949
   131  H    0.999977
   132  H    1.000030
   133  H    1.000024
   134  H    0.999999
   135  H    1.000036
   136  H    0.999952
   137  H    0.999910
   138  H    0.999936
   139  H    0.999978
   140  H    0.999950
   141  H    0.999936
   142  H    1.000009
   143  H    1.000012
   144  H    0.999984
   145  H    0.999962
   146  H    0.999968
   147  H    1.000053
   148  H    1.000006
   149  H    1.000007
   150  H    0.999992
   151  H    1.000062
   152  H    1.000087
   153  H    1.000070
   154  H    1.000116
   155  H    1.000051
   156  H    1.000046
   157  H    0.999989
   158  H    0.999968
 Sum of Mulliken charges = 624.00000

 Dipole moment (field-independent basis, Debye):
    X=              3.9413    Y=             -1.1458    Z=             10.4834  Tot=             11.2583
 Quadrupole moment (field-independent basis, Debye-Ang):
   XX=            159.7214   YY=             -1.6822   ZZ=              7.3660
   XY=            -27.2076   XZ=            218.4897   YZ=             -6.3105

 Normal termination of Gaussian 16 at Wed Sep 22 05:00:12 2021.
