 Gaussian 16, Revision A.03,
 Gaussian 16:  ES64L-G16RevA.03 25-Dec-2016

 -----------------------------------
 #p cam-b3lyp/Def2SVP td=(nstates=5)
 -----------------------------------

 --------------------------------
 TDDFT excited states in gaussian
 --------------------------------
 Symbolic Z-matrix:
 Charge =  0 Multiplicity = 1

                         Standard orientation:
 ---------------------------------------------------------------------
 Center     Atomic      Atomic             Coordinates (Angstroms)
 Number     Number       Type             X           Y           Z
 ---------------------------------------------------------------------
      1         12           0       15.978566    0.581208   -0.304384
      2          6           0       14.472257   -2.304095    1.304977
      3          6           0       13.468409    2.362077    1.071302
      4          6           0       17.285926    3.095582   -1.777992
      5          6           0       18.288454   -1.596676   -1.872219
      6          7           0       14.120939    0.023111    1.124356
      7          6           0       13.805548   -1.156106    1.687232
      8          6           0       12.667537   -0.971308    2.709168
      9          6           0       12.149689    0.448573    2.185427
     10          6           0       13.315408    1.000344    1.478171
     11          6           0       10.775270    0.522769    1.541662
     12          6           0       13.264820   -1.009329    4.126462
     13          6           0       12.236229   -1.460874    5.204767
     14          1           0       10.819962   -2.108848    4.845278
     15          7           0       15.485016    2.536325   -0.329056
     16          6           0       14.354875    3.104690    0.226716
     17          6           0       14.339669    4.518844   -0.134903
     18          6           0       15.499349    4.767681   -0.909779
     19          6           0       16.134034    3.424622   -1.030886
     20          6           0       13.288101    5.459530    0.255304
     21          6           0       16.068361    6.155736   -1.514416
     22          8           0       17.162275    6.225863   -2.004147
     23          6           0       15.378777    7.501239   -1.225723
     24          7           0       17.403399    0.663484   -1.850822
     25          6           0       17.870213    1.868654   -2.167270
     26          6           0       19.084603    1.851070   -3.056215
     27          6           0       19.596826    0.424776   -2.739365
     28          6           0       18.263561   -0.240560   -2.252646
     29          6           0       18.763923    2.032128   -4.612655
     30          6           0       20.799523    0.326026   -1.709784
     31          6           0       21.825898    1.491029   -1.600954
     32          7           0       16.277683   -1.495557   -0.406692
     33          6           0       17.245609   -2.240009   -0.996323
     34          6           0       17.187011   -3.574199   -0.601845
     35          6           0       16.107105   -3.624979    0.232598
     36          6           0       15.570516   -2.359619    0.366000
     37          6           0       18.175980   -4.670231   -0.989165
     38          6           0       15.362000   -4.576575    1.070462
     39          8           0       15.366605   -5.795612    1.153932
     40          6           0       14.309787   -3.680421    1.858415
     41          6           0       13.001182   -4.283722    1.676313
     42          8           0       12.278677   -4.204413    0.677709
     43          8           0       12.830899   -5.161818    2.686647
     44          6           0       11.753518   -6.101191    2.431871
     45          1           0       12.560709    2.893571    1.364905
     46          1           0       17.681314    3.970386   -2.297345
     47          1           0       19.080312   -2.212250   -2.303634
     48          1           0       11.861618   -1.687016    2.546331
     49          1           0       12.023179    1.059888    3.077910
     50          1           0       10.068155    1.087760    2.148260
     51          1           0       10.379697   -0.480119    1.382030
     52          1           0       10.776797    0.946706    0.537457
     53          1           0       13.509469    0.017032    4.400924
     54          1           0       14.191525   -1.577735    4.203240
     55          1           0       12.073051   -0.687301    5.955826
     56          1           0       12.845331   -2.115504    5.827953
     57          1           0       12.763593    5.130589    1.152154
     58          1           0       12.616144    5.503523   -0.601979
     59          1           0       13.650215    6.462531    0.482118
     60          1           0       15.409970    7.796050   -0.176838
     61          1           0       14.397006    7.407953   -1.690487
     62          1           0       15.838947    8.287858   -1.824270
     63          1           0       19.667183    2.692817   -2.682593
     64          1           0       19.929537   -0.116346   -3.624801
     65          1           0       19.514943    2.765878   -4.904476
     66          1           0       17.770799    2.429495   -4.825109
     67          1           0       18.907324    1.147646   -5.232149
     68          1           0       21.328763   -0.609712   -1.884090
     69          1           0       20.255087    0.369257   -0.766311
     70          1           0       21.469883    2.246464   -0.900893
     71          1           0       21.955478    1.806282   -2.636882
     72          1           0       22.810699    1.144786   -1.289207
     73          1           0       19.118533   -4.144105   -1.142287
     74          1           0       17.940060   -5.145694   -1.940756
     75          1           0       18.229546   -5.385998   -0.169051
     76          1           0       14.610271   -3.706054    2.906622
     77          1           0       11.618634   -6.831474    3.229228
     78          1           0       11.722041   -6.551161    1.439445
     79          1           0       10.790939   -5.589179    2.455819
     80         12           0      -15.920304    0.577642    0.381466
     81          6           0      -15.071369   -2.581512   -0.919496
     82          6           0      -12.712414    0.677580    1.720595
     83          6           0      -16.435468    3.741666    1.284305
     84          6           0      -18.632393    0.616833   -1.783350
     85          7           0      -14.064744   -0.782550    0.219822
     86          6           0      -13.953199   -2.079555   -0.241942
     87          6           0      -12.744275   -2.844192    0.254918
     88          6           0      -11.998735   -1.802551    1.122896
     89          6           0      -12.932132   -0.551187    1.030236
     90          6           0      -11.737094   -2.262911    2.614261
     91          6           0      -11.779314   -3.451572   -0.858671
     92          6           0      -11.648989   -2.694534   -2.190404
     93          1           0      -10.356750   -1.863112   -2.444241
     94          7           0      -14.762168    1.971898    1.352275
     95          6           0      -13.509556    1.810756    1.872588
     96          6           0      -13.115970    3.017299    2.613750
     97          6           0      -14.204659    3.935254    2.500499
     98          6           0      -15.207869    3.211336    1.660812
     99          6           0      -11.789589    3.160259    3.350667
    100          6           0      -14.055954    5.379593    3.108689
    101          8           0      -12.989240    5.674669    3.629366
    102          6           0      -15.230363    6.435531    2.957694
    103          7           0      -17.238268    1.983745   -0.263689
    104          6           0      -17.376187    3.211197    0.380347
    105          6           0      -18.694595    4.002575   -0.165503
    106          6           0      -19.233237    2.943917   -1.272449
    107          6           0      -18.310064    1.784131   -1.079620
    108          6           0      -19.718472    4.314440    0.965413
    109          6           0      -19.215007    3.463542   -2.773748
    110          6           0      -20.494962    3.350090   -3.616273
    111          7           0      -16.810237   -0.752644   -0.996018
    112          6           0      -17.896786   -0.628319   -1.823427
    113          6           0      -18.022695   -1.865988   -2.621720
    114          6           0      -16.963740   -2.703406   -2.179260
    115          6           0      -16.242732   -1.933319   -1.224402
    116          6           0      -19.036179   -2.173102   -3.689129
    117          6           0      -16.323956   -4.006001   -2.443380
    118          8           0      -16.652506   -4.981153   -3.134753
    119          6           0      -15.164282   -4.031146   -1.458837
    120          6           0      -15.298473   -5.046487   -0.469251
    121          8           0      -16.049367   -4.908114    0.530908
    122          8           0      -14.474379   -6.154269   -0.750386
    123          6           0      -14.372246   -7.211282    0.250646
    124          1           0      -11.791060    0.696823    2.305865
    125          1           0      -16.708433    4.716902    1.691760
    126          1           0      -19.537195    0.685101   -2.390174
    127          1           0      -13.196738   -3.648583    0.833622
    128          1           0      -11.118216   -1.520997    0.546521
    129          1           0      -10.669676   -2.427968    2.760546
    130          1           0      -12.300453   -3.187309    2.744395
    131          1           0      -12.058151   -1.503308    3.327796
    132          1           0      -12.276011   -4.399276   -1.070471
    133          1           0      -10.804760   -3.653294   -0.413498
    134          1           0      -12.495476   -2.022209   -2.334086
    135          1           0      -11.762426   -3.414459   -2.999848
    136          1           0      -11.046818    3.773111    2.839929
    137          1           0      -11.436016    2.194628    3.712330
    138          1           0      -11.936692    3.634330    4.320931
    139          1           0      -16.150269    5.925589    3.244765
    140          1           0      -15.252451    6.749109    1.914346
    141          1           0      -15.026668    7.395964    3.431168
    142          1           0      -18.339473    4.979092   -0.493403
    143          1           0      -20.231650    2.639135   -0.957975
    144          1           0      -20.454389    3.510648    0.968679
    145          1           0      -20.153667    5.310181    0.879754
    146          1           0      -19.277403    4.380669    1.959848
    147          1           0      -18.380013    2.962439   -3.264474
    148          1           0      -18.996314    4.521586   -2.629516
    149          1           0      -20.287522    3.400930   -4.685497
    150          1           0      -21.065748    4.217009   -3.284236
    151          1           0      -20.915343    2.385495   -3.331001
    152          1           0      -19.323007   -1.192915   -4.069046
    153          1           0      -19.866508   -2.575579   -3.108929
    154          1           0      -18.728224   -2.916952   -4.424532
    155          1           0      -14.324256   -4.227866   -2.124624
    156          1           0      -15.273328   -7.784760    0.468235
    157          1           0      -14.008807   -6.797902    1.191918
    158          1           0      -13.523087   -7.828787   -0.042585
 ---------------------------------------------------------------------

 SCF Done:  E(RCAM-B3LYP) =  -4069.77737625     A.U. after   18 cycles

 Excitation energies and oscillator strengths:

 Excited State   1:      Singlet-A      1.7178 eV  721.76 nm  f=0.3715  <S**2>=0.000
     309 -> 315       -0.18147
     312 -> 314        0.68504
     309 <- 315       -0.10790
 This state for optimization and/or second-order correction.
 Total Energy, E(TD-HF/TD-DFT) =  -4069.71424798
 Copying the excited state density for this state as the 1-particle RhoCI density.

 Excited State   2:      Singlet-A      1.8347 eV  675.77 nm  f=0.3731  <S**2>=0.000
     310 -> 316        0.18806
     311 -> 313        0.68156
     310 <- 316        0.10395

 Excited State   3:      Singlet-A      2.2402 eV  553.45 nm  f=0.1579  <S**2>=0.000
     310 -> 313        0.65518
     311 -> 316       -0.25327

 Excited State   4:      Singlet-A      2.3103 eV  536.65 nm  f=0.0713  <S**2>=0.000
     309 -> 314        0.61632
     312 -> 315        0.33579

 Excited State   5:      Singlet-A      3.1279 eV  396.38 nm  f=0.0000  <S**2>=0.000
     312 -> 313        0.70709

 The electronic state is 1-A.
 Alpha  occ. eigenvalues --  -46.89359 -46.88949 -19.25805 -19.24893 -19.20521
 Alpha  occ. eigenvalues --  -19.20250 -19.19645 -19.19211 -19.18858 -19.18764
 Alpha  occ. eigenvalues --  -14.42659 -14.42105 -14.41479 -14.41127 -14.39981
 Alpha  occ. eigenvalues --  -14.39950 -14.39336 -14.38641 -10.40038 -10.38213
 Alpha  occ. eigenvalues --  -10.36974 -10.36524 -10.35368 -10.34815 -10.32125
 Alpha  occ. eigenvalues --  -10.31900 -10.31369 -10.31245 -10.30958 -10.30793
 Alpha  occ. eigenvalues --  -10.30731 -10.30661 -10.30618 -10.30607 -10.30532
 Alpha  occ. eigenvalues --  -10.30111 -10.29861 -10.29599 -10.29584 -10.29424
 Alpha  occ. eigenvalues --  -10.29322 -10.29205 -10.29015 -10.28497 -10.28485
 Alpha  occ. eigenvalues --  -10.28406 -10.28394 -10.28329 -10.28328 -10.28324
 Alpha  occ. eigenvalues --  -10.28053 -10.27966 -10.27833 -10.27778 -10.27762
 Alpha  occ. eigenvalues --  -10.27704 -10.27523 -10.27506 -10.27494 -10.27481
 Alpha  occ. eigenvalues --  -10.27406 -10.27365 -10.27290 -10.27259 -10.27176
 Alpha  occ. eigenvalues --  -10.27170 -10.27127 -10.27116 -10.26817 -10.26754
 Alpha  occ. eigenvalues --  -10.26681 -10.26607 -10.26592 -10.26497 -10.26210
 Alpha  occ. eigenvalues --  -10.26083 -10.26075 -10.25985 -10.25877 -10.25536
 Alpha  occ. eigenvalues --  -10.25488 -10.25466 -10.25365 -10.25220 -10.25195
 Alpha  occ. eigenvalues --  -10.23717  -3.17860  -3.17575  -1.92761  -1.92433
 Alpha  occ. eigenvalues --   -1.92333  -1.92145  -1.92046  -1.91879  -1.16485
 Alpha  occ. eigenvalues --   -1.14985  -1.12604  -1.10446  -1.09450  -1.09073
 Alpha  occ. eigenvalues --   -1.07036  -1.06634  -1.05780  -1.05199  -1.04632
 Alpha  occ. eigenvalues --   -1.04168  -1.03569  -1.03409  -1.02635  -1.01901
 Alpha  occ. eigenvalues --   -0.93153  -0.92342  -0.89187  -0.89165  -0.88866
 Alpha  occ. eigenvalues --   -0.88744  -0.88103  -0.88071  -0.87518  -0.86899
 Alpha  occ. eigenvalues --   -0.86828  -0.86102  -0.85586  -0.85585  -0.84543
 Alpha  occ. eigenvalues --   -0.84368  -0.83934  -0.83102  -0.82820  -0.82377
 Alpha  occ. eigenvalues --   -0.81934  -0.81686  -0.81033  -0.80726  -0.80104
 Alpha  occ. eigenvalues --   -0.80091  -0.78600  -0.78187  -0.77240  -0.76836
 Alpha  occ. eigenvalues --   -0.76794  -0.76633  -0.76540  -0.75708  -0.75258
 Alpha  occ. eigenvalues --   -0.74926  -0.72751  -0.72354  -0.71771  -0.71657
 Alpha  occ. eigenvalues --   -0.69657  -0.69313  -0.68929  -0.68758  -0.68454
 Alpha  occ. eigenvalues --   -0.67575  -0.66834  -0.66764  -0.65801  -0.65441
 Alpha  occ. eigenvalues --   -0.65210  -0.65067  -0.64662  -0.64598  -0.64221
 Alpha  occ. eigenvalues --   -0.63679  -0.62458  -0.61803  -0.60807  -0.60254
 Alpha  occ. eigenvalues --   -0.59642  -0.59502  -0.59237  -0.59085  -0.58673
 Alpha  occ. eigenvalues --   -0.58402  -0.57914  -0.57760  -0.57473  -0.57208
 Alpha  occ. eigenvalues --   -0.56532  -0.56164  -0.55622  -0.55474  -0.55184
 Alpha  occ. eigenvalues --   -0.54967  -0.54620  -0.54448  -0.54213  -0.54040
 Alpha  occ. eigenvalues --   -0.53782  -0.53779  -0.53607  -0.53105  -0.52952
 Alpha  occ. eigenvalues --   -0.52867  -0.52637  -0.52366  -0.52269  -0.52146
 Alpha  occ. eigenvalues --   -0.51669  -0.51581  -0.51288  -0.51207  -0.51153
 Alpha  occ. eigenvalues --   -0.50967  -0.50732  -0.50650  -0.50458  -0.50323
 Alpha  occ. eigenvalues --   -0.50032  -0.50002  -0.49706  -0.49379  -0.49367
 Alpha  occ. eigenvalues --   -0.49279  -0.49078  -0.48988  -0.48913  -0.48764
 Alpha  occ. eigenvalues --   -0.48608  -0.48590  -0.48367  -0.48291  -0.48158
 Alpha  occ. eigenvalues --   -0.47900  -0.47500  -0.47389  -0.47386  -0.47225
 Alpha  occ. eigenvalues --   -0.47042  -0.46731  -0.46630  -0.46470  -0.46259
 Alpha  occ. eigenvalues --   -0.46202  -0.46180  -0.45789  -0.45755  -0.45432
 Alpha  occ. eigenvalues --   -0.45402  -0.44988  -0.44930  -0.44806  -0.44643
 Alpha  occ. eigenvalues --   -0.44630  -0.44574  -0.44369  -0.44320  -0.44203
 Alpha  occ. eigenvalues --   -0.44058  -0.43942  -0.43895  -0.43801  -0.43303
 Alpha  occ. eigenvalues --   -0.43250  -0.43244  -0.43046  -0.42959  -0.42949
 Alpha  occ. eigenvalues --   -0.42698  -0.42653  -0.42474  -0.42409  -0.42277
 Alpha  occ. eigenvalues --   -0.42254  -0.42115  -0.42072  -0.41580  -0.41414
 Alpha  occ. eigenvalues --   -0.41349  -0.41082  -0.40624  -0.40398  -0.40292
 Alpha  occ. eigenvalues --   -0.39875  -0.39730  -0.39716  -0.39331  -0.38918
 Alpha  occ. eigenvalues --   -0.38604  -0.38249  -0.38079  -0.37659  -0.37529
 Alpha  occ. eigenvalues --   -0.37444  -0.37092  -0.37028  -0.36638  -0.36597
 Alpha  occ. eigenvalues --   -0.35924  -0.35645  -0.34774  -0.34419  -0.34168
 Alpha  occ. eigenvalues --   -0.33723  -0.33214  -0.32477  -0.31924  -0.31519
 Alpha  occ. eigenvalues --   -0.31434  -0.31219  -0.30994  -0.30604  -0.30364
 Alpha  occ. eigenvalues --   -0.30283  -0.29617  -0.29474  -0.24157  -0.23371
 Alpha  occ. eigenvalues --   -0.21362  -0.20846
 Alpha virt. eigenvalues --   -0.08251  -0.08201  -0.01822  -0.01075   0.00262
 Alpha virt. eigenvalues --    0.00571   0.01636   0.02035   0.02426   0.02746
 Alpha virt. eigenvalues --    0.03428   0.04200   0.05022   0.05209   0.05720

 Mulliken charges:
               1
     1  Mg   0.824268
     2  C    0.010005
     3  C   -0.058327
     4  C   -0.077473
     5  C   -0.071131
     6  N   -0.187798
     7  C   -0.104813
     8  C   -0.021630
     9  C   -0.036010
    10  C   -0.028522
    11  C    0.088098
    12  C    0.049000
    13  C   -0.037946
    14  H    0.035228
    15  N   -0.382890
    16  C    0.143320
    17  C   -0.137988
    18  C   -0.053128
    19  C    0.096479
    20  C    0.105615
    21  C    0.029686
    22  O   -0.167262
    23  C    0.040798
    24  N   -0.248115
    25  C    0.043884
    26  C   -0.049661
    27  C   -0.064525
    28  C    0.033782
    29  C    0.074625
    30  C    0.034654
    31  C    0.005242
    32  N   -0.317543
    33  C    0.075639
    34  C   -0.206287
    35  C    0.001032
    36  C    0.122241
    37  C    0.136333
    38  C    0.060772
    39  O   -0.161580
    40  C   -0.025055
    41  C    0.186386
    42  O   -0.243537
    43  O   -0.299425
    44  C    0.194970
    45  H   -0.035349
    46  H   -0.014014
    47  H   -0.022073
    48  H    0.017983
    49  H   -0.009351
    50  H    0.017781
    51  H    0.020657
    52  H    0.014787
    53  H    0.007809
    54  H    0.024756
    55  H    0.015711
    56  H    0.014648
    57  H    0.021427
    58  H    0.041771
    59  H    0.018455
    60  H    0.065193
    61  H    0.023206
    62  H    0.024018
    63  H    0.019511
    64  H   -0.009330
    65  H    0.020104
    66  H    0.023954
    67  H    0.021316
    68  H    0.012421
    69  H    0.003372
    70  H    0.029276
    71  H    0.014362
    72  H    0.015693
    73  H    0.005782
    74  H    0.029846
    75  H    0.032425
    76  H    0.043021
    77  H    0.030098
    78  H    0.042727
    79  H    0.006596
    80  Mg   0.851608
    81  C   -0.100115
    82  C   -0.078324
    83  C   -0.099259
    84  C   -0.088950
    85  N   -0.279380
    86  C   -0.081166
    87  C   -0.019349
    88  C   -0.002818
    89  C   -0.000118
    90  C    0.073899
    91  C    0.027090
    92  C   -0.064904
    93  H    0.020868
    94  N   -0.362097
    95  C    0.140179
    96  C   -0.140703
    97  C   -0.078404
    98  C    0.187242
    99  C    0.142662
   100  C    0.026476
   101  O   -0.197261
   102  C    0.035362
   103  N   -0.347403
   104  C    0.055824
   105  C   -0.054206
   106  C   -0.028381
   107  C    0.061104
   108  C    0.055243
   109  C    0.021379
   110  C    0.018576
   111  N   -0.317891
   112  C    0.107238
   113  C   -0.195257
   114  C   -0.057851
   115  C    0.233655
   116  C    0.136024
   117  C    0.071860
   118  O   -0.181971
   119  C    0.008122
   120  C    0.252114
   121  O   -0.249980
   122  O   -0.351308
   123  C    0.193026
   124  H   -0.033269
   125  H   -0.058025
   126  H   -0.041207
   127  H    0.023676
   128  H    0.018826
   129  H    0.021254
   130  H    0.018807
   131  H    0.026108
   132  H    0.015768
   133  H    0.023021
   134  H    0.041862
   135  H    0.033211
   136  H    0.040268
   137  H    0.001777
   138  H    0.020761
   139  H    0.054699
   140  H    0.038686
   141  H    0.025990
   142  H    0.018328
   143  H    0.011722
   144  H    0.016665
   145  H    0.015983
   146  H    0.011082
   147  H    0.024253
   148  H    0.000183
   149  H    0.028374
   150  H    0.019639
   151  H    0.019000
   152  H    0.013666
   153  H    0.031485
   154  H    0.042920
   155  H    0.030625
   156  H    0.050954
   157  H    0.016606
   158  H    0.033848
 Sum of Mulliken charges =  -0.00000

 Dipole moment (field-independent basis, Debye):
    X=             -1.3612    Y=              7.4817    Z=              3.6091  Tot=              8.4175
 Quadrupole moment (field-independent basis, Debye-Ang):
   XX=           -486.1396   YY=           -526.1153   ZZ=           -511.4688
   XY=              2.6030   XZ=              0.4263   YZ=            -20.2739

 Normal termination of Gaussian 16 at Wed Sep 15 15:22:55 2021.
