 Gaussian 16, Revision A.03,
 Gaussian 16:  ES64L-G16RevA.03 25-Dec-2016

 ----------------------------------------------------------
 #p cam-b3lyp/Def2SVP td=(nstates=5) density=(transition=1)
 ----------------------------------------------------------

 --------------------------------
 TDDFT excited states in gaussian
 --------------------------------
 Symbolic Z-matrix:
 Charge =  0 Multiplicity = 1

                         Standard orientation:
 ---------------------------------------------------------------------
 Center     Atomic      Atomic             Coordinates (Angstroms)
 Number     Number       Type             X           Y           Z
 ---------------------------------------------------------------------
      1         12           0      -24.207073    0.691249    0.112520
      2          6           0      -23.116555   -2.336183   -1.357114
      3          6           0      -22.372491    2.266425   -2.107010
      4          6           0      -24.421979    3.289800    2.145591
      5          6           0      -25.486034   -1.332739    2.738563
      6          7           0      -23.028439   -0.068682   -1.666469
      7          6           0      -22.788054   -1.244398   -2.120561
      8          6           0      -22.153640   -1.172769   -3.524798
      9          6           0      -21.482226    0.293647   -3.543676
     10          6           0      -22.280757    0.886067   -2.308944
     11          6           0      -19.914847    0.356109   -3.354979
     12          6           0      -23.289679   -1.260314   -4.672246
     13          6           0      -22.979557   -1.941111   -6.044641
     14          1           0      -21.483313   -1.882298   -6.526976
     15          7           0      -23.673232    2.587777   -0.063916
     16          6           0      -22.937937    3.057519   -1.141799
     17          6           0      -22.731211    4.537772   -0.961895
     18          6           0      -23.386509    4.835843    0.305230
     19          6           0      -23.881599    3.600562    0.918752
     20          6           0      -21.934464    5.348748   -1.966349
     21          6           0      -23.558534    6.197309    0.942072
     22          8           0      -24.086958    6.397122    2.044635
     23          6           0      -23.105335    7.388438    0.199574
     24          7           0      -24.984270    0.967971    2.188944
     25          6           0      -24.889752    2.153143    2.764115
     26          6           0      -25.776312    2.190107    4.087406
     27          6           0      -26.091072    0.606306    4.259416
     28          6           0      -25.516763    0.044431    2.961674
     29          6           0      -25.072517    2.879265    5.302858
     30          6           0      -27.578916    0.171256    4.467022
     31          6           0      -27.947620   -0.382724    5.819279
     32          7           0      -24.508142   -1.427643    0.549778
     33          6           0      -25.045031   -2.038502    1.665570
     34          6           0      -24.886042   -3.429847    1.575840
     35          6           0      -24.095633   -3.583891    0.421147
     36          6           0      -23.844836   -2.369550   -0.172641
     37          6           0      -25.341433   -4.445614    2.497815
     38          6           0      -23.546570   -4.601043   -0.388854
     39          8           0      -23.579901   -5.861516   -0.405514
     40          6           0      -22.647674   -3.807360   -1.440081
     41          6           0      -22.779363   -4.411044   -2.790106
     42          8           0      -23.788045   -4.486040   -3.488720
     43          8           0      -21.467494   -4.803502   -3.204305
     44          6           0      -21.344345   -5.442302   -4.520796
     45          1           0      -21.864503    2.748903   -2.945145
     46          1           0      -24.539989    4.170981    2.778646
     47          1           0      -25.951832   -1.947985    3.512055
     48          1           0      -21.288690   -1.835507   -3.516645
     49          1           0      -21.624878    0.719382   -4.536312
     50          1           0      -19.507568   -0.594847   -3.012279
     51          1           0      -19.631409    1.070631   -2.582376
     52          1           0      -19.510040    0.610766   -4.334397
     53          1           0      -23.710217   -0.275880   -4.878119
     54          1           0      -24.156194   -1.766831   -4.246704
     55          1           0      -23.558861   -1.537394   -6.875635
     56          1           0      -23.080501   -3.015621   -5.886890
     57          1           0      -22.424360    6.290805   -2.215196
     58          1           0      -21.737356    4.810008   -2.893202
     59          1           0      -20.911204    5.458916   -1.608168
     60          1           0      -22.042345    7.325101   -0.034819
     61          1           0      -23.297845    8.285626    0.787948
     62          1           0      -23.623926    7.584781   -0.738839
     63          1           0      -26.742942    2.669198    3.932271
     64          1           0      -25.435570    0.134859    4.993124
     65          1           0      -24.041124    3.128494    5.052782
     66          1           0      -25.255845    2.142104    6.084839
     67          1           0      -25.691293    3.731753    5.579997
     68          1           0      -27.790336   -0.612581    3.739362
     69          1           0      -28.236947    1.007523    4.230054
     70          1           0      -27.059200   -0.187359    6.418349
     71          1           0      -28.054852   -1.463169    5.716395
     72          1           0      -28.791030    0.128244    6.282032
     73          1           0      -26.402858   -4.263602    2.664062
     74          1           0      -24.997496   -4.345616    3.527327
     75          1           0      -25.202084   -5.431760    2.054481
     76          1           0      -21.610934   -3.860615   -1.106233
     77          1           0      -20.321213   -5.777507   -4.692913
     78          1           0      -21.468971   -4.677668   -5.287770
     79          1           0      -21.988232   -6.320551   -4.553592
     80         12           0       23.868975    0.562535   -0.611431
     81          6           0       23.268270   -2.832523    0.124301
     82          6           0       20.558199    1.138177   -0.050578
     83          6           0       24.580814    3.905128   -0.568887
     84          6           0       27.332771   -0.275397   -0.613967
     85          7           0       22.113124   -0.711064    0.121199
     86          6           0       22.025973   -2.070541    0.214356
     87          6           0       20.645012   -2.533698    0.709649
     88          6           0       19.819212   -1.238531    0.237294
     89          6           0       20.898049   -0.194820    0.087723
     90          6           0       19.003934   -1.400493   -1.073667
     91          6           0       20.541200   -2.742043    2.287366
     92          6           0       19.476689   -3.678888    2.837132
     93          1           0       18.260044   -3.163079    3.634780
     94          7           0       22.748693    2.383589   -0.382692
     95          6           0       21.386661    2.357976   -0.302479
     96          6           0       20.851223    3.640231   -0.435316
     97          6           0       21.995856    4.504001   -0.619425
     98          6           0       23.203764    3.639139   -0.501427
     99          6           0       19.364878    3.975941   -0.413312
    100          6           0       21.862862    5.992752   -0.847465
    101          8           0       20.718856    6.514420   -0.890203
    102          6           0       23.077451    6.939121   -1.150583
    103          7           0       25.683688    1.580493   -0.599355
    104          6           0       25.715280    3.001227   -0.617500
    105          6           0       27.095955    3.478740   -0.972486
    106          6           0       28.010053    2.273664   -0.661878
    107          6           0       26.992433    1.096381   -0.697993
    108          6           0       27.407056    3.926518   -2.418550
    109          6           0       28.686718    2.376439    0.804971
    110          6           0       29.963198    3.189209    0.960691
    111          7           0       25.032276   -1.244530   -0.485707
    112          6           0       26.407248   -1.423207   -0.513059
    113          6           0       26.755190   -2.743991   -0.301312
    114          6           0       25.523764   -3.387787   -0.090768
    115          6           0       24.510696   -2.419283   -0.190607
    116          6           0       28.151764   -3.280668   -0.308410
    117          6           0       24.932312   -4.608606    0.077191
    118          8           0       25.413625   -5.723931    0.042766
    119          6           0       23.483229   -4.261295    0.478382
    120          6           0       23.403099   -4.575824    1.942428
    121          8           0       24.107079   -4.086591    2.770158
    122          8           0       22.449102   -5.569062    2.170920
    123          6           0       22.453398   -6.021431    3.518628
    124          1           0       19.484802    1.336943   -0.085890
    125          1           0       24.851450    4.945365   -0.763895
    126          1           0       28.395257   -0.473831   -0.768083
    127          1           0       20.246357   -3.359233    0.120964
    128          1           0       19.091515   -1.036991    1.022894
    129          1           0       17.999422   -1.602726   -0.700910
    130          1           0       19.331282   -2.258185   -1.661175
    131          1           0       18.989693   -0.477937   -1.654232
    132          1           0       20.320055   -1.795811    2.781259
    133          1           0       21.541046   -3.012954    2.627203
    134          1           0       20.038426   -4.370308    3.466891
    135          1           0       19.098175   -4.261600    1.997479
    136          1           0       18.980203    4.768225   -1.056380
    137          1           0       19.269125    4.162793    0.656022
    138          1           0       18.787307    3.126519   -0.778059
    139          1           0       23.548670    6.635495   -2.084999
    140          1           0       23.700401    6.803232   -0.266737
    141          1           0       22.869221    8.008846   -1.134683
    142          1           0       27.334899    4.272002   -0.264892
    143          1           0       28.800851    2.152245   -1.402236
    144          1           0       28.096801    3.283258   -2.964682
    145          1           0       27.458844    5.012794   -2.495071
    146          1           0       26.472921    3.745394   -2.949993
    147          1           0       28.864916    1.319048    0.999557
    148          1           0       27.974714    2.764258    1.533740
    149          1           0       29.831740    3.908521    1.768578
    150          1           0       30.164210    3.723207    0.031544
    151          1           0       30.803807    2.557641    1.249256
    152          1           0       28.247832   -3.873245    0.600922
    153          1           0       28.904765   -2.495233   -0.232838
    154          1           0       28.352860   -3.929083   -1.161355
    155          1           0       22.813785   -4.908726   -0.086943
    156          1           0       23.111558   -6.884819    3.612120
    157          1           0       21.503139   -6.453148    3.835138
    158          1           0       22.783507   -5.251982    4.214447
 ---------------------------------------------------------------------

 SCF Done:  E(RCAM-B3LYP) =  -4069.75349277     A.U. after   19 cycles

 Excitation energies and oscillator strengths:

 Excited State   1:      Singlet-A      1.7066 eV  726.48 nm  f=0.3996  <S**2>=0.000
     309 -> 316       -0.18535
     311 -> 313        0.68241
     309 <- 316       -0.10819
 This state for optimization and/or second-order correction.
 Total Energy, E(TD-HF/TD-DFT) =  -4069.69077492
 Copying the excited state density for this state as the 1-particle RhoCI density.

 Excited State   2:      Singlet-A      1.7997 eV  688.91 nm  f=0.3674  <S**2>=0.000
     310 -> 315       -0.21209
     312 -> 314        0.67498
     310 <- 315       -0.10953

 Excited State   3:      Singlet-A      2.1433 eV  578.47 nm  f=0.1304  <S**2>=0.000
     309 -> 313        0.65034
     311 -> 316        0.26012

 Excited State   4:      Singlet-A      2.2245 eV  557.36 nm  f=0.0807  <S**2>=0.000
     310 -> 314        0.62933
     312 -> 315        0.30796

 Excited State   5:      Singlet-A      3.0892 eV  401.35 nm  f=0.0000  <S**2>=0.000
     312 -> 313        0.70710

 The electronic state is 1-A.
 Alpha  occ. eigenvalues --  -46.90338 -46.89410 -19.25415 -19.23962 -19.20946
 Alpha  occ. eigenvalues --  -19.20238 -19.19014 -19.18471 -19.18118 -19.17910
 Alpha  occ. eigenvalues --  -14.43202 -14.42694 -14.42170 -14.41741 -14.39990
 Alpha  occ. eigenvalues --  -14.39845 -14.39230 -14.38585 -10.39722 -10.39312
 Alpha  occ. eigenvalues --  -10.35142 -10.35051 -10.34507 -10.33379 -10.32425
 Alpha  occ. eigenvalues --  -10.32351 -10.31660 -10.31541 -10.31108 -10.31009
 Alpha  occ. eigenvalues --  -10.30983 -10.30965 -10.30769 -10.30739 -10.30726
 Alpha  occ. eigenvalues --  -10.30638 -10.30327 -10.30266 -10.30252 -10.29972
 Alpha  occ. eigenvalues --  -10.29350 -10.29258 -10.29120 -10.28680 -10.28663
 Alpha  occ. eigenvalues --  -10.28589 -10.28410 -10.28404 -10.28348 -10.28328
 Alpha  occ. eigenvalues --  -10.28324 -10.28235 -10.28086 -10.28077 -10.28028
 Alpha  occ. eigenvalues --  -10.27983 -10.27888 -10.27864 -10.27856 -10.27691
 Alpha  occ. eigenvalues --  -10.27613 -10.27574 -10.27558 -10.27508 -10.27486
 Alpha  occ. eigenvalues --  -10.27474 -10.27436 -10.27362 -10.26993 -10.26614
 Alpha  occ. eigenvalues --  -10.26515 -10.26504 -10.26400 -10.26394 -10.26393
 Alpha  occ. eigenvalues --  -10.26246 -10.26106 -10.26045 -10.25927 -10.25869
 Alpha  occ. eigenvalues --  -10.25843 -10.25828 -10.25683 -10.25423 -10.24659
 Alpha  occ. eigenvalues --  -10.24190  -3.18629  -3.17864  -1.93528  -1.93077
 Alpha  occ. eigenvalues --   -1.92927  -1.92767  -1.92330  -1.92149  -1.17663
 Alpha  occ. eigenvalues --   -1.13986  -1.10070  -1.09532  -1.09438  -1.07346
 Alpha  occ. eigenvalues --   -1.07307  -1.06746  -1.05801  -1.05781  -1.05229
 Alpha  occ. eigenvalues --   -1.04675  -1.03947  -1.03507  -1.01940  -1.01487
 Alpha  occ. eigenvalues --   -0.94367  -0.92975  -0.89516  -0.88992  -0.88749
 Alpha  occ. eigenvalues --   -0.88707  -0.88628  -0.87916  -0.87591  -0.87570
 Alpha  occ. eigenvalues --   -0.87394  -0.87127  -0.86927  -0.85937  -0.84412
 Alpha  occ. eigenvalues --   -0.84292  -0.83991  -0.83662  -0.82942  -0.82742
 Alpha  occ. eigenvalues --   -0.82077  -0.81916  -0.81528  -0.80719  -0.80687
 Alpha  occ. eigenvalues --   -0.80377  -0.78986  -0.78099  -0.77731  -0.77416
 Alpha  occ. eigenvalues --   -0.76988  -0.76978  -0.75994  -0.75908  -0.75720
 Alpha  occ. eigenvalues --   -0.75255  -0.73639  -0.73241  -0.72283  -0.72274
 Alpha  occ. eigenvalues --   -0.69516  -0.68949  -0.68613  -0.68505  -0.68462
 Alpha  occ. eigenvalues --   -0.67944  -0.67244  -0.67193  -0.66339  -0.65942
 Alpha  occ. eigenvalues --   -0.65679  -0.65613  -0.65394  -0.64778  -0.64618
 Alpha  occ. eigenvalues --   -0.64248  -0.62840  -0.61275  -0.60554  -0.60554
 Alpha  occ. eigenvalues --   -0.60182  -0.60164  -0.59641  -0.59306  -0.59215
 Alpha  occ. eigenvalues --   -0.59053  -0.58365  -0.58091  -0.57759  -0.57356
 Alpha  occ. eigenvalues --   -0.57014  -0.56533  -0.55811  -0.55784  -0.55498
 Alpha  occ. eigenvalues --   -0.55338  -0.55111  -0.54466  -0.53875  -0.53812
 Alpha  occ. eigenvalues --   -0.53581  -0.53550  -0.53238  -0.53226  -0.52984
 Alpha  occ. eigenvalues --   -0.52822  -0.52633  -0.52624  -0.52491  -0.52307
 Alpha  occ. eigenvalues --   -0.52259  -0.51858  -0.51572  -0.51471  -0.51249
 Alpha  occ. eigenvalues --   -0.51128  -0.50936  -0.50847  -0.50638  -0.50566
 Alpha  occ. eigenvalues --   -0.50365  -0.50179  -0.49884  -0.49860  -0.49773
 Alpha  occ. eigenvalues --   -0.49578  -0.49380  -0.49220  -0.49026  -0.48842
 Alpha  occ. eigenvalues --   -0.48805  -0.48684  -0.48464  -0.48399  -0.48062
 Alpha  occ. eigenvalues --   -0.47969  -0.47827  -0.47633  -0.47374  -0.47331
 Alpha  occ. eigenvalues --   -0.47256  -0.47049  -0.47034  -0.46810  -0.46628
 Alpha  occ. eigenvalues --   -0.46427  -0.46375  -0.46319  -0.46122  -0.46050
 Alpha  occ. eigenvalues --   -0.45813  -0.45605  -0.45359  -0.45312  -0.45105
 Alpha  occ. eigenvalues --   -0.44931  -0.44744  -0.44622  -0.44245  -0.43947
 Alpha  occ. eigenvalues --   -0.43930  -0.43877  -0.43795  -0.43576  -0.43361
 Alpha  occ. eigenvalues --   -0.43354  -0.43283  -0.43006  -0.42968  -0.42624
 Alpha  occ. eigenvalues --   -0.42616  -0.42526  -0.42212  -0.41954  -0.41706
 Alpha  occ. eigenvalues --   -0.41597  -0.41575  -0.41350  -0.41217  -0.41192
 Alpha  occ. eigenvalues --   -0.41076  -0.41043  -0.40773  -0.40665  -0.40532
 Alpha  occ. eigenvalues --   -0.40332  -0.40307  -0.40072  -0.39424  -0.39048
 Alpha  occ. eigenvalues --   -0.38516  -0.38506  -0.37848  -0.37832  -0.37671
 Alpha  occ. eigenvalues --   -0.37417  -0.37161  -0.36981  -0.36608  -0.36465
 Alpha  occ. eigenvalues --   -0.36126  -0.35657  -0.35524  -0.35079  -0.34495
 Alpha  occ. eigenvalues --   -0.33920  -0.33567  -0.33436  -0.31813  -0.31470
 Alpha  occ. eigenvalues --   -0.31311  -0.30521  -0.30471  -0.30265  -0.30057
 Alpha  occ. eigenvalues --   -0.29949  -0.29542  -0.29312  -0.24346  -0.24178
 Alpha  occ. eigenvalues --   -0.22060  -0.21689
 Alpha virt. eigenvalues --   -0.09615  -0.08630  -0.02666  -0.02504  -0.00253
 Alpha virt. eigenvalues --   -0.00102   0.01400   0.02241   0.02308   0.02575
 Alpha virt. eigenvalues --    0.04276   0.04562   0.05130   0.05483   0.05491

 Mulliken charges:
               1
     1  Mg  12.000002
     2  C    5.999915
     3  C    5.999979
     4  C    6.000076
     5  C    6.000052
     6  N    6.999994
     7  C    6.000088
     8  C    5.999996
     9  C    6.000041
    10  C    5.999915
    11  C    6.000027
    12  C    5.999990
    13  C    6.000000
    14  H    0.999995
    15  N    7.000040
    16  C    5.999875
    17  C    5.999854
    18  C    6.000013
    19  C    5.999827
    20  C    6.000058
    21  C    5.999924
    22  O    7.999908
    23  C    6.000044
    24  N    6.999993
    25  C    5.999896
    26  C    6.000042
    27  C    5.999981
    28  C    6.000065
    29  C    6.000007
    30  C    5.999965
    31  C    6.000000
    32  N    7.000010
    33  C    6.000095
    34  C    6.000170
    35  C    5.999962
    36  C    6.000139
    37  C    5.999950
    38  C    6.000082
    39  O    8.000151
    40  C    5.999998
    41  C    6.000023
    42  O    8.000034
    43  O    8.000000
    44  C    5.999980
    45  H    0.999952
    46  H    0.999975
    47  H    1.000047
    48  H    0.999992
    49  H    0.999963
    50  H    0.999953
    51  H    0.999976
    52  H    0.999947
    53  H    1.000037
    54  H    0.999996
    55  H    1.000017
    56  H    1.000012
    57  H    0.999908
    58  H    0.999917
    59  H    0.999859
    60  H    0.999933
    61  H    0.999923
    62  H    0.999972
    63  H    0.999992
    64  H    0.999997
    65  H    0.999990
    66  H    0.999982
    67  H    0.999998
    68  H    0.999995
    69  H    1.000049
    70  H    1.000012
    71  H    1.000010
    72  H    1.000038
    73  H    1.000100
    74  H    1.000120
    75  H    1.000087
    76  H    1.000021
    77  H    1.000024
    78  H    1.000010
    79  H    1.000040
    80  Mg  12.000020
    81  C    6.001237
    82  C    5.967097
    83  C    5.986940
    84  C    6.036056
    85  N    6.987988
    86  C    5.967274
    87  C    6.011851
    88  C    5.987566
    89  C    6.040686
    90  C    5.996446
    91  C    6.001932
    92  C    6.002132
    93  H    0.987866
    94  N    6.989738
    95  C    6.050738
    96  C    6.016704
    97  C    6.014706
    98  C    6.041711
    99  C    5.998387
   100  C    6.009719
   101  O    8.025413
   102  C    5.998872
   103  N    7.015288
   104  C    6.029619
   105  C    5.988363
   106  C    6.007807
   107  C    5.956697
   108  C    6.002951
   109  C    6.001658
   110  C    5.999618
   111  N    7.001879
   112  C    5.955611
   113  C    5.978749
   114  C    5.990477
   115  C    5.977726
   116  C    6.003920
   117  C    5.982691
   118  O    7.964398
   119  C    6.005829
   120  C    5.994985
   121  O    7.996435
   122  O    7.996826
   123  C    6.004121
   124  H    1.003571
   125  H    1.011154
   126  H    0.996340
   127  H    0.998350
   128  H    1.001856
   129  H    1.004097
   130  H    1.012502
   131  H    0.992368
   132  H    0.987099
   133  H    1.006365
   134  H    1.001893
   135  H    0.998392
   136  H    1.015098
   137  H    1.017490
   138  H    1.020712
   139  H    1.009963
   140  H    1.008220
   141  H    1.014353
   142  H    1.001930
   143  H    1.000092
   144  H    1.014264
   145  H    1.001095
   146  H    0.997451
   147  H    1.007588
   148  H    0.989299
   149  H    0.995628
   150  H    0.995624
   151  H    1.002551
   152  H    0.984465
   153  H    0.979210
   154  H    0.981325
   155  H    0.988130
   156  H    0.997006
   157  H    0.992572
   158  H    0.995218
 Sum of Mulliken charges = 624.00000

 Dipole moment (field-independent basis, Debye):
    X=             -4.6169    Y=             10.0505    Z=             -1.0785  Tot=             11.1127
 Quadrupole moment (field-independent basis, Debye-Ang):
   XX=           -218.4380   YY=              8.7397   ZZ=             -0.8547
   XY=            237.1005   XZ=            -23.1043   YZ=             -2.8458

 Normal termination of Gaussian 16 at Wed Sep 22 03:08:30 2021.
