 Gaussian 16, Revision A.03,
 Gaussian 16:  ES64L-G16RevA.03 25-Dec-2016

 ----------------------------------------------------------
 #p cam-b3lyp/Def2SVP td=(nstates=5) density=(transition=1)
 ----------------------------------------------------------

 --------------------------------
 TDDFT excited states in gaussian
 --------------------------------
 Symbolic Z-matrix:
 Charge =  0 Multiplicity = 1

                         Standard orientation:
 ---------------------------------------------------------------------
 Center     Atomic      Atomic             Coordinates (Angstroms)
 Number     Number       Type             X           Y           Z
 ---------------------------------------------------------------------
      1         12           0       24.681928   -0.647640    0.494519
      2          6           0       25.190904    2.069425   -1.779401
      3          6           0       25.401932    1.528356    3.022305
      4          6           0       24.684543   -3.122181    2.477764
      5          6           0       25.121175   -2.800306   -2.210800
      6          7           0       25.211782    1.501755    0.494938
      7          6           0       25.314766    2.442056   -0.439084
      8          6           0       25.491815    3.875757    0.144465
      9          6           0       26.103016    3.494863    1.566910
     10          6           0       25.509353    2.105856    1.722310
     11          6           0       27.624093    3.381621    1.565909
     12          6           0       24.127891    4.630804    0.290568
     13          6           0       24.238743    6.137470    0.541611
     14          1           0       23.243091    7.020565   -0.046750
     15          7           0       24.516790   -0.712767    2.462091
     16          6           0       24.840930    0.271229    3.335001
     17          6           0       24.537032   -0.261266    4.680651
     18          6           0       24.188953   -1.701702    4.532062
     19          6           0       24.478678   -1.912417    3.136699
     20          6           0       24.545986    0.580194    5.919851
     21          6           0       23.686498   -2.728394    5.497243
     22          8           0       23.669974   -3.975535    5.216281
     23          6           0       23.291585   -2.238989    6.830497
     24          7           0       25.091396   -2.677644    0.231734
     25          6           0       24.962027   -3.544160    1.242376
     26          6           0       25.029795   -4.962131    0.757913
     27          6           0       24.989586   -4.886901   -0.836602
     28          6           0       24.987851   -3.346935   -1.000226
     29          6           0       26.262784   -5.762251    1.200133
     30          6           0       23.885714   -5.705841   -1.551600
     31          6           0       22.526994   -5.122788   -1.233753
     32          7           0       24.908814   -0.437531   -1.653834
     33          6           0       25.101059   -1.467402   -2.586080
     34          6           0       25.309680   -0.828654   -3.898538
     35          6           0       25.240349    0.537761   -3.634060
     36          6           0       25.029598    0.740298   -2.240197
     37          6           0       25.585967   -1.504463   -5.119759
     38          6           0       25.319854    1.874281   -4.200848
     39          8           0       25.392180    2.328709   -5.343546
     40          6           0       25.412680    2.921172   -3.004508
     41          6           0       24.424665    4.020507   -3.284864
     42          8           0       23.197063    3.796634   -3.269382
     43          8           0       25.062907    5.200823   -3.291365
     44          6           0       24.134685    6.337172   -3.534817
     45          1           0       25.838443    2.056582    3.872232
     46          1           0       24.583089   -4.007665    3.108687
     47          1           0       25.180255   -3.409964   -3.114282
     48          1           0       26.191193    4.506683   -0.404378
     49          1           0       25.739012    4.152954    2.355669
     50          1           0       28.028386    3.454887    0.556404
     51          1           0       27.843394    2.403174    1.993743
     52          1           0       28.067291    4.111331    2.244051
     53          1           0       23.644371    4.323306    1.217776
     54          1           0       23.494947    4.455996   -0.580151
     55          1           0       25.244560    6.503310    0.333282
     56          1           0       24.100569    6.317140    1.607832
     57          1           0       24.999284    1.554100    5.739364
     58          1           0       25.216816    0.095567    6.628957
     59          1           0       23.552723    0.674564    6.359004
     60          1           0       24.145291   -1.752345    7.302634
     61          1           0       22.874570   -3.098088    7.354804
     62          1           0       22.527277   -1.470338    6.712349
     63          1           0       24.174270   -5.537008    1.110076
     64          1           0       25.917255   -5.241653   -1.286329
     65          1           0       26.020033   -6.679428    1.737312
     66          1           0       26.889344   -5.108343    1.806036
     67          1           0       26.945762   -6.031675    0.394920
     68          1           0       23.884949   -6.734781   -1.193511
     69          1           0       24.002728   -5.731830   -2.635059
     70          1           0       22.284557   -5.579171   -0.274706
     71          1           0       21.802286   -5.409076   -1.996674
     72          1           0       22.582894   -4.045380   -1.077058
     73          1           0       24.971434   -1.023210   -5.880492
     74          1           0       25.361094   -2.568044   -5.043402
     75          1           0       26.653473   -1.309610   -5.221341
     76          1           0       26.438686    3.287421   -2.987366
     77          1           0       24.515384    6.883344   -4.397950
     78          1           0       24.051187    6.876701   -2.591238
     79          1           0       23.134008    6.076469   -3.881254
     80         12           0      -24.266343   -0.689523   -0.170178
     81          6           0      -25.721415    1.928202    1.618231
     82          6           0      -22.780097    1.505984   -2.182067
     83          6           0      -24.058638   -3.168246   -2.514936
     84          6           0      -25.883897   -2.948748    1.931178
     85          7           0      -24.121902    1.503997   -0.164733
     86          6           0      -24.772756    2.325066    0.650391
     87          6           0      -24.286465    3.796185    0.387567
     88          6           0      -23.440050    3.634261   -0.897768
     89          6           0      -23.449731    2.127003   -1.134350
     90          6           0      -24.095996    4.308581   -2.202974
     91          6           0      -23.444483    4.456395    1.571847
     92          6           0      -23.814665    5.881277    1.803331
     93          1           0      -22.723841    6.939842    1.856082
     94          7           0      -23.496935   -0.801302   -2.070890
     95          6           0      -22.889881    0.229333   -2.738327
     96          6           0      -22.185597   -0.318943   -3.905768
     97          6           0      -22.568717   -1.686565   -3.991492
     98          6           0      -23.459597   -1.911352   -2.841012
     99          6           0      -21.324982    0.555590   -4.872500
    100          6           0      -22.212998   -2.730433   -5.092676
    101          8           0      -22.587232   -3.897766   -5.081138
    102          6           0      -21.345736   -2.291628   -6.211408
    103          7           0      -24.884137   -2.687086   -0.301717
    104          6           0      -24.759138   -3.542015   -1.400898
    105          6           0      -25.564920   -4.841749   -1.141422
    106          6           0      -25.554339   -4.953466    0.446103
    107          6           0      -25.416078   -3.423278    0.685943
    108          6           0      -26.953276   -4.842808   -1.816560
    109          6           0      -24.418087   -5.709269    1.074342
    110          6           0      -23.063659   -5.083930    1.229547
    111          7           0      -25.380564   -0.623232    1.567565
    112          6           0      -26.010857   -1.602561    2.299885
    113          6           0      -26.744098   -1.048613    3.440433
    114          6           0      -26.751761    0.392705    3.165783
    115          6           0      -25.906715    0.564029    2.000952
    116          6           0      -27.499150   -1.790411    4.420064
    117          6           0      -27.260900    1.691341    3.589617
    118          8           0      -28.024302    2.011172    4.421818
    119          6           0      -26.528199    2.760525    2.623115
    120          6           0      -27.452750    3.785633    2.016554
    121          8           0      -28.008610    3.681445    0.927132
    122          8           0      -27.488087    4.900902    2.852961
    123          6           0      -28.314881    6.045477    2.429334
    124          1           0      -22.083075    2.053433   -2.820531
    125          1           0      -23.970539   -3.905237   -3.316368
    126          1           0      -26.282272   -3.710985    2.603498
    127          1           0      -25.111558    4.463116    0.136274
    128          1           0      -22.432667    4.049475   -0.868727
    129          1           0      -23.692391    5.319093   -2.269915
    130          1           0      -25.176890    4.441768   -2.166008
    131          1           0      -23.775106    3.733247   -3.072166
    132          1           0      -22.373894    4.432122    1.367820
    133          1           0      -23.510349    3.949605    2.534721
    134          1           0      -24.217114    5.867327    2.815850
    135          1           0      -24.585469    6.318695    1.169421
    136          1           0      -22.011810    0.902427   -5.644048
    137          1           0      -20.464791    0.005210   -5.254385
    138          1           0      -21.049364    1.528772   -4.464843
    139          1           0      -21.465224   -1.314385   -6.678926
    140          1           0      -21.415159   -3.007208   -7.030317
    141          1           0      -20.305997   -2.504913   -5.961668
    142          1           0      -24.925385   -5.620231   -1.556437
    143          1           0      -26.478755   -5.377752    0.837536
    144          1           0      -27.809512   -5.043231   -1.172488
    145          1           0      -26.986998   -5.412028   -2.745783
    146          1           0      -27.174973   -3.849644   -2.206769
    147          1           0      -24.184889   -6.654498    0.585667
    148          1           0      -24.729408   -5.995725    2.078996
    149          1           0      -23.102972   -4.702436    2.249693
    150          1           0      -22.855122   -4.231305    0.582922
    151          1           0      -22.298261   -5.852456    1.116939
    152          1           0      -27.373284   -1.251382    5.359231
    153          1           0      -27.033746   -2.771953    4.506429
    154          1           0      -28.552556   -1.816354    4.142955
    155          1           0      -25.810887    3.303044    3.238954
    156          1           0      -29.310596    5.655080    2.217269
    157          1           0      -27.932424    6.479663    1.505960
    158          1           0      -28.431526    6.901188    3.094562
 ---------------------------------------------------------------------

 SCF Done:  E(RCAM-B3LYP) =  -4069.82131286     A.U. after   18 cycles

 Excitation energies and oscillator strengths:

 Excited State   1:      Singlet-A      1.6798 eV  738.08 nm  f=0.2579  <S**2>=0.000
     309 -> 315        0.17220
     311 -> 313        0.67272
     312 -> 314        0.13299
     309 <- 315        0.10313
 This state for optimization and/or second-order correction.
 Total Energy, E(TD-HF/TD-DFT) =  -4069.75958094
 Copying the excited state density for this state as the 1-particle RhoCI density.

 Excited State   2:      Singlet-A      1.6811 eV  737.50 nm  f=0.5083  <S**2>=0.000
     310 -> 316        0.17369
     311 -> 313       -0.13280
     312 -> 314        0.67353
     310 <- 316        0.10651

 Excited State   3:      Singlet-A      2.1925 eV  565.48 nm  f=0.0984  <S**2>=0.000
     309 -> 313        0.64073
     311 -> 315       -0.27826

 Excited State   4:      Singlet-A      2.2559 eV  549.59 nm  f=0.1051  <S**2>=0.000
     310 -> 314        0.63272
     312 -> 316       -0.30599

 Excited State   5:      Singlet-A      3.0789 eV  402.69 nm  f=0.0000  <S**2>=0.000
     312 -> 313        0.70711

 The electronic state is 1-A.
 Alpha  occ. eigenvalues --  -46.87917 -46.87792 -19.26280 -19.25018 -19.20097
 Alpha  occ. eigenvalues --  -19.19684 -19.19179 -19.19016 -19.18810 -19.18165
 Alpha  occ. eigenvalues --  -14.42445 -14.42191 -14.41445 -14.41420 -14.39398
 Alpha  occ. eigenvalues --  -14.39281 -14.39223 -14.38582 -10.39689 -10.39075
 Alpha  occ. eigenvalues --  -10.35644 -10.35519 -10.35443 -10.34385 -10.31798
 Alpha  occ. eigenvalues --  -10.31675 -10.31400 -10.31330 -10.30904 -10.30589
 Alpha  occ. eigenvalues --  -10.30583 -10.30565 -10.30503 -10.30202 -10.30000
 Alpha  occ. eigenvalues --  -10.29916 -10.29882 -10.29746 -10.29626 -10.29473
 Alpha  occ. eigenvalues --  -10.29385 -10.29249 -10.28777 -10.28744 -10.28661
 Alpha  occ. eigenvalues --  -10.28533 -10.28378 -10.28360 -10.28296 -10.28289
 Alpha  occ. eigenvalues --  -10.28215 -10.28111 -10.27906 -10.27788 -10.27722
 Alpha  occ. eigenvalues --  -10.27664 -10.27579 -10.27557 -10.27534 -10.27497
 Alpha  occ. eigenvalues --  -10.27476 -10.27445 -10.27399 -10.27154 -10.27076
 Alpha  occ. eigenvalues --  -10.26888 -10.26701 -10.26699 -10.26404 -10.26229
 Alpha  occ. eigenvalues --  -10.26180 -10.26118 -10.26083 -10.26050 -10.26015
 Alpha  occ. eigenvalues --  -10.25928 -10.25840 -10.25807 -10.25565 -10.25536
 Alpha  occ. eigenvalues --  -10.25431 -10.25372 -10.24828 -10.24783 -10.24683
 Alpha  occ. eigenvalues --  -10.24546  -3.16619  -3.16534  -1.91523  -1.91416
 Alpha  occ. eigenvalues --   -1.91051  -1.91003  -1.90947  -1.90845  -1.16628
 Alpha  occ. eigenvalues --   -1.15153  -1.12943  -1.10156  -1.08623  -1.07450
 Alpha  occ. eigenvalues --   -1.07211  -1.06638  -1.05178  -1.04576  -1.03756
 Alpha  occ. eigenvalues --   -1.03576  -1.03229  -1.02866  -1.02406  -1.02134
 Alpha  occ. eigenvalues --   -0.91967  -0.91867  -0.89515  -0.89183  -0.89029
 Alpha  occ. eigenvalues --   -0.88630  -0.88282  -0.88017  -0.87866  -0.87668
 Alpha  occ. eigenvalues --   -0.87269  -0.87180  -0.86896  -0.86302  -0.84977
 Alpha  occ. eigenvalues --   -0.84176  -0.83932  -0.83593  -0.82962  -0.82644
 Alpha  occ. eigenvalues --   -0.82539  -0.81862  -0.81581  -0.80996  -0.80592
 Alpha  occ. eigenvalues --   -0.80362  -0.78792  -0.78241  -0.77268  -0.77214
 Alpha  occ. eigenvalues --   -0.76929  -0.76730  -0.75918  -0.75846  -0.74894
 Alpha  occ. eigenvalues --   -0.74861  -0.72770  -0.72244  -0.71667  -0.71466
 Alpha  occ. eigenvalues --   -0.69903  -0.69224  -0.68868  -0.68494  -0.67749
 Alpha  occ. eigenvalues --   -0.67636  -0.67214  -0.66755  -0.65704  -0.65281
 Alpha  occ. eigenvalues --   -0.64849  -0.64616  -0.64612  -0.64265  -0.64235
 Alpha  occ. eigenvalues --   -0.64094  -0.62293  -0.61800  -0.60437  -0.60145
 Alpha  occ. eigenvalues --   -0.59799  -0.59591  -0.58983  -0.58872  -0.58499
 Alpha  occ. eigenvalues --   -0.58100  -0.57764  -0.57580  -0.57304  -0.57229
 Alpha  occ. eigenvalues --   -0.56305  -0.55974  -0.55803  -0.55522  -0.55515
 Alpha  occ. eigenvalues --   -0.55345  -0.55335  -0.54834  -0.54519  -0.54096
 Alpha  occ. eigenvalues --   -0.53890  -0.53565  -0.53376  -0.53294  -0.53217
 Alpha  occ. eigenvalues --   -0.52963  -0.52910  -0.52751  -0.52509  -0.52434
 Alpha  occ. eigenvalues --   -0.52164  -0.51911  -0.51770  -0.51620  -0.51611
 Alpha  occ. eigenvalues --   -0.51379  -0.51235  -0.51191  -0.50567  -0.50402
 Alpha  occ. eigenvalues --   -0.50173  -0.50068  -0.50027  -0.49913  -0.49614
 Alpha  occ. eigenvalues --   -0.49521  -0.49510  -0.49210  -0.49145  -0.49091
 Alpha  occ. eigenvalues --   -0.48603  -0.48588  -0.48457  -0.48440  -0.48313
 Alpha  occ. eigenvalues --   -0.47987  -0.47797  -0.47690  -0.47292  -0.46960
 Alpha  occ. eigenvalues --   -0.46792  -0.46790  -0.46591  -0.46550  -0.46354
 Alpha  occ. eigenvalues --   -0.46276  -0.46158  -0.46094  -0.45818  -0.45745
 Alpha  occ. eigenvalues --   -0.45502  -0.45197  -0.45193  -0.44948  -0.44631
 Alpha  occ. eigenvalues --   -0.44573  -0.44502  -0.44386  -0.44163  -0.44140
 Alpha  occ. eigenvalues --   -0.44083  -0.44015  -0.43726  -0.43490  -0.43381
 Alpha  occ. eigenvalues --   -0.43322  -0.43247  -0.43022  -0.42799  -0.42694
 Alpha  occ. eigenvalues --   -0.42661  -0.42650  -0.42005  -0.41879  -0.41699
 Alpha  occ. eigenvalues --   -0.41572  -0.41529  -0.41526  -0.41362  -0.41183
 Alpha  occ. eigenvalues --   -0.41136  -0.40864  -0.40818  -0.40567  -0.40496
 Alpha  occ. eigenvalues --   -0.40232  -0.40229  -0.39436  -0.39128  -0.38661
 Alpha  occ. eigenvalues --   -0.38464  -0.38064  -0.37743  -0.37676  -0.37316
 Alpha  occ. eigenvalues --   -0.37258  -0.36975  -0.36709  -0.36586  -0.36529
 Alpha  occ. eigenvalues --   -0.36188  -0.35909  -0.34460  -0.34281  -0.34281
 Alpha  occ. eigenvalues --   -0.33766  -0.33182  -0.32805  -0.31404  -0.31339
 Alpha  occ. eigenvalues --   -0.31218  -0.31031  -0.31011  -0.30025  -0.30022
 Alpha  occ. eigenvalues --   -0.29554  -0.29444  -0.29317  -0.24076  -0.23982
 Alpha  occ. eigenvalues --   -0.21123  -0.20776
 Alpha virt. eigenvalues --   -0.08769  -0.08462  -0.01745  -0.01378  -0.00053
 Alpha virt. eigenvalues --    0.00405   0.02205   0.02422   0.02793   0.03127
 Alpha virt. eigenvalues --    0.04566   0.04723   0.05103   0.05583   0.06065

 Mulliken charges:
               1
     1  Mg  12.000343
     2  C    5.980683
     3  C    6.018775
     4  C    6.016624
     5  C    5.978311
     6  N    6.992171
     7  C    6.034229
     8  C    5.991565
     9  C    6.008844
    10  C    5.970906
    11  C    6.001165
    12  C    5.995706
    13  C    5.998698
    14  H    0.999777
    15  N    7.007433
    16  C    5.955825
    17  C    5.972677
    18  C    5.982508
    19  C    5.973488
    20  C    6.007191
    21  C    5.986287
    22  O    7.969561
    23  C    6.005431
    24  N    7.000137
    25  C    5.970545
    26  C    6.012688
    27  C    5.986221
    28  C    6.034939
    29  C    5.999833
    30  C    5.996196
    31  C    5.998538
    32  N    6.992733
    33  C    6.053430
    34  C    6.020480
    35  C    6.009268
    36  C    6.033097
    37  C    5.994631
    38  C    6.013728
    39  O    8.031750
    40  C    6.002638
    41  C    6.003277
    42  O    8.004224
    43  O    8.001816
    44  C    5.998238
    45  H    0.992601
    46  H    0.993779
    47  H    1.008886
    48  H    0.999573
    49  H    1.000138
    50  H    0.983084
    51  H    1.004719
    52  H    0.996408
    53  H    1.014711
    54  H    0.994150
    55  H    1.000861
    56  H    1.007151
    57  H    0.978436
    58  H    0.978358
    59  H    0.977470
    60  H    0.994747
    61  H    0.984622
    62  H    0.992748
    63  H    1.000288
    64  H    1.004497
    65  H    0.999433
    66  H    1.005363
    67  H    0.989226
    68  H    1.009879
    69  H    0.996972
    70  H    1.012354
    71  H    1.001477
    72  H    0.996730
    73  H    1.017268
    74  H    1.018391
    75  H    1.019865
    76  H    1.007778
    77  H    1.003004
    78  H    1.006209
    79  H    1.002214
    80  Mg  12.000275
    81  C    5.994048
    82  C    6.000273
    83  C    6.006774
    84  C    6.000238
    85  N    6.997629
    86  C    6.007667
    87  C    5.997841
    88  C    6.001714
    89  C    5.994591
    90  C    6.001499
    91  C    5.999622
    92  C    5.999957
    93  H    1.001182
    94  N    7.001641
    95  C    5.992064
    96  C    5.995779
    97  C    5.997502
    98  C    5.990797
    99  C    6.000503
   100  C    5.997264
   101  O    7.994488
   102  C    6.002092
   103  N    7.003683
   104  C    5.992097
   105  C    6.000862
   106  C    5.998370
   107  C    6.004160
   108  C    5.999857
   109  C    5.998746
   110  C    5.999254
   111  N    6.998946
   112  C    6.005937
   113  C    6.007079
   114  C    6.001099
   115  C    6.006638
   116  C    5.998658
   117  C    6.002634
   118  O    8.004890
   119  C    6.000968
   120  C    6.000550
   121  O    8.001612
   122  O    8.000007
   123  C    5.999508
   124  H    0.997666
   125  H    0.999304
   126  H    1.002975
   127  H    1.000236
   128  H    0.999092
   129  H    0.997931
   130  H    0.997453
   131  H    1.001477
   132  H    1.001624
   133  H    0.998674
   134  H    0.999125
   135  H    1.000254
   136  H    0.996246
   137  H    0.996703
   138  H    0.996401
   139  H    0.998840
   140  H    0.997000
   141  H    0.997753
   142  H    1.000661
   143  H    1.000441
   144  H    0.997632
   145  H    1.000540
   146  H    1.000262
   147  H    1.002464
   148  H    0.999728
   149  H    0.998630
   150  H    1.002621
   151  H    1.001544
   152  H    1.003966
   153  H    1.003432
   154  H    1.005050
   155  H    1.001183
   156  H    1.000158
   157  H    1.001229
   158  H    1.000710
 Sum of Mulliken charges = 624.00000

 Dipole moment (field-independent basis, Debye):
    X=             -0.4125    Y=              1.0434    Z=             -8.9276  Tot=              8.9978
 Quadrupole moment (field-independent basis, Debye-Ang):
   XX=             84.8629   YY=              3.6074   ZZ=            -13.1720
   XY=             26.8108   XZ=           -310.4792   YZ=              4.8389

 Normal termination of Gaussian 16 at Wed Sep 22 09:39:18 2021.
