 Gaussian 16, Revision A.03,
 Gaussian 16:  ES64L-G16RevA.03 25-Dec-2016

 -----------------------------------
 #p cam-b3lyp/Def2SVP td=(nstates=5)
 -----------------------------------

 --------------------------------
 TDDFT excited states in gaussian
 --------------------------------
 Symbolic Z-matrix:
 Charge =  0 Multiplicity = 1

                         Standard orientation:
 ---------------------------------------------------------------------
 Center     Atomic      Atomic             Coordinates (Angstroms)
 Number     Number       Type             X           Y           Z
 ---------------------------------------------------------------------
      1         12           0      -25.207778   -0.372494   -0.260248
      2          6           0      -23.875268    2.779689   -0.665460
      3          6           0      -25.875467    0.474927    2.986769
      4          6           0      -26.248254   -3.547762    0.229132
      5          6           0      -23.960894   -1.302835   -3.369729
      6          7           0      -24.740820    1.453076    1.008676
      7          6           0      -24.404376    2.617715    0.606284
      8          6           0      -24.433200    3.798634    1.707638
      9          6           0      -24.806258    2.916336    2.963819
     10          6           0      -25.096438    1.473754    2.330554
     11          6           0      -23.626711    2.747124    4.057951
     12          6           0      -25.460995    4.977122    1.419348
     13          6           0      -25.084315    6.415203    1.923977
     14          1           0      -23.915215    6.515120    2.856632
     15          7           0      -26.007986   -1.356892    1.305422
     16          6           0      -26.308164   -0.810908    2.614990
     17          6           0      -26.964916   -1.861633    3.385664
     18          6           0      -26.978979   -3.066851    2.640209
     19          6           0      -26.438894   -2.682683    1.316448
     20          6           0      -27.487213   -1.488977    4.726403
     21          6           0      -27.534646   -4.469284    2.981795
     22          8           0      -27.406244   -5.452351    2.314480
     23          6           0      -28.147905   -4.598992    4.390752
     24          7           0      -25.051907   -2.251385   -1.331163
     25          6           0      -25.531130   -3.395482   -0.957447
     26          6           0      -25.067757   -4.547573   -1.893506
     27          6           0      -24.435530   -3.812508   -3.099655
     28          6           0      -24.485544   -2.346512   -2.608623
     29          6           0      -24.099507   -5.501396   -1.161926
     30          6           0      -25.190702   -4.094879   -4.434628
     31          6           0      -25.003925   -5.512580   -4.998914
     32          7           0      -24.122981    0.528488   -1.766280
     33          6           0      -23.784603    0.039805   -3.015652
     34          6           0      -23.165342    1.127054   -3.726867
     35          6           0      -23.113963    2.260265   -2.861010
     36          6           0      -23.766030    1.788527   -1.689232
     37          6           0      -22.637940    1.044185   -5.039281
     38          6           0      -22.785172    3.640344   -2.696375
     39          8           0      -22.158067    4.401009   -3.492432
     40          6           0      -23.171823    3.979938   -1.204729
     41          6           0      -21.961426    4.397228   -0.529753
     42          8           0      -21.123589    3.625541   -0.063622
     43          8           0      -21.876297    5.760124   -0.659339
     44          6           0      -20.564301    6.300929   -0.245436
     45          1           0      -26.077250    0.707602    4.033995
     46          1           0      -26.628500   -4.547612    0.451672
     47          1           0      -23.652188   -1.626042   -4.366532
     48          1           0      -23.390878    4.112881    1.767331
     49          1           0      -25.656766    3.351994    3.487789
     50          1           0      -22.680398    2.982423    3.570065
     51          1           0      -23.609434    1.720233    4.422721
     52          1           0      -23.702727    3.367887    4.951282
     53          1           0      -26.359837    4.664968    1.950419
     54          1           0      -25.897839    5.004999    0.420512
     55          1           0      -25.904840    6.937212    2.416113
     56          1           0      -24.764543    7.016000    1.072522
     57          1           0      -26.701137   -1.560773    5.478634
     58          1           0      -28.422314   -1.991362    4.974386
     59          1           0      -27.791254   -0.444333    4.664640
     60          1           0      -29.127176   -4.133143    4.505150
     61          1           0      -27.381031   -4.122517    5.000634
     62          1           0      -28.231457   -5.612847    4.781047
     63          1           0      -26.011902   -5.015886   -2.170643
     64          1           0      -23.383100   -4.084121   -3.181284
     65          1           0      -23.558775   -5.071778   -0.318352
     66          1           0      -23.254395   -5.902631   -1.722284
     67          1           0      -24.720623   -6.325753   -0.811686
     68          1           0      -24.809694   -3.421145   -5.200852
     69          1           0      -26.254350   -3.891490   -4.306055
     70          1           0      -24.432796   -6.084487   -4.267575
     71          1           0      -24.289911   -5.471114   -5.821587
     72          1           0      -25.874448   -6.051737   -5.371769
     73          1           0      -23.395435    0.498619   -5.602137
     74          1           0      -21.707538    0.487937   -5.152307
     75          1           0      -22.398019    2.052148   -5.379298
     76          1           0      -23.831414    4.840907   -1.316375
     77          1           0      -19.840422    5.917952   -0.965312
     78          1           0      -20.354568    6.101838    0.804982
     79          1           0      -20.612401    7.384077   -0.358662
     80         12           0       24.212207   -0.774110   -0.046475
     81          6           0       25.760996    2.288853   -0.721130
     82          6           0       22.611449    0.566179    2.485508
     83          6           0       23.334438   -3.922911    1.011057
     84          6           0       26.310463   -2.316990   -2.430245
     85          7           0       24.147136    1.205457    0.673530
     86          6           0       24.785512    2.350833    0.251260
     87          6           0       24.250580    3.589611    0.958005
     88          6           0       23.420566    2.952967    2.118563
     89          6           0       23.295274    1.531462    1.693117
     90          6           0       23.857938    3.158609    3.552765
     91          6           0       23.483846    4.591935    0.037296
     92          6           0       22.966203    5.854234    0.735449
     93          1           0       23.342140    7.178068    0.086118
     94          7           0       23.117494   -1.605371    1.651178
     95          6           0       22.412041   -0.834608    2.504980
     96          6           0       21.622546   -1.676970    3.360016
     97          6           0       21.911328   -3.006616    3.007639
     98          6           0       22.837983   -2.879577    1.850042
     99          6           0       20.724490   -1.155855    4.462062
    100          6           0       21.355637   -4.282201    3.550826
    101          8           0       21.763940   -5.444706    3.286764
    102          6           0       20.153689   -4.255337    4.487080
    103          7           0       24.763864   -2.784049   -0.603589
    104          6           0       24.312533   -3.890078    0.032527
    105          6           0       24.752971   -5.212428   -0.798574
    106          6           0       25.298347   -4.590655   -2.131971
    107          6           0       25.417403   -3.144671   -1.771239
    108          6           0       25.809972   -6.023976    0.047871
    109          6           0       24.222444   -4.686741   -3.274650
    110          6           0       22.813961   -4.174494   -3.016708
    111          7           0       25.740245   -0.155869   -1.416666
    112          6           0       26.460799   -0.920605   -2.292483
    113          6           0       27.321247   -0.064140   -2.967297
    114          6           0       27.157247    1.240439   -2.418946
    115          6           0       26.175919    1.132792   -1.468883
    116          6           0       28.349176   -0.386790   -3.993742
    117          6           0       27.589433    2.656490   -2.417741
    118          8           0       28.460205    3.273991   -3.020068
    119          6           0       26.606864    3.412890   -1.365628
    120          6           0       27.389337    4.306201   -0.470357
    121          8           0       28.552101    4.055436   -0.034426
    122          8           0       26.715413    5.444527   -0.376361
    123          6           0       27.517331    6.572461    0.057651
    124          1           0       21.968319    0.979282    3.265526
    125          1           0       23.036445   -4.930097    1.311997
    126          1           0       26.847324   -2.804684   -3.245390
    127          1           0       25.148887    4.134054    1.249705
    128          1           0       22.387042    3.300190    2.141921
    129          1           0       24.528812    3.995274    3.747648
    130          1           0       24.300300    2.234471    3.925734
    131          1           0       22.954761    3.146345    4.163187
    132          1           0       22.662249    4.076355   -0.460616
    133          1           0       24.142174    4.901927   -0.773594
    134          1           0       23.536672    6.069973    1.638670
    135          1           0       21.897479    5.784195    0.940131
    136          1           0       20.807639   -0.086100    4.653557
    137          1           0       20.960594   -1.499479    5.468880
    138          1           0       19.667369   -1.365845    4.296386
    139          1           0       20.477133   -3.819033    5.431725
    140          1           0       19.893336   -5.251025    4.845423
    141          1           0       19.267948   -3.804298    4.038264
    142          1           0       23.889375   -5.864058   -0.931642
    143          1           0       26.274260   -5.053863   -2.277204
    144          1           0       25.867397   -5.708915    1.089911
    145          1           0       26.833131   -5.942271   -0.319331
    146          1           0       25.577495   -7.084431    0.134057
    147          1           0       24.233384   -5.766425   -3.424218
    148          1           0       24.516993   -4.226529   -4.217324
    149          1           0       22.674926   -3.978945   -1.953227
    150          1           0       21.998653   -4.767798   -3.429242
    151          1           0       22.781001   -3.272311   -3.627561
    152          1           0       27.968324   -0.939951   -4.852633
    153          1           0       29.058632   -1.038329   -3.484395
    154          1           0       28.888840    0.495005   -4.337617
    155          1           0       25.983403    4.038675   -2.003690
    156          1           0       27.279225    7.452203   -0.541537
    157          1           0       28.597484    6.461229   -0.034144
    158          1           0       27.232972    6.758214    1.093895
 ---------------------------------------------------------------------

 SCF Done:  E(RCAM-B3LYP) =  -4069.83470741     A.U. after   19 cycles

 Excitation energies and oscillator strengths:

 Excited State   1:      Singlet-A      1.7144 eV  723.18 nm  f=0.3917  <S**2>=0.000
     309 -> 316       -0.16596
     311 -> 313        0.68904
     309 <- 316       -0.10310
 This state for optimization and/or second-order correction.
 Total Energy, E(TD-HF/TD-DFT) =  -4069.77170284
 Copying the excited state density for this state as the 1-particle RhoCI density.

 Excited State   2:      Singlet-A      1.7725 eV  699.50 nm  f=0.3826  <S**2>=0.000
     310 -> 315        0.19901
     312 -> 314        0.67935
     310 <- 315        0.10974

 Excited State   3:      Singlet-A      2.1453 eV  577.93 nm  f=0.1688  <S**2>=0.000
     309 -> 313        0.66340
     311 -> 316        0.22678

 Excited State   4:      Singlet-A      2.2144 eV  559.89 nm  f=0.1115  <S**2>=0.000
     310 -> 314        0.64302
     312 -> 315       -0.28129

 Excited State   5:      Singlet-A      3.0413 eV  407.67 nm  f=0.0000  <S**2>=0.000
     312 -> 313        0.70711

 The electronic state is 1-A.
 Alpha  occ. eigenvalues --  -46.89381 -46.88407 -19.26662 -19.24810 -19.20174
 Alpha  occ. eigenvalues --  -19.19319 -19.19110 -19.19050 -19.18453 -19.18250
 Alpha  occ. eigenvalues --  -14.42902 -14.42230 -14.41825 -14.41549 -14.39763
 Alpha  occ. eigenvalues --  -14.39688 -14.38954 -14.38025 -10.39239 -10.38566
 Alpha  occ. eigenvalues --  -10.36283 -10.35757 -10.34826 -10.34772 -10.32119
 Alpha  occ. eigenvalues --  -10.32020 -10.31850 -10.31286 -10.31091 -10.31016
 Alpha  occ. eigenvalues --  -10.30782 -10.30693 -10.30680 -10.30628 -10.30485
 Alpha  occ. eigenvalues --  -10.30434 -10.30348 -10.30097 -10.29765 -10.29444
 Alpha  occ. eigenvalues --  -10.29252 -10.29226 -10.28999 -10.28940 -10.28933
 Alpha  occ. eigenvalues --  -10.28524 -10.28313 -10.28305 -10.28250 -10.28218
 Alpha  occ. eigenvalues --  -10.28198 -10.28172 -10.28103 -10.27882 -10.27865
 Alpha  occ. eigenvalues --  -10.27798 -10.27789 -10.27778 -10.27765 -10.27704
 Alpha  occ. eigenvalues --  -10.27625 -10.27569 -10.27186 -10.27149 -10.27114
 Alpha  occ. eigenvalues --  -10.27070 -10.26929 -10.26691 -10.26572 -10.26502
 Alpha  occ. eigenvalues --  -10.26486 -10.26479 -10.26472 -10.26285 -10.26169
 Alpha  occ. eigenvalues --  -10.26146 -10.26125 -10.25678 -10.25668 -10.25417
 Alpha  occ. eigenvalues --  -10.25405 -10.25339 -10.24887 -10.24663 -10.24463
 Alpha  occ. eigenvalues --  -10.24274  -3.17769  -3.17021  -1.92678  -1.92194
 Alpha  occ. eigenvalues --   -1.92084  -1.91914  -1.91482  -1.91324  -1.18098
 Alpha  occ. eigenvalues --   -1.15535  -1.12527  -1.08796  -1.08371  -1.07238
 Alpha  occ. eigenvalues --   -1.06759  -1.05922  -1.05412  -1.05395  -1.04363
 Alpha  occ. eigenvalues --   -1.04327  -1.03468  -1.03338  -1.02460  -1.00883
 Alpha  occ. eigenvalues --   -0.92534  -0.91856  -0.89600  -0.89331  -0.89285
 Alpha  occ. eigenvalues --   -0.88405  -0.88370  -0.87987  -0.87854  -0.87494
 Alpha  occ. eigenvalues --   -0.87140  -0.86972  -0.86866  -0.85682  -0.84804
 Alpha  occ. eigenvalues --   -0.83924  -0.83764  -0.83492  -0.82910  -0.82337
 Alpha  occ. eigenvalues --   -0.81859  -0.81750  -0.81337  -0.81062  -0.80671
 Alpha  occ. eigenvalues --   -0.80290  -0.78883  -0.78559  -0.77587  -0.77401
 Alpha  occ. eigenvalues --   -0.77358  -0.76396  -0.76126  -0.75765  -0.75236
 Alpha  occ. eigenvalues --   -0.74852  -0.72751  -0.72217  -0.71749  -0.71476
 Alpha  occ. eigenvalues --   -0.69911  -0.69425  -0.69182  -0.68802  -0.68352
 Alpha  occ. eigenvalues --   -0.68194  -0.67685  -0.67002  -0.65833  -0.65532
 Alpha  occ. eigenvalues --   -0.65418  -0.65203  -0.64766  -0.64679  -0.64564
 Alpha  occ. eigenvalues --   -0.64092  -0.62741  -0.61565  -0.61018  -0.60034
 Alpha  occ. eigenvalues --   -0.59779  -0.59380  -0.59249  -0.59144  -0.58534
 Alpha  occ. eigenvalues --   -0.58293  -0.57890  -0.57676  -0.57613  -0.57229
 Alpha  occ. eigenvalues --   -0.56209  -0.56036  -0.56002  -0.55802  -0.55732
 Alpha  occ. eigenvalues --   -0.55465  -0.55320  -0.55170  -0.54563  -0.54397
 Alpha  occ. eigenvalues --   -0.53986  -0.53365  -0.53275  -0.53164  -0.53140
 Alpha  occ. eigenvalues --   -0.52963  -0.52928  -0.52736  -0.52537  -0.52081
 Alpha  occ. eigenvalues --   -0.51919  -0.51718  -0.51576  -0.51384  -0.51126
 Alpha  occ. eigenvalues --   -0.50979  -0.50952  -0.50728  -0.50566  -0.50451
 Alpha  occ. eigenvalues --   -0.50395  -0.50113  -0.49527  -0.49444  -0.49154
 Alpha  occ. eigenvalues --   -0.49109  -0.48967  -0.48856  -0.48581  -0.48540
 Alpha  occ. eigenvalues --   -0.48491  -0.48474  -0.48360  -0.48205  -0.48105
 Alpha  occ. eigenvalues --   -0.47846  -0.47799  -0.47242  -0.47202  -0.47047
 Alpha  occ. eigenvalues --   -0.46766  -0.46640  -0.46496  -0.46464  -0.46385
 Alpha  occ. eigenvalues --   -0.46245  -0.46043  -0.45962  -0.45857  -0.45614
 Alpha  occ. eigenvalues --   -0.45443  -0.45182  -0.45132  -0.44869  -0.44733
 Alpha  occ. eigenvalues --   -0.44456  -0.44417  -0.44294  -0.44284  -0.44179
 Alpha  occ. eigenvalues --   -0.43862  -0.43750  -0.43726  -0.43532  -0.43419
 Alpha  occ. eigenvalues --   -0.43217  -0.43208  -0.42933  -0.42878  -0.42786
 Alpha  occ. eigenvalues --   -0.42677  -0.42586  -0.42355  -0.42277  -0.42075
 Alpha  occ. eigenvalues --   -0.41770  -0.41724  -0.41680  -0.41477  -0.41439
 Alpha  occ. eigenvalues --   -0.41237  -0.41199  -0.40867  -0.40664  -0.40500
 Alpha  occ. eigenvalues --   -0.40216  -0.39821  -0.39611  -0.39404  -0.39252
 Alpha  occ. eigenvalues --   -0.38672  -0.38229  -0.37992  -0.37898  -0.37630
 Alpha  occ. eigenvalues --   -0.37308  -0.36921  -0.36893  -0.36578  -0.36572
 Alpha  occ. eigenvalues --   -0.36332  -0.36300  -0.34320  -0.34081  -0.33952
 Alpha  occ. eigenvalues --   -0.33908  -0.33449  -0.32907  -0.31951  -0.31765
 Alpha  occ. eigenvalues --   -0.31208  -0.31155  -0.30793  -0.30396  -0.30157
 Alpha  occ. eigenvalues --   -0.30105  -0.29180  -0.28510  -0.24069  -0.23680
 Alpha  occ. eigenvalues --   -0.21773  -0.21251
 Alpha virt. eigenvalues --   -0.09374  -0.08432  -0.01704  -0.01290  -0.00044
 Alpha virt. eigenvalues --   -0.00030   0.01794   0.02081   0.02501   0.02594
 Alpha virt. eigenvalues --    0.04441   0.04656   0.05454   0.05680   0.05927

 Mulliken charges:
               1
     1  Mg   0.834114
     2  C    0.046672
     3  C   -0.061067
     4  C   -0.071274
     5  C   -0.093679
     6  N   -0.207361
     7  C   -0.140032
     8  C    0.027005
     9  C   -0.087865
    10  C    0.045294
    11  C    0.043961
    12  C    0.065411
    13  C   -0.077239
    14  H    0.020397
    15  N   -0.449238
    16  C    0.144352
    17  C   -0.127413
    18  C   -0.063066
    19  C    0.122870
    20  C    0.101057
    21  C    0.037219
    22  O   -0.159069
    23  C    0.015507
    24  N   -0.261517
    25  C    0.011081
    26  C    0.001196
    27  C   -0.019813
    28  C    0.031449
    29  C    0.063926
    30  C    0.026412
    31  C    0.015651
    32  N   -0.333842
    33  C    0.151039
    34  C   -0.160987
    35  C    0.054010
    36  C    0.083230
    37  C    0.103579
    38  C    0.016007
    39  O   -0.220100
    40  C   -0.011485
    41  C    0.205069
    42  O   -0.233941
    43  O   -0.336041
    44  C    0.186349
    45  H   -0.027689
    46  H   -0.015352
    47  H   -0.031264
    48  H    0.025807
    49  H    0.014669
    50  H    0.026767
    51  H    0.017628
    52  H    0.017606
    53  H   -0.007394
    54  H    0.015281
    55  H    0.035058
    56  H    0.042410
    57  H    0.043206
    58  H    0.020488
    59  H    0.020693
    60  H    0.049394
    61  H    0.033192
    62  H    0.022845
    63  H    0.011395
    64  H    0.008379
    65  H    0.021622
    66  H    0.013241
    67  H    0.028459
    68  H    0.004146
    69  H    0.007225
    70  H    0.004339
    71  H    0.003659
    72  H    0.027928
    73  H    0.017378
    74  H    0.026253
    75  H    0.033195
    76  H    0.032848
    77  H    0.049795
    78  H    0.038639
    79  H    0.030323
    80  Mg   0.807890
    81  C    0.045513
    82  C   -0.061149
    83  C   -0.047182
    84  C   -0.073300
    85  N   -0.322597
    86  C   -0.057805
    87  C    0.013231
    88  C   -0.034184
    89  C    0.075008
    90  C    0.092348
    91  C    0.063782
    92  C   -0.073669
    93  H    0.013798
    94  N   -0.299748
    95  C    0.075903
    96  C   -0.092480
    97  C   -0.003282
    98  C    0.074266
    99  C    0.096259
   100  C   -0.003943
   101  O   -0.229670
   102  C    0.052597
   103  N   -0.284296
   104  C    0.052198
   105  C   -0.096592
   106  C    0.025685
   107  C    0.020360
   108  C    0.057901
   109  C    0.029675
   110  C    0.003957
   111  N   -0.330802
   112  C    0.139887
   113  C   -0.184905
   114  C    0.005556
   115  C    0.046739
   116  C    0.122844
   117  C    0.080768
   118  O   -0.165200
   119  C   -0.062088
   120  C    0.199356
   121  O   -0.251077
   122  O   -0.299812
   123  C    0.166062
   124  H   -0.050007
   125  H   -0.001701
   126  H   -0.028097
   127  H    0.004707
   128  H    0.004260
   129  H    0.033355
   130  H    0.011574
   131  H    0.004362
   132  H   -0.001614
   133  H    0.022249
   134  H    0.025060
   135  H    0.040146
   136  H    0.004973
   137  H    0.026487
   138  H    0.032558
   139  H    0.022848
   140  H    0.017789
   141  H    0.042539
   142  H    0.018049
   143  H    0.003609
   144  H    0.022326
   145  H    0.011577
   146  H    0.017918
   147  H    0.004119
   148  H    0.005129
   149  H    0.037418
   150  H    0.019608
   151  H    0.011978
   152  H    0.013050
   153  H    0.020272
   154  H    0.033476
   155  H    0.052779
   156  H    0.035650
   157  H    0.061840
   158  H    0.031913
 Sum of Mulliken charges =  -0.00000

 Dipole moment (field-independent basis, Debye):
    X=             -9.5002    Y=              0.5541    Z=              5.4185  Tot=             10.9508
 Quadrupole moment (field-independent basis, Debye-Ang):
   XX=           -663.7221   YY=           -505.6166   ZZ=           -486.5437
   XY=              4.0234   XZ=            -35.0830   YZ=             54.6177

 Normal termination of Gaussian 16 at Thu Sep 16 05:44:04 2021.
