 Gaussian 16, Revision A.03,
 Gaussian 16:  ES64L-G16RevA.03 25-Dec-2016

 -----------------------------------------------------------
 #p cam-b3lyp/Def2SVP td=(nstates=5, root=1) density=current
 -----------------------------------------------------------

 --------------------------------
 TDDFT excited states in gaussian
 --------------------------------
 Symbolic Z-matrix:
 Charge =  0 Multiplicity = 1

                         Standard orientation:
 ---------------------------------------------------------------------
 Center     Atomic      Atomic             Coordinates (Angstroms)
 Number     Number       Type             X           Y           Z
 ---------------------------------------------------------------------
      1         12           0        0.748815    0.197377   -0.401714
      2          6           0       -2.743272    0.249838   -0.362138
      3          6           0        0.521997   -3.284205   -0.053046
      4          6           0        4.047496    0.020213    0.133354
      5          6           0        0.746028    3.567631    0.294476
      6          7           0       -0.951988   -1.412419   -0.329273
      7          6           0       -2.262032   -1.053172   -0.273088
      8          6           0       -3.181186   -2.330324   -0.128703
      9          6           0       -2.074625   -3.446423    0.227615
     10          6           0       -0.754224   -2.695026   -0.011473
     11          6           0       -2.189402   -3.743029    1.765098
     12          6           0       -3.826856   -2.604387   -1.536554
     13          6           0       -4.677710   -3.893988   -1.694000
     14          1           0       -4.680514   -4.890873   -2.814521
     15          7           0        2.074019   -1.410862   -0.220567
     16          6           0        1.828359   -2.791361   -0.133580
     17          6           0        3.063574   -3.438589    0.015616
     18          6           0        4.101793   -2.526272   -0.117134
     19          6           0        3.426182   -1.239686   -0.082211
     20          6           0        3.126308   -4.929304    0.085094
     21          6           0        5.652696   -2.730782   -0.109245
     22          8           0        6.478544   -1.835382   -0.251276
     23          6           0        6.288934   -4.123195   -0.136199
     24          7           0        2.144921    1.586175    0.250253
     25          6           0        3.463679    1.289353    0.246452
     26          6           0        4.375277    2.522671    0.399052
     27          6           0        3.314600    3.641852    0.591831
     28          6           0        2.000112    2.960520    0.256117
     29          6           0        5.509094    2.365373    1.465980
     30          6           0        3.539683    4.974109   -0.174472
     31          6           0        3.257003    4.957368   -1.616760
     32          7           0       -0.658954    1.674077   -0.181441
     33          6           0       -0.535216    2.953318    0.086559
     34          6           0       -1.823190    3.652469    0.032288
     35          6           0       -2.723894    2.556228   -0.158170
     36          6           0       -1.989170    1.389734   -0.242496
     37          6           0       -2.094468    5.062124   -0.217425
     38          6           0       -4.132382    2.246241   -0.330481
     39          8           0       -5.093175    2.973843   -0.439719
     40          6           0       -4.170980    0.714529   -0.393672
     41          6           0       -5.082763    0.124029    0.687012
     42          8           0       -4.773663    0.002048    1.843785
     43          8           0       -6.309957   -0.163500    0.138957
     44          6           0       -7.247982   -0.748889    1.124356
     45          1           0        0.440179   -4.372101   -0.076108
     46          1           0        5.139114    0.022570    0.096775
     47          1           0        1.029705    4.617590    0.385176
     48          1           0       -3.886561   -2.246600    0.698453
     49          1           0       -2.162059   -4.371730   -0.343189
     50          1           0       -1.406276   -3.330768    2.400573
     51          1           0       -1.976303   -4.789094    1.986550
     52          1           0       -3.142434   -3.446787    2.202888
     53          1           0       -3.019008   -2.597058   -2.267784
     54          1           0       -4.418578   -1.724135   -1.789245
     55          1           0       -5.696739   -3.554748   -1.505697
     56          1           0       -4.303735   -4.477296   -0.853483
     57          1           0        2.164974   -5.443724    0.079859
     58          1           0        3.800160   -5.196491    0.900270
     59          1           0        3.611830   -5.207383   -0.850746
     60          1           0        6.126378   -4.698415    0.775348
     61          1           0        7.340944   -4.137281   -0.421564
     62          1           0        5.834887   -4.647787   -0.977089
     63          1           0        4.799153    2.503941   -0.604591
     64          1           0        3.309359    3.815555    1.667892
     65          1           0        5.814358    1.323785    1.560396
     66          1           0        5.138302    2.700747    2.434912
     67          1           0        6.413939    2.914462    1.204664
     68          1           0        4.601839    5.142572    0.000339
     69          1           0        3.021062    5.784522    0.338106
     70          1           0        2.190131    5.110174   -1.778884
     71          1           0        3.625324    4.041446   -2.078439
     72          1           0        3.718315    5.800677   -2.131547
     73          1           0       -1.215992    5.421334   -0.753996
     74          1           0       -2.159909    5.758674    0.618568
     75          1           0       -3.016430    5.100797   -0.796625
     76          1           0       -4.535658    0.434093   -1.382384
     77          1           0       -8.253400   -0.400044    0.889433
     78          1           0       -7.160780   -0.381931    2.147238
     79          1           0       -7.262115   -1.835901    1.051909
 ---------------------------------------------------------------------

 SCF Done:  E(RCAM-B3LYP) =  -2034.91916165     A.U. after   19 cycles

 Excitation energies and oscillator strengths:

 Excited State   1:      Singlet-A      1.7451 eV  710.49 nm  f=0.3903  <S**2>=0.000
     155 ->158        -0.18618
     156 ->157         0.68382
     155 <-158        -0.10702
 This state for optimization and/or second-order correction.
 Total Energy, E(TD-HF/TD-DFT) =  -2034.85503224
 Copying the excited state density for this state as the 1-particle RhoCI density.

 Excited State   2:      Singlet-A      2.2617 eV  548.19 nm  f=0.1158  <S**2>=0.000
     155 ->157         0.64506
     156 ->158         0.27666

 Excited State   3:      Singlet-A      3.4419 eV  360.22 nm  f=0.0336  <S**2>=0.000
     153 ->157         0.51031
     154 ->157        -0.41831
     156 ->158        -0.18672

 Excited State   4:      Singlet-A      3.5244 eV  351.79 nm  f=0.0774  <S**2>=0.000
     152 ->157        -0.14003
     153 ->157         0.24688
     154 ->157         0.50299
     156 ->158        -0.35533

 Excited State   5:      Singlet-A      3.6486 eV  339.81 nm  f=0.3543  <S**2>=0.000
     150 ->159        -0.10012
     151 ->157        -0.31701
     151 ->161        -0.12134
     152 ->157         0.20345
     152 ->159        -0.19797
     153 ->157         0.23815
     154 ->157         0.16666
     155 ->157        -0.18851
     156 ->158         0.35886

 The electronic state is 1-A.
 Alpha  occ. eigenvalues --  -46.88710 -19.25790 -19.20418 -19.19436 -19.18838
 Alpha  occ. eigenvalues --  -14.42248 -14.41064 -14.39149 -14.39141 -10.39784
 Alpha  occ. eigenvalues --  -10.36171 -10.34514 -10.31818 -10.31080 -10.30634
 Alpha  occ. eigenvalues --  -10.30579 -10.30363 -10.29965 -10.29653 -10.29621
 Alpha  occ. eigenvalues --  -10.28702 -10.28680 -10.28561 -10.28398 -10.27966
 Alpha  occ. eigenvalues --  -10.27741 -10.27647 -10.27601 -10.27509 -10.27428
 Alpha  occ. eigenvalues --  -10.27278 -10.27104 -10.27038 -10.26963 -10.26354
 Alpha  occ. eigenvalues --  -10.26196 -10.25994 -10.25993 -10.25838 -10.25293
 Alpha  occ. eigenvalues --  -10.25275 -10.25132 -10.24299  -3.17273  -1.92160
 Alpha  occ. eigenvalues --   -1.91742  -1.91560  -1.16837  -1.10402  -1.10304
 Alpha  occ. eigenvalues --   -1.08773  -1.04974  -1.03786  -1.03352  -1.02444
 Alpha  occ. eigenvalues --   -0.93826  -0.89438  -0.88568  -0.88251  -0.87488
 Alpha  occ. eigenvalues --   -0.87225  -0.86203  -0.84071  -0.83629  -0.82409
 Alpha  occ. eigenvalues --   -0.81542  -0.80929  -0.80416  -0.78516  -0.77599
 Alpha  occ. eigenvalues --   -0.76588  -0.76156  -0.74866  -0.72486  -0.71804
 Alpha  occ. eigenvalues --   -0.70055  -0.69167  -0.68360  -0.67009  -0.65375
 Alpha  occ. eigenvalues --   -0.64831  -0.64445  -0.64014  -0.62493  -0.60074
 Alpha  occ. eigenvalues --   -0.59452  -0.59382  -0.58638  -0.58246  -0.57354
 Alpha  occ. eigenvalues --   -0.56556  -0.55732  -0.55509  -0.55239  -0.54601
 Alpha  occ. eigenvalues --   -0.54018  -0.53252  -0.53143  -0.52693  -0.52550
 Alpha  occ. eigenvalues --   -0.52099  -0.51136  -0.51019  -0.50604  -0.50288
 Alpha  occ. eigenvalues --   -0.49926  -0.49632  -0.49458  -0.49223  -0.48977
 Alpha  occ. eigenvalues --   -0.48825  -0.48500  -0.47905  -0.47503  -0.47099
 Alpha  occ. eigenvalues --   -0.46663  -0.46120  -0.46004  -0.45740  -0.45372
 Alpha  occ. eigenvalues --   -0.45079  -0.44973  -0.44738  -0.44430  -0.44212
 Alpha  occ. eigenvalues --   -0.44083  -0.43858  -0.43670  -0.43341  -0.43248
 Alpha  occ. eigenvalues --   -0.42905  -0.42578  -0.42408  -0.42395  -0.41851
 Alpha  occ. eigenvalues --   -0.41662  -0.40775  -0.40258  -0.39614  -0.38845
 Alpha  occ. eigenvalues --   -0.38479  -0.37850  -0.37750  -0.37330  -0.36718
 Alpha  occ. eigenvalues --   -0.36360  -0.34931  -0.34273  -0.33165  -0.31445
 Alpha  occ. eigenvalues --   -0.31094  -0.30811  -0.30055  -0.29185  -0.23795
 Alpha  occ. eigenvalues --   -0.21077
 Alpha virt. eigenvalues --   -0.08387  -0.01333   0.00432   0.01895   0.02553
 Alpha virt. eigenvalues --    0.05145   0.05541   0.06287   0.07092   0.08040
 Alpha virt. eigenvalues --    0.08597   0.09198   0.09455   0.10038   0.10652

 Mulliken charges:
               1
     1  Mg   0.828543
     2  C   -0.015865
     3  C   -0.071917
     4  C   -0.108875
     5  C   -0.063613
     6  N   -0.234644
     7  C   -0.067348
     8  C   -0.046618
     9  C   -0.063064
    10  C    0.024401
    11  C    0.050769
    12  C    0.022857
    13  C   -0.040597
    14  H    0.044383
    15  N   -0.391834
    16  C    0.157398
    17  C   -0.148057
    18  C   -0.042558
    19  C    0.128288
    20  C    0.119996
    21  C    0.034823
    22  O   -0.210086
    23  C    0.040984
    24  N   -0.343939
    25  C    0.056547
    26  C   -0.060395
    27  C    0.010242
    28  C   -0.023280
    29  C    0.082213
    30  C    0.031454
    31  C    0.038249
    32  N   -0.322801
    33  C    0.153878
    34  C   -0.148479
    35  C   -0.026165
    36  C    0.138435
    37  C    0.118334
    38  C    0.032172
    39  O   -0.151547
    40  C   -0.001668
    41  C    0.200992
    42  O   -0.199061
    43  O   -0.329718
    44  C    0.164045
    45  H   -0.042349
    46  H   -0.002096
    47  H   -0.044121
    48  H    0.028797
    49  H    0.027138
    50  H    0.023629
    51  H    0.005847
    52  H    0.028920
    53  H    0.013743
    54  H    0.011074
    55  H    0.028272
    56  H    0.016634
    57  H    0.017435
    58  H    0.023205
    59  H    0.025112
    60  H    0.034553
    61  H    0.025200
    62  H    0.019512
    63  H    0.019235
    64  H    0.020584
    65  H    0.031571
    66  H    0.010365
    67  H    0.017907
    68  H   -0.001822
    69  H    0.010927
    70  H    0.011570
    71  H    0.013617
    72  H    0.012560
    73  H    0.010636
    74  H    0.021556
    75  H    0.043377
    76  H    0.048239
    77  H    0.032139
    78  H    0.052213
    79  H    0.037946
 Sum of Mulliken charges =  -0.00000

 Dipole moment (field-independent basis, Debye):
    X=              0.7601    Y=             -2.6193    Z=             -0.5879  Tot=              2.7900
 Quadrupole moment (field-independent basis, Debye-Ang):
   XX=           -269.4637   YY=           -229.2380   ZZ=           -258.9198
   XY=             26.2436   XZ=             -1.2708   YZ=             -1.0935

 Normal termination of Gaussian 16 at Tue Oct 12 13:06:48 2021.
