 Gaussian 16, Revision A.03,
 Gaussian 16:  ES64L-G16RevA.03 25-Dec-2016

 -----------------------------------
 #p cam-b3lyp/Def2SVP td=(nstates=5)
 -----------------------------------

 --------------------------------
 TDDFT excited states in gaussian
 --------------------------------
 Symbolic Z-matrix:
 Charge =  0 Multiplicity = 1

                         Standard orientation:
 ---------------------------------------------------------------------
 Center     Atomic      Atomic             Coordinates (Angstroms)
 Number     Number       Type             X           Y           Z
 ---------------------------------------------------------------------
      1         12           0      -31.373068    0.330569    0.314605
      2          6           0      -29.149604   -1.927962   -1.099474
      3          6           0      -31.976731    1.663080   -2.724165
      4          6           0      -33.355500    2.570308    1.817406
      5          6           0      -30.558635   -1.013511    3.443843
      6          7           0      -30.616892   -0.167444   -1.676792
      7          6           0      -29.821560   -1.143895   -2.043179
      8          6           0      -29.697059   -1.091362   -3.635414
      9          6           0      -29.938375    0.392047   -3.819048
     10          6           0      -30.964096    0.676064   -2.676001
     11          6           0      -28.603756    1.164791   -3.745777
     12          6           0      -30.641702   -2.177969   -4.307868
     13          6           0      -30.267003   -2.545845   -5.746839
     14          1           0      -29.226690   -1.707572   -6.469495
     15          7           0      -32.629062    1.763051   -0.366587
     16          6           0      -32.792163    2.113940   -1.704650
     17          6           0      -33.959146    3.042696   -1.786628
     18          6           0      -34.347403    3.380272   -0.420678
     19          6           0      -33.359348    2.602795    0.373492
     20          6           0      -34.516404    3.542704   -3.098377
     21          6           0      -35.535003    4.287138    0.146304
     22          8           0      -35.783823    4.417529    1.349622
     23          6           0      -36.392619    4.995278   -0.881626
     24          7           0      -31.788259    0.788253    2.289446
     25          6           0      -32.618873    1.755648    2.668881
     26          6           0      -32.669606    1.936299    4.217461
     27          6           0      -31.974214    0.641241    4.661071
     28          6           0      -31.440793    0.043381    3.397223
     29          6           0      -32.001823    3.238246    4.741570
     30          6           0      -32.760627   -0.347929    5.631600
     31          6           0      -33.344240   -1.583654    5.029422
     32          7           0      -29.976301   -1.013560    1.096567
     33          6           0      -29.802645   -1.504430    2.346688
     34          6           0      -28.780822   -2.486627    2.424809
     35          6           0      -28.474034   -2.708604    1.045421
     36          6           0      -29.235620   -1.797184    0.350279
     37          6           0      -28.102185   -3.206108    3.561477
     38          6           0      -27.711732   -3.458162    0.091763
     39          8           0      -26.893260   -4.342611    0.222679
     40          6           0      -28.209163   -3.115409   -1.348705
     41          6           0      -27.060297   -2.799154   -2.202643
     42          8           0      -26.312218   -1.861006   -1.973221
     43          8           0      -26.796937   -3.777179   -3.195562
     44          6           0      -25.585005   -3.567322   -4.003023
     45          1           0      -32.094111    2.108709   -3.713035
     46          1           0      -33.975888    3.340595    2.278602
     47          1           0      -30.293654   -1.372910    4.440026
     48          1           0      -28.697075   -1.400503   -3.936660
     49          1           0      -30.466488    0.651546   -4.736234
     50          1           0      -28.496952    1.532027   -4.767035
     51          1           0      -27.758142    0.530245   -3.477218
     52          1           0      -28.792617    2.024593   -3.103371
     53          1           0      -31.670865   -1.818358   -4.327935
     54          1           0      -30.495651   -3.080178   -3.713448
     55          1           0      -31.193493   -2.535883   -6.320137
     56          1           0      -29.930739   -3.582215   -5.727715
     57          1           0      -34.427304    2.789591   -3.882142
     58          1           0      -34.106344    4.472943   -3.490236
     59          1           0      -35.589789    3.690166   -2.980145
     60          1           0      -35.663460    5.508759   -1.507889
     61          1           0      -37.047041    5.765466   -0.474437
     62          1           0      -37.019480    4.270798   -1.401768
     63          1           0      -33.696846    1.966295    4.580426
     64          1           0      -31.043841    0.961090    5.128906
     65          1           0      -31.435768    2.930044    5.620936
     66          1           0      -32.662479    4.068365    4.986801
     67          1           0      -31.373189    3.632703    3.943198
     68          1           0      -33.498532    0.231286    6.186793
     69          1           0      -32.058308   -0.764309    6.353373
     70          1           0      -32.786837   -2.432447    5.426303
     71          1           0      -33.161286   -1.733136    3.964619
     72          1           0      -34.390868   -1.758495    5.278864
     73          1           0      -28.420923   -2.836806    4.536858
     74          1           0      -27.024017   -3.183876    3.400222
     75          1           0      -28.358422   -4.257495    3.693732
     76          1           0      -28.753085   -3.946147   -1.797507
     77          1           0      -25.488457   -4.222439   -4.868467
     78          1           0      -24.780986   -3.753008   -3.290342
     79          1           0      -25.583781   -2.505945   -4.248373
     80         12           0       31.365751    0.540315   -0.728104
     81          6           0       28.780100   -1.758846    0.063553
     82          6           0       29.013101    3.087175   -0.346439
     83          6           0       33.916882    2.572169   -0.281510
     84          6           0       33.617573   -2.346425   -0.728051
     85          7           0       29.140330    0.632338    0.062367
     86          6           0       28.294287   -0.427280    0.039239
     87          6           0       26.862241    0.071613    0.111403
     88          6           0       26.910055    1.437060   -0.574519
     89          6           0       28.446264    1.785290   -0.225522
     90          6           0       26.700761    1.501693   -2.088573
     91          6           0       26.360438    0.036376    1.620638
     92          6           0       25.000766   -0.529237    1.748329
     93          1           0       24.029861    0.160648    2.726272
     94          7           0       31.497847    2.601387   -0.307488
     95          6           0       30.396661    3.492469   -0.270658
     96          6           0       30.947056    4.810685   -0.079500
     97          6           0       32.364893    4.756642   -0.139893
     98          6           0       32.685885    3.287322   -0.223157
     99          6           0       30.031316    6.019017    0.088689
    100          6           0       33.290370    5.898785    0.010302
    101          8           0       32.823564    7.016514    0.191690
    102          6           0       34.782233    5.848589    0.059011
    103          7           0       33.537513    0.093645   -0.431788
    104          6           0       34.322834    1.187995   -0.481148
    105          6           0       35.804018    0.789103   -0.610847
    106          6           0       35.734615   -0.811672   -0.915608
    107          6           0       34.216159   -1.065923   -0.730750
    108          6           0       36.642537    1.677534   -1.636100
    109          6           0       36.658971   -1.705623   -0.031015
    110          6           0       36.015498   -2.420303    1.205929
    111          7           0       31.275745   -1.533317   -0.425123
    112          6           0       32.261380   -2.556043   -0.527174
    113          6           0       31.557515   -3.911699   -0.503857
    114          6           0       30.239952   -3.582194   -0.228746
    115          6           0       30.126976   -2.145855   -0.211298
    116          6           0       32.071901   -5.356067   -0.656936
    117          6           0       28.931547   -4.123325   -0.039400
    118          8           0       28.531686   -5.286823   -0.106304
    119          6           0       28.063230   -2.962734    0.292710
    120          6           0       27.782743   -3.159700    1.800067
    121          8           0       28.532092   -2.894340    2.737634
    122          8           0       26.509321   -3.783935    1.911434
    123          6           0       26.072379   -4.182492    3.187590
    124          1           0       28.311907    3.924373   -0.334441
    125          1           0       34.689796    3.343047   -0.300925
    126          1           0       34.183112   -3.269906   -0.863787
    127          1           0       26.171610   -0.510054   -0.498982
    128          1           0       26.248512    2.240535   -0.252689
    129          1           0       26.210823    0.621069   -2.502979
    130          1           0       27.597611    1.846427   -2.603859
    131          1           0       25.970099    2.305788   -2.183523
    132          1           0       26.314352    1.059269    1.994513
    133          1           0       27.074149   -0.399742    2.319659
    134          1           0       25.218852   -1.555625    2.041220
    135          1           0       24.530585   -0.511426    0.765228
    136          1           0       29.988526    6.646515   -0.801331
    137          1           0       30.333819    6.563596    0.981936
    138          1           0       29.007099    5.694114    0.272343
    139          1           0       35.144812    5.564131   -0.929080
    140          1           0       35.212040    5.175379    0.801746
    141          1           0       35.215096    6.846437    0.118641
    142          1           0       36.177381    0.912789    0.405494
    143          1           0       35.920729   -0.969110   -1.977463
    144          1           0       36.187356    2.659000   -1.768179
    145          1           0       36.926253    1.250961   -2.598934
    146          1           0       37.636805    1.674242   -1.186684
    147          1           0       37.539822   -1.170229    0.322392
    148          1           0       36.960164   -2.482712   -0.733105
    149          1           0       36.913677   -2.393128    1.823332
    150          1           0       35.687943   -3.453624    1.089591
    151          1           0       35.244493   -1.759414    1.602539
    152          1           0       31.579182   -5.860466   -1.487415
    153          1           0       31.599650   -5.752837    0.241254
    154          1           0       33.159450   -5.325347   -0.594330
    155          1           0       27.124239   -3.043284   -0.255047
    156          1           0       25.094693   -4.665744    3.203282
    157          1           0       26.010266   -3.286354    3.803697
    158          1           0       26.834496   -4.878477    3.539285
 ---------------------------------------------------------------------

 SCF Done:  E(RCAM-B3LYP) =  -4069.77232248     A.U. after   18 cycles

 Excitation energies and oscillator strengths:

 Excited State   1:      Singlet-A      1.6842 eV  736.14 nm  f=0.3538  <S**2>=0.000
     309 -> 315        0.19726
     312 -> 314        0.68021
     309 <- 315        0.11213
 This state for optimization and/or second-order correction.
 Total Energy, E(TD-HF/TD-DFT) =  -4069.71042745
 Copying the excited state density for this state as the 1-particle RhoCI density.

 Excited State   2:      Singlet-A      1.7356 eV  714.38 nm  f=0.3938  <S**2>=0.000
     310 -> 316        0.17783
     311 -> 313        0.68648
     310 <- 316        0.10692

 Excited State   3:      Singlet-A      2.1915 eV  565.75 nm  f=0.0564  <S**2>=0.000
     309 -> 314        0.61453
     312 -> 315       -0.33942

 Excited State   4:      Singlet-A      2.2152 eV  559.70 nm  f=0.1503  <S**2>=0.000
     310 -> 313        0.65503
     311 -> 316       -0.25742

 Excited State   5:      Singlet-A      3.1711 eV  390.98 nm  f=0.0000  <S**2>=0.000
     312 -> 313        0.70711

 The electronic state is 1-A.
 Alpha  occ. eigenvalues --  -46.91303 -46.87767 -19.24711 -19.23917 -19.21403
 Alpha  occ. eigenvalues --  -19.20481 -19.19491 -19.18914 -19.17905 -19.17575
 Alpha  occ. eigenvalues --  -14.42409 -14.42016 -14.41944 -14.41463 -14.40245
 Alpha  occ. eigenvalues --  -14.40113 -14.39763 -14.38636 -10.40594 -10.38877
 Alpha  occ. eigenvalues --  -10.37238 -10.34563 -10.34128 -10.34109 -10.31832
 Alpha  occ. eigenvalues --  -10.31430 -10.31405 -10.31333 -10.31309 -10.31141
 Alpha  occ. eigenvalues --  -10.31068 -10.31053 -10.31001 -10.30976 -10.30833
 Alpha  occ. eigenvalues --  -10.30595 -10.30459 -10.30311 -10.30083 -10.29854
 Alpha  occ. eigenvalues --  -10.29469 -10.29394 -10.29018 -10.28824 -10.28783
 Alpha  occ. eigenvalues --  -10.28674 -10.28523 -10.28414 -10.28374 -10.28201
 Alpha  occ. eigenvalues --  -10.28149 -10.28123 -10.28099 -10.27960 -10.27953
 Alpha  occ. eigenvalues --  -10.27909 -10.27666 -10.27632 -10.27609 -10.27594
 Alpha  occ. eigenvalues --  -10.27557 -10.27552 -10.27356 -10.27296 -10.27244
 Alpha  occ. eigenvalues --  -10.27166 -10.27165 -10.27109 -10.27096 -10.27066
 Alpha  occ. eigenvalues --  -10.26783 -10.26765 -10.26363 -10.26333 -10.26235
 Alpha  occ. eigenvalues --  -10.25896 -10.25773 -10.25766 -10.25745 -10.25674
 Alpha  occ. eigenvalues --  -10.25670 -10.25582 -10.25274 -10.24979 -10.24524
 Alpha  occ. eigenvalues --  -10.24186  -3.19503  -3.16532  -1.94344  -1.94010
 Alpha  occ. eigenvalues --   -1.93758  -1.91444  -1.90952  -1.90880  -1.15821
 Alpha  occ. eigenvalues --   -1.14501  -1.10487  -1.09602  -1.09578  -1.09359
 Alpha  occ. eigenvalues --   -1.08652  -1.06747  -1.05587  -1.04730  -1.04203
 Alpha  occ. eigenvalues --   -1.04151  -1.03451  -1.03165  -1.02839  -1.01277
 Alpha  occ. eigenvalues --   -0.94380  -0.92134  -0.89211  -0.89171  -0.88723
 Alpha  occ. eigenvalues --   -0.88584  -0.88288  -0.87802  -0.87299  -0.87268
 Alpha  occ. eigenvalues --   -0.87123  -0.86850  -0.86264  -0.85573  -0.84780
 Alpha  occ. eigenvalues --   -0.84337  -0.83668  -0.83663  -0.82765  -0.82704
 Alpha  occ. eigenvalues --   -0.82569  -0.81643  -0.80957  -0.80857  -0.80274
 Alpha  occ. eigenvalues --   -0.80073  -0.78590  -0.78038  -0.77272  -0.77246
 Alpha  occ. eigenvalues --   -0.76879  -0.76666  -0.76003  -0.75863  -0.75207
 Alpha  occ. eigenvalues --   -0.75074  -0.72821  -0.72748  -0.71841  -0.71180
 Alpha  occ. eigenvalues --   -0.69918  -0.69254  -0.68755  -0.68714  -0.67935
 Alpha  occ. eigenvalues --   -0.67318  -0.66868  -0.66620  -0.65343  -0.65057
 Alpha  occ. eigenvalues --   -0.64970  -0.64712  -0.64668  -0.64544  -0.64194
 Alpha  occ. eigenvalues --   -0.64006  -0.62212  -0.61253  -0.60639  -0.59931
 Alpha  occ. eigenvalues --   -0.59769  -0.59591  -0.59272  -0.59132  -0.58900
 Alpha  occ. eigenvalues --   -0.58261  -0.58020  -0.57983  -0.57623  -0.57036
 Alpha  occ. eigenvalues --   -0.56200  -0.55959  -0.55804  -0.55675  -0.55640
 Alpha  occ. eigenvalues --   -0.55443  -0.54948  -0.54791  -0.54558  -0.53994
 Alpha  occ. eigenvalues --   -0.53692  -0.53677  -0.53393  -0.53362  -0.53034
 Alpha  occ. eigenvalues --   -0.52999  -0.52663  -0.52641  -0.52339  -0.52179
 Alpha  occ. eigenvalues --   -0.52139  -0.51963  -0.51802  -0.51669  -0.51391
 Alpha  occ. eigenvalues --   -0.51304  -0.51213  -0.50728  -0.50697  -0.50553
 Alpha  occ. eigenvalues --   -0.50349  -0.50184  -0.49967  -0.49894  -0.49507
 Alpha  occ. eigenvalues --   -0.49402  -0.49237  -0.49228  -0.49010  -0.48949
 Alpha  occ. eigenvalues --   -0.48811  -0.48548  -0.48501  -0.48477  -0.48265
 Alpha  occ. eigenvalues --   -0.47759  -0.47757  -0.47469  -0.47381  -0.47167
 Alpha  occ. eigenvalues --   -0.46880  -0.46849  -0.46458  -0.46293  -0.46093
 Alpha  occ. eigenvalues --   -0.46025  -0.45945  -0.45900  -0.45868  -0.45789
 Alpha  occ. eigenvalues --   -0.45574  -0.45435  -0.45301  -0.45144  -0.44947
 Alpha  occ. eigenvalues --   -0.44647  -0.44569  -0.44448  -0.44328  -0.44137
 Alpha  occ. eigenvalues --   -0.44012  -0.43948  -0.43792  -0.43475  -0.43447
 Alpha  occ. eigenvalues --   -0.43323  -0.43306  -0.43226  -0.43002  -0.42980
 Alpha  occ. eigenvalues --   -0.42481  -0.42330  -0.42070  -0.42041  -0.41797
 Alpha  occ. eigenvalues --   -0.41599  -0.41410  -0.41298  -0.41029  -0.41009
 Alpha  occ. eigenvalues --   -0.40975  -0.40974  -0.40527  -0.40427  -0.40220
 Alpha  occ. eigenvalues --   -0.40083  -0.39976  -0.39188  -0.39171  -0.38557
 Alpha  occ. eigenvalues --   -0.38268  -0.38196  -0.38059  -0.37923  -0.37635
 Alpha  occ. eigenvalues --   -0.37568  -0.36625  -0.36515  -0.36324  -0.36152
 Alpha  occ. eigenvalues --   -0.35769  -0.35627  -0.35215  -0.34441  -0.34216
 Alpha  occ. eigenvalues --   -0.33939  -0.33346  -0.33254  -0.32196  -0.31463
 Alpha  occ. eigenvalues --   -0.31155  -0.30809  -0.30567  -0.30508  -0.30215
 Alpha  occ. eigenvalues --   -0.30184  -0.29562  -0.29478  -0.24049  -0.23898
 Alpha  occ. eigenvalues --   -0.21393  -0.21037
 Alpha virt. eigenvalues --   -0.08837  -0.08531  -0.02615  -0.01257  -0.00602
 Alpha virt. eigenvalues --   -0.00019   0.00135   0.02170   0.02472   0.03502
 Alpha virt. eigenvalues --    0.04708   0.04793   0.05167   0.05322   0.05897

 Mulliken charges:
               1
     1  Mg   0.842549
     2  C   -0.021670
     3  C   -0.078603
     4  C   -0.075109
     5  C   -0.111297
     6  N   -0.243028
     7  C   -0.062021
     8  C   -0.047419
     9  C   -0.052415
    10  C    0.015684
    11  C    0.105866
    12  C    0.057327
    13  C   -0.053902
    14  H    0.023566
    15  N   -0.393550
    16  C    0.179581
    17  C   -0.141562
    18  C   -0.075170
    19  C    0.104604
    20  C    0.096180
    21  C    0.057906
    22  O   -0.196822
    23  C    0.033360
    24  N   -0.301820
    25  C    0.062652
    26  C   -0.047752
    27  C    0.014857
    28  C    0.029793
    29  C    0.068821
    30  C    0.044632
    31  C    0.006255
    32  N   -0.283340
    33  C    0.112490
    34  C   -0.165607
    35  C    0.022710
    36  C    0.067198
    37  C    0.123693
    38  C    0.018817
    39  O   -0.167214
    40  C    0.053372
    41  C    0.179843
    42  O   -0.224397
    43  O   -0.371079
    44  C    0.187049
    45  H   -0.022521
    46  H   -0.009361
    47  H   -0.032027
    48  H   -0.002127
    49  H   -0.022983
    50  H    0.012571
    51  H    0.048810
    52  H    0.014418
    53  H    0.011122
    54  H    0.016546
    55  H    0.022743
    56  H    0.030177
    57  H    0.017730
    58  H    0.042055
    59  H    0.008704
    60  H    0.038372
    61  H    0.029188
    62  H    0.060239
    63  H    0.009239
    64  H    0.004407
    65  H    0.017345
    66  H    0.022864
    67  H    0.019453
    68  H    0.008882
    69  H    0.003219
    70  H   -0.003657
    71  H    0.027798
    72  H    0.017083
    73  H   -0.005935
    74  H    0.043976
    75  H    0.023718
    76  H    0.037099
    77  H    0.044993
    78  H    0.038815
    79  H    0.032019
    80  Mg   0.808525
    81  C    0.026533
    82  C   -0.060735
    83  C   -0.021883
    84  C   -0.054807
    85  N   -0.238512
    86  C   -0.066732
    87  C   -0.007298
    88  C   -0.085915
    89  C    0.025314
    90  C    0.085415
    91  C    0.072676
    92  C   -0.063573
    93  H    0.018193
    94  N   -0.411423
    95  C    0.127342
    96  C   -0.147922
    97  C    0.024174
    98  C    0.084041
    99  C    0.141729
   100  C   -0.053933
   101  O   -0.216898
   102  C    0.078843
   103  N   -0.260293
   104  C    0.038663
   105  C   -0.046170
   106  C    0.025424
   107  C   -0.014251
   108  C    0.052468
   109  C    0.002697
   110  C    0.007461
   111  N   -0.333220
   112  C    0.096726
   113  C   -0.206563
   114  C    0.019545
   115  C    0.125888
   116  C    0.134631
   117  C    0.005918
   118  O   -0.180133
   119  C    0.016408
   120  C    0.215312
   121  O   -0.202555
   122  O   -0.345882
   123  C    0.186830
   124  H   -0.020645
   125  H   -0.066450
   126  H   -0.026120
   127  H   -0.009632
   128  H    0.002562
   129  H    0.020043
   130  H    0.025885
   131  H    0.005832
   132  H    0.007752
   133  H    0.031960
   134  H    0.024950
   135  H    0.024303
   136  H    0.034541
   137  H    0.037887
   138  H   -0.012195
   139  H    0.019224
   140  H    0.050494
   141  H    0.019658
   142  H    0.023822
   143  H    0.010329
   144  H    0.032470
   145  H    0.011772
   146  H    0.010037
   147  H    0.015627
   148  H    0.005365
   149  H    0.012263
   150  H    0.025464
   151  H    0.040077
   152  H    0.049516
   153  H    0.045736
   154  H    0.017026
   155  H    0.029905
   156  H    0.038732
   157  H    0.024813
   158  H    0.034943
 Sum of Mulliken charges =  -0.00000

 Dipole moment (field-independent basis, Debye):
    X=             -2.2206    Y=              1.5895    Z=             -6.2248  Tot=              6.7974
 Quadrupole moment (field-independent basis, Debye-Ang):
   XX=           -119.4654   YY=           -563.3173   ZZ=           -476.1187
   XY=           -111.2495   XZ=            -14.6714   YZ=            -12.4900

 Normal termination of Gaussian 16 at Thu Sep 16 14:23:51 2021.
