 Gaussian 16, Revision A.03,
 Gaussian 16:  ES64L-G16RevA.03 25-Dec-2016

 -----------------------------------
 #p cam-b3lyp/Def2SVP td=(nstates=5)
 -----------------------------------

 --------------------------------
 TDDFT excited states in gaussian
 --------------------------------
 Symbolic Z-matrix:
 Charge =  0 Multiplicity = 1

                         Standard orientation:
 ---------------------------------------------------------------------
 Center     Atomic      Atomic             Coordinates (Angstroms)
 Number     Number       Type             X           Y           Z
 ---------------------------------------------------------------------
      1         12           0      -22.825432    0.606781    0.490242
      2          6           0      -22.108727   -2.094969   -1.476689
      3          6           0      -23.410514   -1.359237    3.116029
      4          6           0      -23.689688    3.287016    2.130957
      5          6           0      -22.763663    2.529049   -2.510362
      6          7           0      -22.934843   -1.544407    0.755747
      7          6           0      -22.343494   -2.403412   -0.111681
      8          6           0      -22.015576   -3.719806    0.538128
      9          6           0      -22.715366   -3.538789    1.944656
     10          6           0      -23.129517   -2.083271    1.933509
     11          6           0      -23.861943   -4.538434    2.229315
     12          6           0      -20.410106   -4.093724    0.544330
     13          6           0      -19.983341   -5.505077    0.112819
     14          1           0      -21.047003   -6.638931    0.253874
     15          7           0      -23.272302    0.928582    2.330864
     16          6           0      -23.490025    0.024531    3.321312
     17          6           0      -23.964694    0.623714    4.544790
     18          6           0      -23.853731    1.965757    4.339479
     19          6           0      -23.711239    2.098724    2.856289
     20          6           0      -24.448217   -0.315288    5.634767
     21          6           0      -24.065178    3.117694    5.341951
     22          8           0      -24.003768    4.289433    5.050442
     23          6           0      -24.396630    2.660268    6.731728
     24          7           0      -23.337633    2.592076   -0.181861
     25          6           0      -23.537970    3.520558    0.770688
     26          6           0      -23.637314    4.920773    0.157274
     27          6           0      -23.027697    4.719940   -1.271642
     28          6           0      -23.061265    3.180325   -1.359457
     29          6           0      -25.053969    5.637994    0.136954
     30          6           0      -21.550210    5.224873   -1.479491
     31          6           0      -20.392014    4.718405   -0.660765
     32          7           0      -22.429528    0.389152   -1.589947
     33          6           0      -22.523482    1.213746   -2.715719
     34          6           0      -22.195372    0.485954   -3.948212
     35          6           0      -22.013291   -0.832436   -3.504442
     36          6           0      -22.167782   -0.797691   -2.082778
     37          6           0      -22.030561    1.033801   -5.342567
     38          6           0      -21.736857   -2.140407   -3.889190
     39          8           0      -21.561847   -2.672005   -4.974488
     40          6           0      -21.551277   -2.968766   -2.591523
     41          6           0      -22.351519   -4.183134   -2.870839
     42          8           0      -23.578266   -4.268880   -2.776158
     43          8           0      -21.569019   -5.186499   -3.364455
     44          6           0      -22.201223   -6.357596   -3.980053
     45          1           0      -23.403354   -2.008560    3.994228
     46          1           0      -23.917206    4.233395    2.624495
     47          1           0      -22.738188    3.244166   -3.336147
     48          1           0      -22.563189   -4.531552    0.059163
     49          1           0      -21.959203   -3.616879    2.725521
     50          1           0      -24.815544   -4.027241    2.097877
     51          1           0      -23.788213   -4.861060    3.267873
     52          1           0      -23.749035   -5.350778    1.511266
     53          1           0      -20.092799   -3.922871    1.573104
     54          1           0      -19.863596   -3.438819   -0.133555
     55          1           0      -19.180187   -5.867539    0.753879
     56          1           0      -19.555393   -5.470547   -0.888992
     57          1           0      -25.296847   -0.943210    5.362943
     58          1           0      -24.927755    0.078331    6.530787
     59          1           0      -23.522495   -0.835159    5.881572
     60          1           0      -23.627007    1.987411    7.109198
     61          1           0      -25.398708    2.253448    6.597532
     62          1           0      -24.424017    3.395953    7.534750
     63          1           0      -23.011363    5.500766    0.836365
     64          1           0      -23.734016    5.102712   -2.008658
     65          1           0      -25.794943    4.989647    0.603994
     66          1           0      -25.422465    5.735470   -0.883537
     67          1           0      -25.101024    6.635175    0.577228
     68          1           0      -21.705191    6.293681   -1.329876
     69          1           0      -21.200811    5.066105   -2.499196
     70          1           0      -20.766764    4.106897    0.161080
     71          1           0      -19.851417    5.549783   -0.208621
     72          1           0      -19.688500    4.059663   -1.169519
     73          1           0      -22.854171    0.755416   -5.998542
     74          1           0      -21.088114    0.685865   -5.765797
     75          1           0      -22.106006    2.110851   -5.190907
     76          1           0      -20.499019   -3.149184   -2.370978
     77          1           0      -21.548695   -6.843827   -4.706196
     78          1           0      -23.210920   -6.141604   -4.325918
     79          1           0      -22.443224   -7.132496   -3.252914
     80         12           0       22.277922    0.547181   -0.237421
     81          6           0       24.026317   -1.686375    1.683491
     82          6           0       20.376716   -1.938543   -1.423153
     83          6           0       20.818800    2.827056   -2.246473
     84          6           0       24.702144    3.093903    0.688120
     85          7           0       22.414024   -1.659313   -0.080121
     86          6           0       23.111647   -2.344707    0.833726
     87          6           0       22.716426   -3.909351    0.796569
     88          6           0       21.525492   -3.862223   -0.232235
     89          6           0       21.424353   -2.386898   -0.669247
     90          6           0       21.652939   -4.888359   -1.374931
     91          6           0       22.319118   -4.489615    2.183563
     92          6           0       21.580163   -5.866918    2.227103
     93          1           0       22.418639   -7.134617    2.643262
     94          7           0       20.817957    0.442868   -1.690894
     95          6           0       20.091551   -0.621156   -1.963213
     96          6           0       19.088748   -0.257940   -2.952983
     97          6           0       19.240945    1.113304   -3.318766
     98          6           0       20.326464    1.524379   -2.401472
     99          6           0       18.133584   -1.222465   -3.636359
    100          6           0       18.535873    1.943742   -4.386157
    101          8           0       18.995221    3.020100   -4.756940
    102          6           0       17.274060    1.423030   -4.980145
    103          7           0       22.739567    2.658454   -0.741161
    104          6           0       21.957128    3.362632   -1.550321
    105          6           0       22.324881    4.855696   -1.554908
    106          6           0       23.394908    4.889638   -0.466792
    107          6           0       23.642652    3.454091   -0.188296
    108          6           0       22.748670    5.490240   -2.887881
    109          6           0       23.088852    5.832277    0.669480
    110          6           0       24.080231    7.035307    0.858998
    111          7           0       23.937057    0.721959    0.944216
    112          6           0       24.785604    1.821291    1.306739
    113          6           0       25.736777    1.433455    2.325028
    114          6           0       25.417704    0.055495    2.478056
    115          6           0       24.360378   -0.303706    1.632709
    116          6           0       26.683835    2.232666    3.148828
    117          6           0       25.726506   -1.033494    3.370055
    118          8           0       26.384890   -1.135032    4.416035
    119          6           0       24.980871   -2.244461    2.867615
    120          6           0       25.999574   -3.212311    2.226212
    121          8           0       26.949150   -2.927178    1.480536
    122          8           0       25.669484   -4.475293    2.619229
    123          6           0       26.540454   -5.600070    2.152075
    124          1           0       19.615082   -2.629587   -1.790373
    125          1           0       20.546124    3.572641   -2.996280
    126          1           0       25.304627    3.940444    1.022353
    127          1           0       23.596293   -4.386972    0.367035
    128          1           0       20.608324   -4.063679    0.321181
    129          1           0       20.665960   -5.327628   -1.515763
    130          1           0       22.324417   -5.706837   -1.115258
    131          1           0       21.995494   -4.409160   -2.292140
    132          1           0       21.550162   -3.815482    2.560824
    133          1           0       23.204200   -4.592867    2.811210
    134          1           0       21.296435   -6.103452    1.201087
    135          1           0       20.753273   -5.796198    2.932910
    136          1           0       18.263182   -2.239532   -3.266452
    137          1           0       18.318206   -1.219534   -4.710331
    138          1           0       17.092977   -0.936941   -3.487681
    139          1           0       16.656762    1.136438   -4.128269
    140          1           0       17.245033    0.576465   -5.665464
    141          1           0       16.745139    2.170770   -5.570117
    142          1           0       21.449725    5.409989   -1.217571
    143          1           0       24.302605    5.285410   -0.922023
    144          1           0       22.287355    6.477270   -2.866657
    145          1           0       22.454467    4.857704   -3.725276
    146          1           0       23.826669    5.533889   -3.042850
    147          1           0       23.226771    5.215275    1.556823
    148          1           0       22.092548    6.270440    0.617898
    149          1           0       24.880280    6.978522    0.120413
    150          1           0       24.525815    6.932046    1.848865
    151          1           0       23.619578    8.023088    0.878808
    152          1           0       26.505595    3.297121    2.998588
    153          1           0       27.664616    2.049366    2.711516
    154          1           0       26.498423    1.911005    4.174667
    155          1           0       24.525851   -2.666755    3.763764
    156          1           0       26.793593   -5.581299    1.091761
    157          1           0       26.165712   -6.592468    2.400520
    158          1           0       27.494263   -5.453826    2.658701
 ---------------------------------------------------------------------

 SCF Done:  E(RCAM-B3LYP) =  -4069.80557403     A.U. after   19 cycles

 Excitation energies and oscillator strengths:

 Excited State   1:      Singlet-A      1.7216 eV  720.18 nm  f=0.3997  <S**2>=0.000
     309 -> 316       -0.17579
     311 -> 313        0.68382
     309 <- 316       -0.10319
 This state for optimization and/or second-order correction.
 Total Energy, E(TD-HF/TD-DFT) =  -4069.74230771
 Copying the excited state density for this state as the 1-particle RhoCI density.

 Excited State   2:      Singlet-A      1.7684 eV  701.11 nm  f=0.3782  <S**2>=0.000
     310 -> 315        0.19166
     312 -> 314        0.68180
     310 <- 315        0.10600

 Excited State   3:      Singlet-A      2.2690 eV  546.42 nm  f=0.1113  <S**2>=0.000
     309 -> 313        0.63899
     311 -> 316        0.28666

 Excited State   4:      Singlet-A      2.2757 eV  544.82 nm  f=0.0591  <S**2>=0.000
     310 -> 314        0.61592
     312 -> 315       -0.33783

 Excited State   5:      Singlet-A      3.0815 eV  402.35 nm  f=0.0000  <S**2>=0.000
     312 -> 313        0.70710

 The electronic state is 1-A.
 Alpha  occ. eigenvalues --  -46.89192 -46.87988 -19.25628 -19.23943 -19.19966
 Alpha  occ. eigenvalues --  -19.19542 -19.19456 -19.18370 -19.17682 -19.17681
 Alpha  occ. eigenvalues --  -14.42072 -14.41741 -14.41735 -14.41091 -14.40091
 Alpha  occ. eigenvalues --  -14.40033 -14.39282 -14.38781 -10.39558 -10.38285
 Alpha  occ. eigenvalues --  -10.36100 -10.35995 -10.33578 -10.33346 -10.32184
 Alpha  occ. eigenvalues --  -10.31685 -10.30973 -10.30860 -10.30688 -10.30616
 Alpha  occ. eigenvalues --  -10.30493 -10.30483 -10.30388 -10.30315 -10.30275
 Alpha  occ. eigenvalues --  -10.30167 -10.30025 -10.29989 -10.29356 -10.29065
 Alpha  occ. eigenvalues --  -10.28997 -10.28958 -10.28808 -10.28749 -10.28586
 Alpha  occ. eigenvalues --  -10.28390 -10.28102 -10.28095 -10.28069 -10.27994
 Alpha  occ. eigenvalues --  -10.27883 -10.27859 -10.27842 -10.27796 -10.27777
 Alpha  occ. eigenvalues --  -10.27775 -10.27623 -10.27590 -10.27543 -10.27521
 Alpha  occ. eigenvalues --  -10.27497 -10.27359 -10.27271 -10.27030 -10.27028
 Alpha  occ. eigenvalues --  -10.26758 -10.26711 -10.26552 -10.26529 -10.26526
 Alpha  occ. eigenvalues --  -10.26497 -10.26295 -10.26262 -10.26248 -10.26230
 Alpha  occ. eigenvalues --  -10.26185 -10.26070 -10.26068 -10.25931 -10.25718
 Alpha  occ. eigenvalues --  -10.25666 -10.25595 -10.25249 -10.25086 -10.24402
 Alpha  occ. eigenvalues --  -10.24091  -3.17717  -3.16844  -1.92609  -1.92166
 Alpha  occ. eigenvalues --   -1.92031  -1.91709  -1.91313  -1.91177  -1.15562
 Alpha  occ. eigenvalues --   -1.14873  -1.11559  -1.10391  -1.09033  -1.07971
 Alpha  occ. eigenvalues --   -1.06541  -1.05952  -1.05733  -1.05619  -1.04730
 Alpha  occ. eigenvalues --   -1.04389  -1.04144  -1.03880  -1.03027  -1.02960
 Alpha  occ. eigenvalues --   -0.92372  -0.91274  -0.89924  -0.89660  -0.88733
 Alpha  occ. eigenvalues --   -0.88452  -0.88174  -0.88056  -0.87990  -0.87556
 Alpha  occ. eigenvalues --   -0.87498  -0.87160  -0.87006  -0.86589  -0.84405
 Alpha  occ. eigenvalues --   -0.84193  -0.83616  -0.83337  -0.82741  -0.82635
 Alpha  occ. eigenvalues --   -0.82362  -0.82170  -0.81111  -0.81095  -0.80557
 Alpha  occ. eigenvalues --   -0.80044  -0.79055  -0.78539  -0.77560  -0.77495
 Alpha  occ. eigenvalues --   -0.77013  -0.76743  -0.76101  -0.75733  -0.75355
 Alpha  occ. eigenvalues --   -0.75240  -0.72672  -0.72637  -0.71717  -0.71689
 Alpha  occ. eigenvalues --   -0.69674  -0.69447  -0.69115  -0.69059  -0.68182
 Alpha  occ. eigenvalues --   -0.67714  -0.67580  -0.67348  -0.65849  -0.65447
 Alpha  occ. eigenvalues --   -0.65005  -0.64892  -0.64777  -0.64466  -0.63948
 Alpha  occ. eigenvalues --   -0.63792  -0.62639  -0.61744  -0.61148  -0.60734
 Alpha  occ. eigenvalues --   -0.59661  -0.59349  -0.59315  -0.58885  -0.58642
 Alpha  occ. eigenvalues --   -0.57991  -0.57960  -0.57833  -0.57581  -0.57442
 Alpha  occ. eigenvalues --   -0.56335  -0.56314  -0.55664  -0.55347  -0.55150
 Alpha  occ. eigenvalues --   -0.55147  -0.54702  -0.54544  -0.54449  -0.54197
 Alpha  occ. eigenvalues --   -0.53746  -0.53667  -0.53404  -0.53237  -0.52804
 Alpha  occ. eigenvalues --   -0.52655  -0.52651  -0.52577  -0.52470  -0.52328
 Alpha  occ. eigenvalues --   -0.52169  -0.51687  -0.51662  -0.51290  -0.51192
 Alpha  occ. eigenvalues --   -0.51118  -0.50710  -0.50642  -0.50493  -0.50486
 Alpha  occ. eigenvalues --   -0.50263  -0.49973  -0.49794  -0.49697  -0.49531
 Alpha  occ. eigenvalues --   -0.49371  -0.49365  -0.49124  -0.49046  -0.48973
 Alpha  occ. eigenvalues --   -0.48808  -0.48604  -0.48574  -0.48171  -0.48094
 Alpha  occ. eigenvalues --   -0.48043  -0.47816  -0.47797  -0.47662  -0.47305
 Alpha  occ. eigenvalues --   -0.47201  -0.46829  -0.46792  -0.46688  -0.46544
 Alpha  occ. eigenvalues --   -0.46387  -0.46145  -0.45973  -0.45739  -0.45513
 Alpha  occ. eigenvalues --   -0.45281  -0.44988  -0.44859  -0.44701  -0.44542
 Alpha  occ. eigenvalues --   -0.44523  -0.44411  -0.44147  -0.44134  -0.44013
 Alpha  occ. eigenvalues --   -0.43942  -0.43867  -0.43863  -0.43597  -0.43495
 Alpha  occ. eigenvalues --   -0.43205  -0.42940  -0.42926  -0.42878  -0.42763
 Alpha  occ. eigenvalues --   -0.42468  -0.42213  -0.42170  -0.42022  -0.41992
 Alpha  occ. eigenvalues --   -0.41877  -0.41842  -0.41605  -0.41533  -0.41282
 Alpha  occ. eigenvalues --   -0.41101  -0.41092  -0.40844  -0.40779  -0.40552
 Alpha  occ. eigenvalues --   -0.40431  -0.39620  -0.39282  -0.39238  -0.39095
 Alpha  occ. eigenvalues --   -0.38500  -0.38272  -0.38227  -0.37873  -0.37057
 Alpha  occ. eigenvalues --   -0.37035  -0.36685  -0.36480  -0.36305  -0.36210
 Alpha  occ. eigenvalues --   -0.35962  -0.35183  -0.34389  -0.34292  -0.34007
 Alpha  occ. eigenvalues --   -0.33364  -0.33309  -0.32971  -0.32525  -0.31972
 Alpha  occ. eigenvalues --   -0.31393  -0.31113  -0.30747  -0.30595  -0.30122
 Alpha  occ. eigenvalues --   -0.29975  -0.29742  -0.29674  -0.23919  -0.23844
 Alpha  occ. eigenvalues --   -0.21111  -0.20639
 Alpha virt. eigenvalues --   -0.08557  -0.07859  -0.01783  -0.01777   0.00192
 Alpha virt. eigenvalues --    0.00570   0.01887   0.02245   0.02545   0.02993
 Alpha virt. eigenvalues --    0.04894   0.04991   0.05673   0.06079   0.06288

 Mulliken charges:
               1
     1  Mg   0.850572
     2  C    0.012154
     3  C   -0.109469
     4  C   -0.070348
     5  C   -0.108765
     6  N   -0.257964
     7  C   -0.051816
     8  C   -0.000885
     9  C   -0.101384
    10  C    0.045294
    11  C    0.094740
    12  C    0.048941
    13  C   -0.072546
    14  H    0.013020
    15  N   -0.419480
    16  C    0.163743
    17  C   -0.108895
    18  C   -0.091234
    19  C    0.161866
    20  C    0.094041
    21  C    0.026219
    22  O   -0.168442
    23  C    0.036210
    24  N   -0.251384
    25  C    0.003053
    26  C   -0.036994
    27  C    0.001983
    28  C   -0.034621
    29  C    0.070305
    30  C    0.035387
    31  C    0.008540
    32  N   -0.312641
    33  C    0.155310
    34  C   -0.183094
    35  C    0.078806
    36  C    0.062747
    37  C    0.144281
    38  C   -0.022499
    39  O   -0.177559
    40  C    0.001687
    41  C    0.195338
    42  O   -0.239421
    43  O   -0.323715
    44  C    0.190505
    45  H   -0.033055
    46  H   -0.010540
    47  H   -0.035031
    48  H    0.022047
    49  H    0.005864
    50  H    0.023451
    51  H    0.016546
    52  H    0.024994
    53  H    0.008932
    54  H    0.018119
    55  H    0.025912
    56  H    0.040050
    57  H    0.037388
    58  H    0.007447
    59  H    0.045215
    60  H    0.040687
    61  H    0.049196
    62  H    0.021294
    63  H    0.008508
    64  H    0.002557
    65  H    0.016684
    66  H    0.005080
    67  H    0.028223
    68  H    0.006581
    69  H    0.007636
    70  H    0.009856
    71  H    0.017896
    72  H    0.021321
    73  H    0.036325
    74  H    0.041551
    75  H   -0.001561
    76  H    0.044029
    77  H    0.042882
    78  H    0.040301
    79  H    0.012030
    80  Mg   0.832076
    81  C   -0.058931
    82  C   -0.068404
    83  C   -0.048480
    84  C   -0.064205
    85  N   -0.282680
    86  C   -0.070731
    87  C    0.037203
    88  C   -0.103341
    89  C    0.096684
    90  C    0.074353
    91  C    0.030376
    92  C   -0.078904
    93  H   -0.000463
    94  N   -0.351746
    95  C    0.093656
    96  C   -0.163049
    97  C   -0.023580
    98  C    0.114227
    99  C    0.115757
   100  C    0.042813
   101  O   -0.195741
   102  C    0.027076
   103  N   -0.202746
   104  C   -0.029768
   105  C   -0.063766
   106  C   -0.010495
   107  C   -0.014916
   108  C    0.083993
   109  C    0.049325
   110  C   -0.014698
   111  N   -0.364372
   112  C    0.117907
   113  C   -0.165064
   114  C   -0.033221
   115  C    0.166911
   116  C    0.154757
   117  C    0.031406
   118  O   -0.204152
   119  C    0.011466
   120  C    0.227298
   121  O   -0.237176
   122  O   -0.334648
   123  C    0.179440
   124  H   -0.045396
   125  H    0.005825
   126  H   -0.021655
   127  H    0.012744
   128  H    0.012056
   129  H    0.012173
   130  H    0.020282
   131  H    0.026690
   132  H    0.007741
   133  H    0.051206
   134  H    0.027700
   135  H    0.042459
   136  H    0.007539
   137  H    0.029979
   138  H    0.019376
   139  H    0.028782
   140  H    0.042013
   141  H    0.025835
   142  H    0.012596
   143  H   -0.000577
   144  H    0.024224
   145  H    0.022920
   146  H    0.008045
   147  H    0.006246
   148  H    0.012150
   149  H    0.013283
   150  H    0.012259
   151  H    0.019499
   152  H   -0.002870
   153  H    0.041563
   154  H    0.058648
   155  H    0.040246
   156  H    0.041168
   157  H    0.045315
   158  H    0.038484
 Sum of Mulliken charges =  -0.00000

 Dipole moment (field-independent basis, Debye):
    X=             -3.6059    Y=             -0.2718    Z=              3.6739  Tot=              5.1550
 Quadrupole moment (field-independent basis, Debye-Ang):
   XX=           -783.9044   YY=           -471.0439   ZZ=           -530.3841
   XY=            -13.7991   XZ=           -167.4382   YZ=            -13.2741

 Normal termination of Gaussian 16 at Tue Aug 31 15:25:09 2021.
