 Gaussian 16, Revision A.03,
 Gaussian 16:  ES64L-G16RevA.03 25-Dec-2016

 -----------------------------------
 #p cam-b3lyp/Def2SVP td=(nstates=5)
 -----------------------------------

 --------------------------------
 TDDFT excited states in gaussian
 --------------------------------
 Symbolic Z-matrix:
 Charge =  0 Multiplicity = 1

                         Standard orientation:
 ---------------------------------------------------------------------
 Center     Atomic      Atomic             Coordinates (Angstroms)
 Number     Number       Type             X           Y           Z
 ---------------------------------------------------------------------
      1         12           0      -23.563338   -0.593287   -0.066894
      2          6           0      -22.726420    2.552266   -0.995218
      3          6           0      -23.393119    0.346878    3.272546
      4          6           0      -24.394373   -3.741161    0.861406
      5          6           0      -23.253613   -1.646220   -3.349949
      6          7           0      -23.222294    1.237236    0.916177
      7          6           0      -22.858519    2.426663    0.373666
      8          6           0      -22.861717    3.544710    1.383301
      9          6           0      -22.801994    2.783371    2.761817
     10          6           0      -23.197984    1.347795    2.284246
     11          6           0      -21.499031    2.857542    3.662675
     12          6           0      -24.195087    4.415635    1.297454
     13          6           0      -24.001609    5.858456    1.850329
     14          1           0      -22.948355    6.182863    2.922972
     15          7           0      -23.789523   -1.634655    1.817986
     16          6           0      -23.677515   -1.010472    3.088043
     17          6           0      -23.943638   -1.971140    4.115949
     18          6           0      -24.229618   -3.206797    3.433074
     19          6           0      -24.153093   -2.859204    1.969097
     20          6           0      -23.996601   -1.663565    5.571395
     21          6           0      -24.575537   -4.573642    4.013122
     22          8           0      -24.702386   -5.645738    3.351833
     23          6           0      -24.775146   -4.717450    5.512348
     24          7           0      -23.725595   -2.439196   -1.069584
     25          6           0      -24.274979   -3.590086   -0.502307
     26          6           0      -24.717163   -4.671868   -1.529679
     27          6           0      -24.349781   -3.875798   -2.904117
     28          6           0      -23.774285   -2.582051   -2.457215
     29          6           0      -23.898790   -5.948296   -1.296357
     30          6           0      -25.491434   -3.748128   -3.869132
     31          6           0      -25.187592   -4.298765   -5.233111
     32          7           0      -23.007221    0.129892   -1.798405
     33          6           0      -22.938908   -0.363549   -3.095371
     34          6           0      -22.518028    0.655346   -3.983998
     35          6           0      -22.363993    1.847050   -3.225866
     36          6           0      -22.772965    1.518334   -1.916200
     37          6           0      -22.304222    0.588352   -5.447458
     38          6           0      -21.898969    3.216380   -3.259356
     39          8           0      -21.409420    3.938449   -4.105771
     40          6           0      -22.209967    3.721767   -1.771272
     41          6           0      -21.137512    4.600911   -1.236354
     42          8           0      -19.949597    4.425528   -1.330759
     43          8           0      -21.606816    5.701444   -0.628249
     44          6           0      -20.551829    6.593795   -0.069031
     45          1           0      -23.143714    0.698207    4.276076
     46          1           0      -24.529990   -4.776547    1.180577
     47          1           0      -23.243363   -1.867820   -4.419104
     48          1           0      -21.941467    4.128214    1.361354
     49          1           0      -23.644186    3.112888    3.369436
     50          1           0      -20.819725    3.566487    3.189202
     51          1           0      -20.964079    1.929006    3.855644
     52          1           0      -21.824442    3.190219    4.648523
     53          1           0      -24.929782    3.833421    1.853923
     54          1           0      -24.480219    4.463631    0.246432
     55          1           0      -24.996921    6.094331    2.227362
     56          1           0      -23.887268    6.502633    0.978914
     57          1           0      -24.932729   -1.237899    5.932882
     58          1           0      -23.153714   -0.998201    5.754045
     59          1           0      -23.686779   -2.499363    6.198030
     60          1           0      -23.777330   -4.833649    5.935113
     61          1           0      -25.328682   -5.648552    5.631279
     62          1           0      -25.261189   -3.861251    5.980427
     63          1           0      -25.761031   -4.890087   -1.303924
     64          1           0      -23.572756   -4.434236   -3.427204
     65          1           0      -23.074633   -5.863065   -0.587811
     66          1           0      -23.611783   -6.363865   -2.262002
     67          1           0      -24.578164   -6.648929   -0.810043
     68          1           0      -25.771933   -2.713981   -4.069467
     69          1           0      -26.421272   -4.210889   -3.538206
     70          1           0      -25.965521   -4.962079   -5.610106
     71          1           0      -24.260218   -4.870931   -5.232855
     72          1           0      -24.985534   -3.413463   -5.836748
     73          1           0      -21.972780   -0.373538   -5.839762
     74          1           0      -21.384760    1.157282   -5.588312
     75          1           0      -23.190953    0.946616   -5.970497
     76          1           0      -23.054617    4.360627   -2.030832
     77          1           0      -20.068058    7.191913   -0.842558
     78          1           0      -19.867627    6.055176    0.586818
     79          1           0      -21.033729    7.312028    0.594757
     80         12           0       23.746793   -0.810028    0.124490
     81          6           0       21.650783    2.208020    0.682737
     82          6           0       26.133954    1.414964   -0.755730
     83          6           0       25.343351   -3.452665   -0.593216
     84          6           0       20.713373   -2.661189    0.337755
     85          7           0       23.823772    1.515057   -0.055889
     86          6           0       22.939517    2.481423    0.392888
     87          6           0       23.518697    3.899630    0.450002
     88          6           0       24.779549    3.674248   -0.440391
     89          6           0       24.957883    2.106720   -0.448305
     90          6           0       24.686700    4.225073   -1.828511
     91          6           0       23.782927    4.508322    1.867953
     92          6           0       23.669585    5.987413    2.029714
     93          1           0       24.677718    6.618259    2.984969
     94          7           0       25.567895   -1.023770   -0.554914
     95          6           0       26.473459    0.024722   -0.820316
     96          6           0       27.752939   -0.563837   -1.093071
     97          6           0       27.531481   -1.994022   -0.882849
     98          6           0       26.140869   -2.171618   -0.667241
     99          6           0       29.081272    0.238695   -1.352529
    100          6           0       28.597304   -3.046467   -0.909322
    101          8           0       28.331871   -4.266731   -0.783203
    102          6           0       30.044351   -2.736247   -1.033475
    103          7           0       23.150121   -2.755136   -0.263535
    104          6           0       24.028298   -3.723226   -0.532895
    105          6           0       23.387355   -5.142137   -0.663083
    106          6           0       22.031711   -4.860024    0.085654
    107          6           0       21.916611   -3.312426    0.020676
    108          6           0       23.149686   -5.549230   -2.152912
    109          6           0       22.066752   -5.339776    1.597382
    110          6           0       22.462508   -6.795621    1.921868
    111          7           0       21.624589   -0.366183    0.484589
    112          6           0       20.559529   -1.252174    0.600343
    113          6           0       19.340198   -0.515994    0.839065
    114          6           0       19.726710    0.828133    0.916091
    115          6           0       21.113554    0.897161    0.609699
    116          6           0       17.988115   -1.085874    1.108214
    117          6           0       19.228148    2.177124    1.149672
    118          8           0       18.135426    2.639051    1.450566
    119          6           0       20.559508    3.090491    1.081542
    120          6           0       20.245052    4.170838    0.162476
    121          8           0       19.971597    4.067352   -1.043672
    122          8           0       19.867438    5.251641    0.906646
    123          6           0       19.440271    6.442621    0.245165
    124          1           0       26.896711    2.186266   -0.882636
    125          1           0       25.855043   -4.387515   -0.830511
    126          1           0       19.819308   -3.284801    0.408309
    127          1           0       22.823694    4.550049   -0.081487
    128          1           0       25.675844    4.025320    0.070128
    129          1           0       24.558108    3.375257   -2.498898
    130          1           0       25.631250    4.696084   -2.100297
    131          1           0       23.881785    4.930485   -2.033988
    132          1           0       24.814792    4.269884    2.124257
    133          1           0       23.145216    3.974818    2.572282
    134          1           0       22.665890    6.121651    2.432546
    135          1           0       23.561473    6.506317    1.077169
    136          1           0       29.798216    0.238889   -0.532031
    137          1           0       28.872750    1.257510   -1.677981
    138          1           0       29.482792   -0.292636   -2.216307
    139          1           0       30.247694   -2.467071   -2.070273
    140          1           0       30.564717   -3.656828   -0.767781
    141          1           0       30.258918   -1.964757   -0.294718
    142          1           0       24.077372   -5.825508   -0.166981
    143          1           0       21.138984   -5.274872   -0.381380
    144          1           0       23.829122   -6.377211   -2.356717
    145          1           0       23.251060   -4.750625   -2.887080
    146          1           0       22.123276   -5.916872   -2.114969
    147          1           0       21.061974   -5.249737    2.009507
    148          1           0       22.675656   -4.609290    2.129746
    149          1           0       23.330410   -6.704929    2.574858
    150          1           0       22.769682   -7.206639    0.959770
    151          1           0       21.669512   -7.342462    2.431767
    152          1           0       18.176299   -2.141976    1.302803
    153          1           0       17.419168   -0.955513    0.187710
    154          1           0       17.441144   -0.578698    1.902987
    155          1           0       20.786186    3.478240    2.074535
    156          1           0       19.502152    6.347726   -0.839156
    157          1           0       20.153460    7.207064    0.553782
    158          1           0       18.471547    6.775247    0.615310
 ---------------------------------------------------------------------

 SCF Done:  E(RCAM-B3LYP) =  -4069.80972605     A.U. after   17 cycles

 Excitation energies and oscillator strengths:

 Excited State   1:      Singlet-A      1.6462 eV  753.17 nm  f=0.3913  <S**2>=0.000
     309 -> 315       -0.17002
     312 -> 314        0.68912
     309 <- 315       -0.10749
 This state for optimization and/or second-order correction.
 Total Energy, E(TD-HF/TD-DFT) =  -4069.74923036
 Copying the excited state density for this state as the 1-particle RhoCI density.

 Excited State   2:      Singlet-A      1.6590 eV  747.35 nm  f=0.3885  <S**2>=0.000
     310 -> 316       -0.15615
     311 -> 313        0.69165
     310 <- 316       -0.10434

 Excited State   3:      Singlet-A      2.1782 eV  569.22 nm  f=0.2149  <S**2>=0.000
     310 -> 313        0.66759
     311 -> 316        0.21706

 Excited State   4:      Singlet-A      2.2270 eV  556.73 nm  f=0.1137  <S**2>=0.000
     309 -> 314        0.63824
     312 -> 315        0.29159

 Excited State   5:      Singlet-A      2.8941 eV  428.41 nm  f=0.0000  <S**2>=0.000
     312 -> 313        0.70710

 The electronic state is 1-A.
 Alpha  occ. eigenvalues --  -46.88888 -46.87130 -19.25148 -19.24798 -19.19881
 Alpha  occ. eigenvalues --  -19.19406 -19.19205 -19.18741 -19.18478 -19.17426
 Alpha  occ. eigenvalues --  -14.42836 -14.42299 -14.41667 -14.41422 -14.39696
 Alpha  occ. eigenvalues --  -14.39561 -14.39507 -14.38740 -10.39132 -10.38572
 Alpha  occ. eigenvalues --  -10.35967 -10.35207 -10.35128 -10.33984 -10.32024
 Alpha  occ. eigenvalues --  -10.31398 -10.31336 -10.31110 -10.30934 -10.30793
 Alpha  occ. eigenvalues --  -10.30724 -10.30711 -10.30689 -10.30464 -10.30442
 Alpha  occ. eigenvalues --  -10.30355 -10.30095 -10.29842 -10.29836 -10.29327
 Alpha  occ. eigenvalues --  -10.29064 -10.29048 -10.28948 -10.28929 -10.28836
 Alpha  occ. eigenvalues --  -10.28726 -10.28301 -10.28229 -10.28126 -10.28111
 Alpha  occ. eigenvalues --  -10.28105 -10.28101 -10.28014 -10.28006 -10.27991
 Alpha  occ. eigenvalues --  -10.27915 -10.27848 -10.27839 -10.27778 -10.27760
 Alpha  occ. eigenvalues --  -10.27634 -10.27516 -10.27495 -10.27457 -10.27413
 Alpha  occ. eigenvalues --  -10.27375 -10.27182 -10.27042 -10.26795 -10.26706
 Alpha  occ. eigenvalues --  -10.26380 -10.26182 -10.25980 -10.25933 -10.25820
 Alpha  occ. eigenvalues --  -10.25742 -10.25723 -10.25610 -10.25588 -10.25588
 Alpha  occ. eigenvalues --  -10.25531 -10.25528 -10.25458 -10.25365 -10.25221
 Alpha  occ. eigenvalues --  -10.25104  -3.17549  -3.15989  -1.92418  -1.92001
 Alpha  occ. eigenvalues --   -1.91871  -1.90879  -1.90423  -1.90334  -1.17289
 Alpha  occ. eigenvalues --   -1.16526  -1.10215  -1.10122  -1.07459  -1.07391
 Alpha  occ. eigenvalues --   -1.07237  -1.07008  -1.04905  -1.04507  -1.04025
 Alpha  occ. eigenvalues --   -1.03652  -1.03552  -1.02700  -1.02525  -1.01393
 Alpha  occ. eigenvalues --   -0.93694  -0.93356  -0.89700  -0.89545  -0.88793
 Alpha  occ. eigenvalues --   -0.88788  -0.88570  -0.88038  -0.87663  -0.87453
 Alpha  occ. eigenvalues --   -0.87208  -0.86829  -0.86398  -0.86233  -0.84735
 Alpha  occ. eigenvalues --   -0.84315  -0.84031  -0.83802  -0.83137  -0.82463
 Alpha  occ. eigenvalues --   -0.82065  -0.81644  -0.81056  -0.81040  -0.80845
 Alpha  occ. eigenvalues --   -0.80491  -0.78559  -0.78343  -0.77763  -0.77480
 Alpha  occ. eigenvalues --   -0.77344  -0.77278  -0.76513  -0.76218  -0.75437
 Alpha  occ. eigenvalues --   -0.75202  -0.73349  -0.72869  -0.71833  -0.70936
 Alpha  occ. eigenvalues --   -0.69283  -0.69077  -0.68674  -0.68638  -0.68177
 Alpha  occ. eigenvalues --   -0.68166  -0.66934  -0.66687  -0.65847  -0.65693
 Alpha  occ. eigenvalues --   -0.65340  -0.65127  -0.64895  -0.64761  -0.64471
 Alpha  occ. eigenvalues --   -0.64064  -0.62323  -0.62047  -0.60744  -0.60308
 Alpha  occ. eigenvalues --   -0.59919  -0.59772  -0.59515  -0.58953  -0.58854
 Alpha  occ. eigenvalues --   -0.58390  -0.58359  -0.57985  -0.57696  -0.57673
 Alpha  occ. eigenvalues --   -0.56074  -0.55898  -0.55624  -0.55484  -0.55171
 Alpha  occ. eigenvalues --   -0.54962  -0.54878  -0.54617  -0.54190  -0.53929
 Alpha  occ. eigenvalues --   -0.53691  -0.53330  -0.53224  -0.52985  -0.52877
 Alpha  occ. eigenvalues --   -0.52867  -0.52554  -0.52541  -0.52419  -0.52408
 Alpha  occ. eigenvalues --   -0.52132  -0.51961  -0.51751  -0.51413  -0.51296
 Alpha  occ. eigenvalues --   -0.51218  -0.51137  -0.51014  -0.50299  -0.50293
 Alpha  occ. eigenvalues --   -0.50083  -0.49965  -0.49899  -0.49840  -0.49712
 Alpha  occ. eigenvalues --   -0.49596  -0.49488  -0.49202  -0.48992  -0.48860
 Alpha  occ. eigenvalues --   -0.48726  -0.48372  -0.48323  -0.48211  -0.48145
 Alpha  occ. eigenvalues --   -0.47982  -0.47853  -0.47752  -0.47565  -0.47308
 Alpha  occ. eigenvalues --   -0.47255  -0.47200  -0.46694  -0.46587  -0.46520
 Alpha  occ. eigenvalues --   -0.46377  -0.46342  -0.46189  -0.45943  -0.45907
 Alpha  occ. eigenvalues --   -0.45389  -0.45181  -0.45110  -0.44971  -0.44896
 Alpha  occ. eigenvalues --   -0.44833  -0.44758  -0.44532  -0.44356  -0.44036
 Alpha  occ. eigenvalues --   -0.43944  -0.43876  -0.43698  -0.43497  -0.43271
 Alpha  occ. eigenvalues --   -0.43265  -0.43159  -0.43084  -0.42838  -0.42676
 Alpha  occ. eigenvalues --   -0.42395  -0.42333  -0.42105  -0.42028  -0.42005
 Alpha  occ. eigenvalues --   -0.41935  -0.41625  -0.41399  -0.41331  -0.40965
 Alpha  occ. eigenvalues --   -0.40877  -0.40677  -0.40628  -0.40480  -0.40418
 Alpha  occ. eigenvalues --   -0.40375  -0.40035  -0.39806  -0.39480  -0.39261
 Alpha  occ. eigenvalues --   -0.38571  -0.38235  -0.38235  -0.37955  -0.37756
 Alpha  occ. eigenvalues --   -0.37603  -0.37181  -0.37176  -0.37015  -0.36598
 Alpha  occ. eigenvalues --   -0.36396  -0.35815  -0.34606  -0.34580  -0.34304
 Alpha  occ. eigenvalues --   -0.34118  -0.33327  -0.33128  -0.31559  -0.31520
 Alpha  occ. eigenvalues --   -0.31388  -0.30718  -0.30697  -0.30124  -0.29932
 Alpha  occ. eigenvalues --   -0.29883  -0.29800  -0.29561  -0.24299  -0.24262
 Alpha  occ. eigenvalues --   -0.21720  -0.21020
 Alpha virt. eigenvalues --   -0.09649  -0.08949  -0.01603  -0.00768   0.00127
 Alpha virt. eigenvalues --    0.00299   0.01749   0.02180   0.02262   0.03179
 Alpha virt. eigenvalues --    0.03936   0.04783   0.04982   0.05483   0.05884

 Mulliken charges:
               1
     1  Mg   0.841763
     2  C    0.034511
     3  C   -0.092995
     4  C   -0.054403
     5  C   -0.125440
     6  N   -0.303482
     7  C   -0.052258
     8  C    0.000516
     9  C   -0.079182
    10  C    0.037475
    11  C    0.069885
    12  C    0.044552
    13  C   -0.036863
    14  H    0.029769
    15  N   -0.308343
    16  C    0.155183
    17  C   -0.140372
    18  C   -0.029027
    19  C    0.069285
    20  C    0.113466
    21  C    0.008017
    22  O   -0.244606
    23  C    0.041256
    24  N   -0.321009
    25  C    0.036077
    26  C   -0.042184
    27  C    0.024941
    28  C    0.084832
    29  C    0.056677
    30  C    0.036914
    31  C   -0.008394
    32  N   -0.439370
    33  C    0.179099
    34  C   -0.175161
    35  C   -0.013992
    36  C    0.109963
    37  C    0.115564
    38  C    0.073234
    39  O   -0.144954
    40  C   -0.038072
    41  C    0.155650
    42  O   -0.198820
    43  O   -0.329052
    44  C    0.182743
    45  H   -0.027436
    46  H   -0.007718
    47  H   -0.042420
    48  H    0.003928
    49  H    0.010792
    50  H    0.020604
    51  H    0.027118
    52  H    0.015776
    53  H    0.012883
    54  H    0.017187
    55  H    0.020516
    56  H    0.038036
    57  H    0.049689
    58  H    0.012653
    59  H    0.009438
    60  H    0.044207
    61  H    0.032970
    62  H    0.028624
    63  H    0.029398
    64  H    0.012706
    65  H    0.039384
    66  H    0.014861
    67  H    0.019107
    68  H    0.008601
    69  H    0.002690
    70  H    0.020672
    71  H    0.002403
    72  H    0.017160
    73  H    0.004844
    74  H    0.038584
    75  H    0.044829
    76  H    0.038558
    77  H    0.051905
    78  H    0.041627
    79  H    0.022432
    80  Mg   0.846864
    81  C    0.005393
    82  C   -0.055094
    83  C   -0.031325
    84  C   -0.072620
    85  N   -0.231480
    86  C   -0.075671
    87  C   -0.050087
    88  C   -0.049616
    89  C   -0.041742
    90  C    0.095459
    91  C    0.083158
    92  C   -0.058007
    93  H    0.037220
    94  N   -0.406866
    95  C    0.180153
    96  C   -0.159279
    97  C   -0.027476
    98  C    0.117516
    99  C    0.116957
   100  C   -0.040734
   101  O   -0.244782
   102  C    0.073569
   103  N   -0.320044
   104  C    0.020755
   105  C   -0.057417
   106  C   -0.052465
   107  C    0.068243
   108  C    0.098077
   109  C    0.007914
   110  C    0.024830
   111  N   -0.315204
   112  C    0.105936
   113  C   -0.190286
   114  C    0.005582
   115  C    0.086728
   116  C    0.131695
   117  C    0.079957
   118  O   -0.155699
   119  C    0.008055
   120  C    0.184177
   121  O   -0.240400
   122  O   -0.318933
   123  C    0.170256
   124  H   -0.033472
   125  H   -0.013449
   126  H   -0.020836
   127  H    0.010341
   128  H   -0.000332
   129  H    0.022617
   130  H    0.011691
   131  H    0.026549
   132  H    0.008142
   133  H    0.007384
   134  H    0.024558
   135  H    0.021030
   136  H    0.046314
   137  H    0.017065
   138  H    0.021989
   139  H    0.041816
   140  H    0.028554
   141  H    0.025065
   142  H    0.021974
   143  H   -0.000170
   144  H    0.023666
   145  H    0.038032
   146  H    0.007189
   147  H   -0.000287
   148  H    0.009440
   149  H    0.020152
   150  H    0.016603
   151  H    0.025528
   152  H    0.010495
   153  H    0.036187
   154  H    0.041397
   155  H    0.041945
   156  H    0.049487
   157  H    0.016009
   158  H    0.044063
 Sum of Mulliken charges =  -0.00000

 Dipole moment (field-independent basis, Debye):
    X=             -0.4105    Y=              2.1006    Z=              4.7744  Tot=              5.2322
 Quadrupole moment (field-independent basis, Debye-Ang):
   XX=           -246.0350   YY=           -501.7068   ZZ=           -498.2637
   XY=             26.6857   XZ=            -36.7792   YZ=             32.3376

 Normal termination of Gaussian 16 at Wed Sep 15 20:10:23 2021.
