 Gaussian 16, Revision A.03,
 Gaussian 16:  ES64L-G16RevA.03 25-Dec-2016

 -----------------------------------
 #p cam-b3lyp/Def2SVP td=(nstates=5)
 -----------------------------------

 --------------------------------
 TDDFT excited states in gaussian
 --------------------------------
 Symbolic Z-matrix:
 Charge =  0 Multiplicity = 1

                         Standard orientation:
 ---------------------------------------------------------------------
 Center     Atomic      Atomic             Coordinates (Angstroms)
 Number     Number       Type             X           Y           Z
 ---------------------------------------------------------------------
      1         12           0       -8.948843   -0.378285   -0.280212
      2          6           0       -7.386606    2.385757    1.164644
      3          6           0      -10.789388    1.647141   -2.174127
      4          6           0      -11.218772   -2.917648   -0.570312
      5          6           0       -7.034922   -2.454824    1.759682
      6          7           0       -8.953145    1.796515   -0.600603
      7          6           0       -8.234915    2.684555    0.075948
      8          6           0       -8.454175    4.106350   -0.556643
      9          6           0       -9.623131    3.849212   -1.537534
     10          6           0       -9.840167    2.342512   -1.434381
     11          6           0      -11.007650    4.543835   -1.102631
     12          6           0       -7.183443    4.724320   -1.298723
     13          6           0       -7.017296    6.178844   -1.020043
     14          1           0       -6.843656    7.148759   -2.178643
     15          7           0      -10.738556   -0.593164   -1.264053
     16          6           0      -11.338880    0.371011   -2.029674
     17          6           0      -12.403539   -0.257288   -2.824206
     18          6           0      -12.518706   -1.591913   -2.344589
     19          6           0      -11.484197   -1.719688   -1.304749
     20          6           0      -13.267605    0.524549   -3.864474
     21          6           0      -13.554404   -2.685080   -2.745983
     22          8           0      -13.574478   -3.818614   -2.279562
     23          6           0      -14.563009   -2.341432   -3.775971
     24          7           0       -9.130520   -2.323192    0.477127
     25          6           0      -10.195066   -3.209771    0.288860
     26          6           0      -10.020697   -4.435573    1.223164
     27          6           0       -8.442718   -4.512134    1.415393
     28          6           0       -8.206873   -2.992675    1.183584
     29          6           0      -10.861897   -4.341998    2.514276
     30          6           0       -7.669661   -5.341129    0.429421
     31          6           0       -7.356400   -4.821518   -0.942252
     32          7           0       -7.362811   -0.185132    1.028540
     33          6           0       -6.701617   -1.094881    1.820893
     34          6           0       -5.667287   -0.459243    2.640330
     35          6           0       -5.958848    0.971643    2.497339
     36          6           0       -7.012581    1.049438    1.505431
     37          6           0       -4.779063   -1.116852    3.566965
     38          6           0       -5.617397    2.315651    2.947190
     39          8           0       -4.889817    2.713432    3.777870
     40          6           0       -6.499459    3.301600    2.017672
     41          6           0       -7.228267    4.382736    2.774998
     42          8           0       -8.376550    4.298412    3.200449
     43          8           0       -6.416671    5.515790    2.821374
     44          6           0       -6.953395    6.712363    3.494606
     45          1           0      -11.343800    2.123301   -2.985963
     46          1           0      -11.993901   -3.677091   -0.695342
     47          1           0       -6.407375   -3.167900    2.297670
     48          1           0       -8.813692    4.830627    0.174722
     49          1           0       -9.475240    4.184019   -2.564227
     50          1           0      -11.036960    5.517513   -1.592124
     51          1           0      -11.105995    4.762867   -0.039715
     52          1           0      -11.823324    3.925575   -1.479334
     53          1           0       -7.253508    4.610900   -2.380668
     54          1           0       -6.229768    4.246054   -1.074967
     55          1           0       -6.062070    6.219478   -0.497314
     56          1           0       -7.746899    6.661508   -0.370405
     57          1           0      -14.122285    0.907211   -3.307334
     58          1           0      -13.533510   -0.100551   -4.717249
     59          1           0      -12.841302    1.481791   -4.166445
     60          1           0      -15.053923   -1.368536   -3.794173
     61          1           0      -15.375183   -3.067473   -3.749051
     62          1           0      -14.184245   -2.630605   -4.756703
     63          1           0      -10.343837   -5.271300    0.603149
     64          1           0       -8.163032   -4.853110    2.412035
     65          1           0      -10.325918   -4.459591    3.456103
     66          1           0      -11.780965   -4.927473    2.480538
     67          1           0      -11.288908   -3.343418    2.605317
     68          1           0       -8.113932   -6.312561    0.215918
     69          1           0       -6.707576   -5.579460    0.883181
     70          1           0       -6.353766   -4.415320   -0.809929
     71          1           0       -7.983004   -4.002773   -1.296659
     72          1           0       -7.364065   -5.650489   -1.650696
     73          1           0       -3.838381   -0.568529    3.513219
     74          1           0       -4.623629   -2.129935    3.196847
     75          1           0       -5.183671   -1.065631    4.577310
     76          1           0       -5.806684    3.799382    1.339147
     77          1           0       -7.281770    6.397260    4.485419
     78          1           0       -7.827905    7.094124    2.968391
     79          1           0       -6.318431    7.589326    3.621619
     80         12           0        8.628239   -1.134068   -0.167436
     81          6           0       10.967999    1.658540   -0.572727
     82          6           0        6.082980    1.177767   -0.840492
     83          6           0        6.464315   -3.472538    0.522906
     84          6           0       11.288394   -3.251079    0.283974
     85          7           0        8.521846    1.159032   -0.439425
     86          6           0        9.604246    2.099145   -0.703054
     87          6           0        9.123915    3.538982   -0.984774
     88          6           0        7.509010    3.310016   -0.842800
     89          6           0        7.309333    1.790371   -0.680402
     90          6           0        6.872856    4.115268    0.273527
     91          6           0        9.660579    4.037613   -2.360595
     92          6           0        9.027119    5.293034   -2.880338
     93          1           0        9.892528    6.376577   -3.484218
     94          7           0        6.523882   -1.171911   -0.128275
     95          6           0        5.644470   -0.129581   -0.442548
     96          6           0        4.265198   -0.604807   -0.350606
     97          6           0        4.346120   -2.001042    0.050532
     98          6           0        5.818676   -2.309534    0.175092
     99          6           0        2.993059    0.241827   -0.722580
    100          6           0        3.288654   -2.998420    0.360356
    101          8           0        3.492730   -4.167090    0.660876
    102          6           0        1.868980   -2.641109    0.201531
    103          7           0        8.830799   -3.048490    0.228770
    104          6           0        7.804193   -3.812716    0.606047
    105          6           0        8.230221   -5.260092    0.946524
    106          6           0        9.657623   -5.268295    0.440069
    107          6           0       10.000660   -3.730128    0.362640
    108          6           0        8.121550   -5.586247    2.431564
    109          6           0       10.070769   -5.960350   -0.833035
    110          6           0        9.438167   -5.391076   -2.084940
    111          7           0       10.692207   -0.884821   -0.042270
    112          6           0       11.663075   -1.898386    0.050227
    113          6           0       12.972194   -1.294136    0.019453
    114          6           0       12.679222    0.057725   -0.295507
    115          6           0       11.288354    0.275636   -0.311158
    116          6           0       14.314767   -1.962534    0.076797
    117          6           0       13.378246    1.335573   -0.635477
    118          8           0       14.586453    1.577205   -0.843783
    119          6           0       12.276013    2.382037   -0.783534
    120          6           0       12.537331    3.555403    0.163165
    121          8           0       12.563877    3.595050    1.428709
    122          8           0       12.606415    4.677655   -0.608287
    123          6           0       12.773194    5.952578    0.125617
    124          1           0        5.319406    1.843686   -1.245476
    125          1           0        5.759838   -4.252253    0.819746
    126          1           0       12.180742   -3.859897    0.444413
    127          1           0        9.612475    4.152463   -0.227830
    128          1           0        7.040178    3.511102   -1.806078
    129          1           0        6.102713    4.755349   -0.157863
    130          1           0        7.664181    4.737023    0.690739
    131          1           0        6.607915    3.586716    1.188990
    132          1           0        9.610940    3.172190   -3.022322
    133          1           0       10.729535    4.228491   -2.264942
    134          1           0        8.471185    5.899503   -2.165704
    135          1           0        8.379918    5.044395   -3.720924
    136          1           0        2.542986   -0.291988   -1.560084
    137          1           0        3.225435    1.258039   -1.040673
    138          1           0        2.357520    0.236790    0.163043
    139          1           0        1.615367   -1.656260    0.594315
    140          1           0        1.348965   -3.408053    0.774459
    141          1           0        1.747300   -2.542945   -0.876770
    142          1           0        7.561032   -5.924694    0.399973
    143          1           0       10.339592   -5.744684    1.144956
    144          1           0        7.729677   -6.597515    2.534247
    145          1           0        7.444021   -4.899783    2.938207
    146          1           0        9.115277   -5.656497    2.875373
    147          1           0        9.894794   -7.028674   -0.704299
    148          1           0       11.126188   -5.789911   -1.044855
    149          1           0        9.055631   -6.172233   -2.740848
    150          1           0       10.150373   -4.850132   -2.708433
    151          1           0        8.594117   -4.726558   -1.899861
    152          1           0       14.922040   -1.635111   -0.766717
    153          1           0       14.396243   -3.049408    0.087223
    154          1           0       14.792695   -1.629369    0.998276
    155          1           0       12.343494    2.804179   -1.786608
    156          1           0       11.812581    6.461616    0.201591
    157          1           0       13.530603    6.410498   -0.510593
    158          1           0       13.263589    5.817169    1.090461
 ---------------------------------------------------------------------

 SCF Done:  E(RCAM-B3LYP) =  -4069.82813889     A.U. after   19 cycles

 Excitation energies and oscillator strengths:

 Excited State   1:      Singlet-A      1.6572 eV  748.14 nm  f=0.6658  <S**2>=0.000
     309 -> 315       -0.14771
     311 -> 313        0.61920
     312 -> 314        0.30197
 This state for optimization and/or second-order correction.
 Total Energy, E(TD-HF/TD-DFT) =  -4069.76723661
 Copying the excited state density for this state as the 1-particle RhoCI density.

 Excited State   2:      Singlet-A      1.6855 eV  735.57 nm  f=0.1448  <S**2>=0.000
     310 -> 316       -0.16011
     311 -> 313       -0.30189
     312 -> 314        0.61658

 Excited State   3:      Singlet-A      2.1712 eV  571.04 nm  f=0.1282  <S**2>=0.000
     309 -> 313        0.65249
     311 -> 315        0.25449

 Excited State   4:      Singlet-A      2.2555 eV  549.70 nm  f=0.1058  <S**2>=0.000
     310 -> 314        0.63265
     312 -> 316        0.30575

 Excited State   5:      Singlet-A      2.6184 eV  473.51 nm  f=0.0000  <S**2>=0.000
     312 -> 313        0.70677

 The electronic state is 1-A.
 Alpha  occ. eigenvalues --  -46.88086 -46.87732 -19.25733 -19.25205 -19.20278
 Alpha  occ. eigenvalues --  -19.19879 -19.19606 -19.19322 -19.18755 -19.18445
 Alpha  occ. eigenvalues --  -14.42474 -14.42365 -14.42141 -14.41580 -14.39933
 Alpha  occ. eigenvalues --  -14.39456 -14.39387 -14.38838 -10.39927 -10.39873
 Alpha  occ. eigenvalues --  -10.35787 -10.35714 -10.34729 -10.34626 -10.31976
 Alpha  occ. eigenvalues --  -10.31947 -10.31884 -10.31503 -10.31473 -10.31345
 Alpha  occ. eigenvalues --  -10.31075 -10.30768 -10.30734 -10.30671 -10.30595
 Alpha  occ. eigenvalues --  -10.30445 -10.30160 -10.30050 -10.29911 -10.29647
 Alpha  occ. eigenvalues --  -10.29559 -10.29239 -10.28944 -10.28936 -10.28933
 Alpha  occ. eigenvalues --  -10.28854 -10.28832 -10.28784 -10.28628 -10.28576
 Alpha  occ. eigenvalues --  -10.28574 -10.28543 -10.28517 -10.28479 -10.28391
 Alpha  occ. eigenvalues --  -10.28227 -10.28086 -10.27795 -10.27687 -10.27684
 Alpha  occ. eigenvalues --  -10.27505 -10.27484 -10.27372 -10.27239 -10.27106
 Alpha  occ. eigenvalues --  -10.26985 -10.26955 -10.26872 -10.26816 -10.26278
 Alpha  occ. eigenvalues --  -10.26266 -10.26228 -10.26228 -10.26095 -10.25938
 Alpha  occ. eigenvalues --  -10.25890 -10.25824 -10.25714 -10.25699 -10.25683
 Alpha  occ. eigenvalues --  -10.25654 -10.25614 -10.25531 -10.24680 -10.24678
 Alpha  occ. eigenvalues --  -10.24558  -3.16789  -3.16472  -1.91693  -1.91377
 Alpha  occ. eigenvalues --   -1.91220  -1.91116  -1.90938  -1.90774  -1.15975
 Alpha  occ. eigenvalues --   -1.15337  -1.13141  -1.10377  -1.10297  -1.07781
 Alpha  occ. eigenvalues --   -1.07632  -1.05735  -1.05354  -1.05030  -1.03736
 Alpha  occ. eigenvalues --   -1.03036  -1.02800  -1.02300  -1.02246  -1.00580
 Alpha  occ. eigenvalues --   -0.92282  -0.92048  -0.89680  -0.89167  -0.88838
 Alpha  occ. eigenvalues --   -0.88823  -0.88670  -0.88185  -0.87354  -0.87296
 Alpha  occ. eigenvalues --   -0.87057  -0.86975  -0.86459  -0.85859  -0.84746
 Alpha  occ. eigenvalues --   -0.84349  -0.84036  -0.83743  -0.82918  -0.82716
 Alpha  occ. eigenvalues --   -0.82286  -0.82008  -0.81397  -0.81167  -0.80531
 Alpha  occ. eigenvalues --   -0.80057  -0.78492  -0.78403  -0.77412  -0.77255
 Alpha  occ. eigenvalues --   -0.76908  -0.76786  -0.76017  -0.75943  -0.75475
 Alpha  occ. eigenvalues --   -0.75024  -0.72740  -0.72413  -0.71926  -0.71627
 Alpha  occ. eigenvalues --   -0.70281  -0.69426  -0.69363  -0.68664  -0.67945
 Alpha  occ. eigenvalues --   -0.67614  -0.67122  -0.66929  -0.65882  -0.65042
 Alpha  occ. eigenvalues --   -0.64782  -0.64641  -0.64403  -0.64305  -0.64242
 Alpha  occ. eigenvalues --   -0.63803  -0.61972  -0.61919  -0.60302  -0.60209
 Alpha  occ. eigenvalues --   -0.59771  -0.59143  -0.59058  -0.59046  -0.58296
 Alpha  occ. eigenvalues --   -0.58262  -0.57935  -0.57697  -0.57406  -0.57380
 Alpha  occ. eigenvalues --   -0.56257  -0.55965  -0.55962  -0.55690  -0.55510
 Alpha  occ. eigenvalues --   -0.55463  -0.55287  -0.54976  -0.54781  -0.54272
 Alpha  occ. eigenvalues --   -0.54266  -0.53727  -0.53554  -0.53445  -0.53112
 Alpha  occ. eigenvalues --   -0.53051  -0.52709  -0.52667  -0.52485  -0.52336
 Alpha  occ. eigenvalues --   -0.52103  -0.51926  -0.51801  -0.51573  -0.51418
 Alpha  occ. eigenvalues --   -0.51122  -0.50808  -0.50702  -0.50562  -0.50361
 Alpha  occ. eigenvalues --   -0.50344  -0.50233  -0.50171  -0.49788  -0.49770
 Alpha  occ. eigenvalues --   -0.49689  -0.49504  -0.49279  -0.48822  -0.48790
 Alpha  occ. eigenvalues --   -0.48757  -0.48524  -0.48462  -0.48428  -0.48144
 Alpha  occ. eigenvalues --   -0.48048  -0.47966  -0.47694  -0.47544  -0.47114
 Alpha  occ. eigenvalues --   -0.46992  -0.46972  -0.46761  -0.46736  -0.46499
 Alpha  occ. eigenvalues --   -0.46443  -0.46264  -0.46134  -0.45971  -0.45930
 Alpha  occ. eigenvalues --   -0.45678  -0.45671  -0.45422  -0.45375  -0.45134
 Alpha  occ. eigenvalues --   -0.44929  -0.44792  -0.44538  -0.44516  -0.44333
 Alpha  occ. eigenvalues --   -0.44331  -0.44164  -0.43956  -0.43896  -0.43501
 Alpha  occ. eigenvalues --   -0.43471  -0.43399  -0.43161  -0.42953  -0.42816
 Alpha  occ. eigenvalues --   -0.42609  -0.42477  -0.42183  -0.42056  -0.41835
 Alpha  occ. eigenvalues --   -0.41742  -0.41742  -0.41668  -0.41501  -0.41342
 Alpha  occ. eigenvalues --   -0.41183  -0.40937  -0.40642  -0.40449  -0.40400
 Alpha  occ. eigenvalues --   -0.39930  -0.39269  -0.39201  -0.39090  -0.38880
 Alpha  occ. eigenvalues --   -0.38858  -0.38215  -0.37847  -0.37309  -0.37158
 Alpha  occ. eigenvalues --   -0.37109  -0.36767  -0.36743  -0.36702  -0.36499
 Alpha  occ. eigenvalues --   -0.36088  -0.36081  -0.34639  -0.34447  -0.34281
 Alpha  occ. eigenvalues --   -0.34072  -0.33046  -0.32974  -0.31548  -0.31491
 Alpha  occ. eigenvalues --   -0.31403  -0.31261  -0.31183  -0.30379  -0.30294
 Alpha  occ. eigenvalues --   -0.30187  -0.29733  -0.29151  -0.24227  -0.24150
 Alpha  occ. eigenvalues --   -0.21455  -0.20943
 Alpha virt. eigenvalues --   -0.09270  -0.08633  -0.01640  -0.01546   0.00239
 Alpha virt. eigenvalues --    0.00351   0.02209   0.02249   0.02606   0.03386
 Alpha virt. eigenvalues --    0.04380   0.04534   0.05185   0.05390   0.05758

 Mulliken charges:
               1
     1  Mg   0.845036
     2  C    0.027338
     3  C   -0.076971
     4  C   -0.074722
     5  C   -0.103219
     6  N   -0.243944
     7  C   -0.032430
     8  C    0.000840
     9  C   -0.076914
    10  C    0.082433
    11  C    0.038823
    12  C    0.070458
    13  C   -0.093234
    14  H    0.009579
    15  N   -0.370923
    16  C    0.094624
    17  C   -0.139711
    18  C   -0.061809
    19  C    0.101813
    20  C    0.093635
    21  C    0.039196
    22  O   -0.200380
    23  C    0.041682
    24  N   -0.294009
    25  C    0.034592
    26  C    0.001842
    27  C   -0.010338
    28  C    0.025376
    29  C    0.092590
    30  C    0.017319
    31  C    0.022144
    32  N   -0.362963
    33  C    0.153898
    34  C   -0.163568
    35  C   -0.040318
    36  C    0.088595
    37  C    0.123422
    38  C    0.055709
    39  O   -0.102836
    40  C   -0.071303
    41  C    0.218940
    42  O   -0.219742
    43  O   -0.352489
    44  C    0.186882
    45  H   -0.036614
    46  H   -0.006093
    47  H   -0.034141
    48  H    0.020490
    49  H    0.017570
    50  H    0.008714
    51  H    0.029794
    52  H    0.017360
    53  H    0.013619
    54  H    0.011999
    55  H    0.030911
    56  H    0.030569
    57  H    0.035192
    58  H    0.042465
    59  H    0.009190
    60  H    0.038241
    61  H    0.012417
    62  H    0.038912
    63  H   -0.003483
    64  H   -0.003552
    65  H    0.017547
    66  H    0.022093
    67  H    0.010521
    68  H    0.001721
    69  H   -0.001559
    70  H    0.005019
    71  H    0.031540
    72  H    0.016547
    73  H    0.031858
    74  H    0.015632
    75  H    0.051807
    76  H    0.045723
    77  H    0.037029
    78  H    0.023242
    79  H    0.042780
    80  Mg   0.833795
    81  C   -0.021215
    82  C   -0.079925
    83  C   -0.082868
    84  C   -0.070385
    85  N   -0.301377
    86  C   -0.047381
    87  C   -0.021540
    88  C   -0.058528
    89  C    0.064069
    90  C    0.100691
    91  C    0.032535
    92  C   -0.071075
    93  H    0.011616
    94  N   -0.386378
    95  C    0.147023
    96  C   -0.155827
    97  C   -0.010906
    98  C    0.125144
    99  C    0.113619
   100  C   -0.027072
   101  O   -0.212052
   102  C    0.063746
   103  N   -0.345438
   104  C    0.087794
   105  C   -0.030118
   106  C   -0.026319
   107  C    0.096091
   108  C    0.087983
   109  C    0.059822
   110  C   -0.013150
   111  N   -0.360252
   112  C    0.064886
   113  C   -0.139171
   114  C   -0.053546
   115  C    0.135938
   116  C    0.107492
   117  C    0.083433
   118  O   -0.200499
   119  C    0.008584
   120  C    0.216131
   121  O   -0.257549
   122  O   -0.336413
   123  C    0.163774
   124  H   -0.033136
   125  H   -0.005484
   126  H   -0.025284
   127  H    0.025888
   128  H    0.008579
   129  H    0.023645
   130  H    0.000260
   131  H    0.026035
   132  H    0.009451
   133  H    0.036900
   134  H    0.030528
   135  H    0.032558
   136  H    0.038635
   137  H    0.020545
   138  H    0.046938
   139  H    0.006751
   140  H    0.040022
   141  H    0.037439
   142  H    0.013558
   143  H   -0.013305
   144  H    0.012641
   145  H    0.026688
   146  H    0.015573
   147  H    0.009057
   148  H    0.003988
   149  H    0.005008
   150  H    0.012468
   151  H    0.021978
   152  H    0.039018
   153  H    0.005028
   154  H    0.032613
   155  H    0.049700
   156  H    0.048602
   157  H    0.042566
   158  H    0.059367
 Sum of Mulliken charges =  -0.00000

 Dipole moment (field-independent basis, Debye):
    X=             -5.4309    Y=              1.9314    Z=             -5.3317  Tot=              7.8518
 Quadrupole moment (field-independent basis, Debye-Ang):
   XX=           -608.0191   YY=           -469.7093   ZZ=           -514.5674
   XY=            -41.8097   XZ=             21.5214   YZ=            -19.1816

 Normal termination of Gaussian 16 at Tue Aug 31 22:47:56 2021.
