 Gaussian 16, Revision A.03,
 Gaussian 16:  ES64L-G16RevA.03 25-Dec-2016

 ----------------------------------------------------------
 #p cam-b3lyp/Def2SVP td=(nstates=5) density=(transition=1)
 ----------------------------------------------------------

 --------------------------------
 TDDFT excited states in gaussian
 --------------------------------
 Symbolic Z-matrix:
 Charge =  0 Multiplicity = 1

                         Standard orientation:
 ---------------------------------------------------------------------
 Center     Atomic      Atomic             Coordinates (Angstroms)
 Number     Number       Type             X           Y           Z
 ---------------------------------------------------------------------
      1         12           0       25.363975   -0.153669   -0.302732
      2          6           0       22.019884   -0.467369    0.520796
      3          6           0       24.469435    2.369561   -2.632094
      4          6           0       28.668955    0.627692   -0.759623
      5          6           0       26.261146   -2.253110    2.288878
      6          7           0       23.436630    0.709761   -1.034957
      7          6           0       22.201850    0.486915   -0.462746
      8          6           0       21.076093    1.462572   -0.973044
      9          6           0       21.787784    2.088009   -2.263968
     10          6           0       23.352586    1.693372   -2.044100
     11          6           0       21.276401    1.682555   -3.698714
     12          6           0       20.650209    2.505495   -0.000499
     13          6           0       19.217723    2.567321    0.493814
     14          1           0       18.703340    3.958107    0.898637
     15          7           0       26.432077    1.247721   -1.609010
     16          6           0       25.824567    2.139530   -2.512884
     17          6           0       26.830852    2.817567   -3.266474
     18          6           0       28.107603    2.429017   -2.611756
     19          6           0       27.793950    1.390475   -1.582083
     20          6           0       26.540817    3.913461   -4.297310
     21          6           0       29.448447    3.047504   -3.044296
     22          8           0       29.628831    3.904221   -3.904890
     23          6           0       30.610778    2.839179   -2.139368
     24          7           0       27.284325   -0.614744    0.787907
     25          6           0       28.472630   -0.299164    0.255008
     26          6           0       29.526091   -0.651409    1.304239
     27          6           0       28.813010   -1.682911    2.297684
     28          6           0       27.319118   -1.554223    1.757659
     29          6           0       30.735776   -1.375757    0.614057
     30          6           0       28.900162   -1.457875    3.863027
     31          6           0       29.644216   -2.448093    4.746468
     32          7           0       24.342612   -1.255039    1.112014
     33          6           0       24.836178   -2.110627    2.101881
     34          6           0       23.755364   -2.619505    2.889668
     35          6           0       22.593055   -2.007757    2.326312
     36          6           0       23.053112   -1.219100    1.200689
     37          6           0       23.811232   -3.553583    4.057189
     38          6           0       21.192148   -1.909590    2.358329
     39          8           0       20.420908   -2.461517    3.117386
     40          6           0       20.762845   -0.859484    1.261752
     41          6           0       19.615699   -1.401797    0.517027
     42          8           0       18.464268   -1.013482    0.678413
     43          8           0       20.035571   -2.404978   -0.343690
     44          6           0       18.921950   -3.027144   -1.094539
     45          1           0       24.314398    3.125763   -3.403918
     46          1           0       29.698226    0.873770   -1.030379
     47          1           0       26.566810   -2.879899    3.129063
     48          1           0       20.207861    0.881930   -1.282757
     49          1           0       21.754731    3.170870   -2.138632
     50          1           0       20.317788    1.181228   -3.565546
     51          1           0       21.958746    1.044936   -4.260963
     52          1           0       21.187888    2.603222   -4.274256
     53          1           0       20.793813    3.465219   -0.499177
     54          1           0       21.241934    2.427158    0.910914
     55          1           0       19.160265    1.983816    1.412220
     56          1           0       18.491211    2.227204   -0.243807
     57          1           0       25.527360    4.273446   -4.473145
     58          1           0       27.010754    3.508201   -5.193087
     59          1           0       27.253562    4.694036   -4.033155
     60          1           0       31.255813    1.972989   -2.280455
     61          1           0       30.336498    2.930176   -1.088264
     62          1           0       31.295868    3.663443   -2.341176
     63          1           0       29.889206    0.220174    1.849317
     64          1           0       29.095960   -2.704053    2.044531
     65          1           0       31.639165   -0.869933    0.954807
     66          1           0       30.710416   -1.398428   -0.476143
     67          1           0       30.809657   -2.431942    0.874146
     68          1           0       27.857664   -1.400088    4.175233
     69          1           0       29.441267   -0.518167    3.982108
     70          1           0       29.205505   -2.326257    5.737137
     71          1           0       30.690108   -2.146985    4.809923
     72          1           0       29.596047   -3.515013    4.531181
     73          1           0       22.777482   -3.697936    4.372319
     74          1           0       24.449984   -3.091213    4.809115
     75          1           0       24.211433   -4.544338    3.841160
     76          1           0       20.399179   -0.014761    1.847782
     77          1           0       18.522108   -3.874452   -0.537596
     78          1           0       19.321425   -3.255987   -2.082519
     79          1           0       18.117862   -2.317941   -1.288874
     80         12           0      -25.459999    0.119869    0.403209
     81          6           0      -22.242688   -1.055809   -0.480584
     82          6           0      -26.694320   -2.195837   -1.568376
     83          6           0      -28.238854    1.910849    0.451983
     84          6           0      -23.776344    2.890421    1.858447
     85          7           0      -24.461180   -1.562776   -0.738080
     86          6           0      -23.235315   -1.906585   -0.897277
     87          6           0      -23.135187   -3.299641   -1.552151
     88          6           0      -24.542022   -3.435659   -2.329224
     89          6           0      -25.298415   -2.273179   -1.561313
     90          6           0      -24.508445   -3.224178   -3.894578
     91          6           0      -23.027031   -4.455731   -0.426698
     92          6           0      -22.205580   -5.756557   -0.702742
     93          1           0      -22.113400   -6.214360   -2.204998
     94          7           0      -27.289872   -0.213649   -0.270040
     95          6           0      -27.607207   -1.315021   -1.050699
     96          6           0      -29.078947   -1.262914   -1.362974
     97          6           0      -29.535555   -0.039487   -0.715977
     98          6           0      -28.398914    0.671574   -0.124467
     99          6           0      -29.737424   -2.320191   -2.228992
    100          6           0      -30.957398    0.471165   -0.636332
    101          8           0      -31.292553    1.541745   -0.110659
    102          6           0      -32.041637   -0.365218   -1.184395
    103          7           0      -25.976616    2.148910    1.183109
    104          6           0      -27.198673    2.618679    1.009097
    105          6           0      -27.417531    3.916840    1.906500
    106          6           0      -25.882194    4.222360    2.338338
    107          6           0      -25.166598    2.990267    1.791037
    108          6           0      -28.160444    5.079436    1.168910
    109          6           0      -25.575420    4.439984    3.856422
    110          6           0      -25.172655    5.828857    4.280978
    111          7           0      -23.415875    0.737124    0.863745
    112          6           0      -22.947507    1.892408    1.457326
    113          6           0      -21.545906    1.929030    1.399477
    114          6           0      -21.232743    0.807347    0.608564
    115          6           0      -22.367886    0.113258    0.262444
    116          6           0      -20.652100    2.928609    1.939066
    117          6           0      -20.110365    0.100791    0.125637
    118          8           0      -18.859121    0.195043    0.250889
    119          6           0      -20.740142   -0.999644   -0.841549
    120          6           0      -20.029016   -2.293207   -0.682369
    121          8           0      -19.964373   -3.001045    0.320582
    122          8           0      -19.507884   -2.646668   -1.966921
    123          6           0      -18.746582   -3.899001   -2.058903
    124          1           0      -27.062092   -3.063784   -2.120389
    125          1           0      -29.179370    2.461204    0.512851
    126          1           0      -23.267864    3.706513    2.377318
    127          1           0      -22.415463   -3.216869   -2.366137
    128          1           0      -24.886301   -4.464529   -2.230104
    129          1           0      -23.565221   -2.791231   -4.227026
    130          1           0      -25.267079   -2.512661   -4.220174
    131          1           0      -24.644660   -4.214598   -4.328734
    132          1           0      -24.016715   -4.755617   -0.081824
    133          1           0      -22.624172   -4.003216    0.479629
    134          1           0      -22.573809   -6.630600   -0.164608
    135          1           0      -21.159543   -5.506306   -0.521561
    136          1           0      -30.686144   -2.660414   -1.812370
    137          1           0      -29.105101   -3.191956   -2.397343
    138          1           0      -29.805478   -1.954233   -3.253168
    139          1           0      -31.881418   -0.573330   -2.242657
    140          1           0      -32.999401    0.137840   -1.050943
    141          1           0      -32.189884   -1.326776   -0.692934
    142          1           0      -27.948959    3.702040    2.833545
    143          1           0      -25.432501    5.006919    1.727996
    144          1           0      -28.311590    4.827479    0.119102
    145          1           0      -27.511336    5.920004    1.415110
    146          1           0      -29.076537    5.268577    1.726965
    147          1           0      -24.746783    3.780692    4.115813
    148          1           0      -26.432183    4.117827    4.448599
    149          1           0      -25.356591    6.424684    3.387948
    150          1           0      -24.097835    5.819948    4.465714
    151          1           0      -25.782231    6.228885    5.090276
    152          1           0      -20.923995    3.058388    2.986262
    153          1           0      -20.818931    3.951447    1.601199
    154          1           0      -19.622769    2.576877    1.866888
    155          1           0      -20.642706   -0.643217   -1.867505
    156          1           0      -18.324729   -4.021790   -3.056775
    157          1           0      -19.446433   -4.732766   -1.999825
    158          1           0      -17.917424   -3.865946   -1.352935
 ---------------------------------------------------------------------

 SCF Done:  E(RCAM-B3LYP) =  -4069.76388983     A.U. after   19 cycles

 Excitation energies and oscillator strengths:

 Excited State   1:      Singlet-A      1.7131 eV  723.73 nm  f=0.3810  <S**2>=0.000
     309 -> 316        0.17422
     311 -> 313        0.68636
     309 <- 316        0.10491
 This state for optimization and/or second-order correction.
 Total Energy, E(TD-HF/TD-DFT) =  -4069.70093397
 Copying the excited state density for this state as the 1-particle RhoCI density.

 Excited State   2:      Singlet-A      1.7997 eV  688.92 nm  f=0.3665  <S**2>=0.000
     310 -> 315       -0.21210
     312 -> 314        0.67498
     310 <- 315       -0.10953

 Excited State   3:      Singlet-A      2.1719 eV  570.87 nm  f=0.1598  <S**2>=0.000
     309 -> 313        0.65198
     311 -> 316       -0.25356

 Excited State   4:      Singlet-A      2.2245 eV  557.36 nm  f=0.0806  <S**2>=0.000
     310 -> 314        0.62933
     312 -> 315        0.30796

 Excited State   5:      Singlet-A      3.0646 eV  404.57 nm  f=0.0000  <S**2>=0.000
     312 -> 313        0.70710

 The electronic state is 1-A.
 Alpha  occ. eigenvalues --  -46.90487 -46.89392 -19.25124 -19.23940 -19.20217
 Alpha  occ. eigenvalues --  -19.19828 -19.19116 -19.18998 -19.18451 -19.18304
 Alpha  occ. eigenvalues --  -14.43491 -14.42151 -14.41997 -14.41722 -14.40053
 Alpha  occ. eigenvalues --  -14.39972 -14.39877 -14.38566 -10.39291 -10.39126
 Alpha  occ. eigenvalues --  -10.35280 -10.35125 -10.34486 -10.34192 -10.33112
 Alpha  occ. eigenvalues --  -10.32078 -10.31688 -10.31674 -10.31522 -10.31513
 Alpha  occ. eigenvalues --  -10.31085 -10.30964 -10.30830 -10.30751 -10.30707
 Alpha  occ. eigenvalues --  -10.30619 -10.30423 -10.30309 -10.30248 -10.30131
 Alpha  occ. eigenvalues --  -10.29837 -10.29426 -10.29330 -10.29097 -10.28711
 Alpha  occ. eigenvalues --  -10.28678 -10.28661 -10.28644 -10.28571 -10.28521
 Alpha  occ. eigenvalues --  -10.28440 -10.28392 -10.28385 -10.28307 -10.28294
 Alpha  occ. eigenvalues --  -10.28271 -10.28262 -10.28201 -10.28012 -10.27898
 Alpha  occ. eigenvalues --  -10.27836 -10.27595 -10.27540 -10.27489 -10.27467
 Alpha  occ. eigenvalues --  -10.27466 -10.27339 -10.27034 -10.26987 -10.26974
 Alpha  occ. eigenvalues --  -10.26836 -10.26381 -10.26376 -10.26248 -10.26228
 Alpha  occ. eigenvalues --  -10.26182 -10.26054 -10.26026 -10.25907 -10.25904
 Alpha  occ. eigenvalues --  -10.25828 -10.25812 -10.25420 -10.25404 -10.24913
 Alpha  occ. eigenvalues --  -10.24640  -3.18698  -3.17845  -1.93626  -1.93129
 Alpha  occ. eigenvalues --   -1.93000  -1.92749  -1.92311  -1.92131  -1.15537
 Alpha  occ. eigenvalues --   -1.13964  -1.10064  -1.09772  -1.09422  -1.07481
 Alpha  occ. eigenvalues --   -1.07286  -1.06724  -1.05782  -1.05211  -1.04823
 Alpha  occ. eigenvalues --   -1.04061  -1.03488  -1.02575  -1.01741  -1.01469
 Alpha  occ. eigenvalues --   -0.92956  -0.92590  -0.89507  -0.89498  -0.89383
 Alpha  occ. eigenvalues --   -0.88610  -0.88199  -0.87897  -0.87700  -0.87552
 Alpha  occ. eigenvalues --   -0.87375  -0.87178  -0.86909  -0.85822  -0.84520
 Alpha  occ. eigenvalues --   -0.84273  -0.83973  -0.83848  -0.82900  -0.82724
 Alpha  occ. eigenvalues --   -0.82234  -0.82059  -0.81510  -0.80892  -0.80755
 Alpha  occ. eigenvalues --   -0.80668  -0.78968  -0.77840  -0.77712  -0.77190
 Alpha  occ. eigenvalues --   -0.76992  -0.76968  -0.76223  -0.75888  -0.75531
 Alpha  occ. eigenvalues --   -0.75236  -0.73508  -0.73223  -0.72288  -0.72255
 Alpha  occ. eigenvalues --   -0.69400  -0.68999  -0.68930  -0.68595  -0.67996
 Alpha  occ. eigenvalues --   -0.67925  -0.67226  -0.67135  -0.65924  -0.65660
 Alpha  occ. eigenvalues --   -0.65639  -0.65595  -0.65476  -0.65254  -0.64813
 Alpha  occ. eigenvalues --   -0.64599  -0.63008  -0.61255  -0.60536  -0.60256
 Alpha  occ. eigenvalues --   -0.60145  -0.59754  -0.59463  -0.59287  -0.59072
 Alpha  occ. eigenvalues --   -0.58346  -0.57797  -0.57741  -0.57337  -0.56994
 Alpha  occ. eigenvalues --   -0.56989  -0.56558  -0.55978  -0.55767  -0.55478
 Alpha  occ. eigenvalues --   -0.55450  -0.54812  -0.54446  -0.53850  -0.53794
 Alpha  occ. eigenvalues --   -0.53531  -0.53526  -0.53237  -0.53219  -0.52964
 Alpha  occ. eigenvalues --   -0.52830  -0.52789  -0.52606  -0.52484  -0.52472
 Alpha  occ. eigenvalues --   -0.52241  -0.52097  -0.51851  -0.51553  -0.51330
 Alpha  occ. eigenvalues --   -0.51109  -0.50938  -0.50917  -0.50550  -0.50382
 Alpha  occ. eigenvalues --   -0.50347  -0.50213  -0.49866  -0.49716  -0.49559
 Alpha  occ. eigenvalues --   -0.49497  -0.49199  -0.49149  -0.48874  -0.48786
 Alpha  occ. eigenvalues --   -0.48665  -0.48651  -0.48381  -0.48313  -0.48044
 Alpha  occ. eigenvalues --   -0.47950  -0.47810  -0.47801  -0.47614  -0.47312
 Alpha  occ. eigenvalues --   -0.47176  -0.47032  -0.47015  -0.46792  -0.46709
 Alpha  occ. eigenvalues --   -0.46585  -0.46300  -0.46130  -0.46103  -0.45993
 Alpha  occ. eigenvalues --   -0.45840  -0.45689  -0.45585  -0.45340  -0.45312
 Alpha  occ. eigenvalues --   -0.45188  -0.44912  -0.44674  -0.44527  -0.44226
 Alpha  occ. eigenvalues --   -0.44122  -0.43928  -0.43911  -0.43728  -0.43635
 Alpha  occ. eigenvalues --   -0.43557  -0.43336  -0.42988  -0.42982  -0.42758
 Alpha  occ. eigenvalues --   -0.42606  -0.42428  -0.42229  -0.41935  -0.41687
 Alpha  occ. eigenvalues --   -0.41597  -0.41581  -0.41502  -0.41278  -0.41171
 Alpha  occ. eigenvalues --   -0.41057  -0.40754  -0.40646  -0.40486  -0.40289
 Alpha  occ. eigenvalues --   -0.40053  -0.39970  -0.39713  -0.39464  -0.39029
 Alpha  occ. eigenvalues --   -0.38488  -0.38352  -0.37830  -0.37817  -0.37412
 Alpha  occ. eigenvalues --   -0.37398  -0.37214  -0.36782  -0.36447  -0.36104
 Alpha  occ. eigenvalues --   -0.35895  -0.35636  -0.34488  -0.34475  -0.34318
 Alpha  occ. eigenvalues --   -0.33901  -0.33548  -0.33335  -0.31794  -0.31763
 Alpha  occ. eigenvalues --   -0.31295  -0.31226  -0.30527  -0.30502  -0.30245
 Alpha  occ. eigenvalues --   -0.30191  -0.29583  -0.29293  -0.24616  -0.24159
 Alpha  occ. eigenvalues --   -0.22155  -0.21671
 Alpha virt. eigenvalues --   -0.09727  -0.08612  -0.02648  -0.02339  -0.00235
 Alpha virt. eigenvalues --    0.00020   0.02215   0.02260   0.02327   0.02336
 Alpha virt. eigenvalues --    0.04509   0.04583   0.05271   0.05510   0.05609

 Mulliken charges:
               1
     1  Mg  11.998568
     2  C    5.975405
     3  C    6.007257
     4  C    6.037081
     5  C    5.996394
     6  N    6.986124
     7  C    6.031480
     8  C    5.989585
     9  C    6.004586
    10  C    5.968294
    11  C    6.005154
    12  C    6.000794
    13  C    5.998446
    14  H    1.004050
    15  N    7.014917
    16  C    5.954514
    17  C    5.981321
    18  C    5.988438
    19  C    5.952030
    20  C    6.003364
    21  C    5.989510
    22  O    7.980103
    23  C    6.006519
    24  N    7.008001
    25  C    5.961708
    26  C    6.009841
    27  C    5.996035
    28  C    6.024623
    29  C    6.002475
    30  C    5.995797
    31  C    5.999023
    32  N    6.994564
    33  C    6.042572
    34  C    6.024495
    35  C    6.004500
    36  C    6.034625
    37  C    5.999053
    38  C    6.015714
    39  O    8.033389
    40  C    6.004224
    41  C    6.005193
    42  O    8.007315
    43  O    7.997449
    44  C    5.996787
    45  H    0.986870
    46  H    1.001113
    47  H    1.013697
    48  H    0.997386
    49  H    0.997411
    50  H    0.984576
    51  H    0.999501
    52  H    0.997462
    53  H    1.009303
    54  H    0.994675
    55  H    0.992857
    56  H    1.001386
    57  H    0.982130
    58  H    0.982311
    59  H    0.984482
    60  H    0.986108
    61  H    0.989693
    62  H    0.988935
    63  H    0.998117
    64  H    1.000772
    65  H    0.999694
    66  H    1.005293
    67  H    0.992562
    68  H    0.992620
    69  H    1.011484
    70  H    1.000586
    71  H    1.007681
    72  H    1.000369
    73  H    1.012710
    74  H    1.018395
    75  H    1.020320
    76  H    1.005738
    77  H    0.999945
    78  H    1.006762
    79  H    1.005734
    80  Mg  11.999998
    81  C    6.000060
    82  C    6.000017
    83  C    5.999960
    84  C    5.999944
    85  N    6.999973
    86  C    5.999938
    87  C    6.000012
    88  C    5.999971
    89  C    6.000051
    90  C    5.999992
    91  C    6.000007
    92  C    6.000004
    93  H    0.999995
    94  N    6.999981
    95  C    6.000067
    96  C    6.000078
    97  C    5.999998
    98  C    6.000112
    99  C    5.999980
   100  C    6.000037
   101  O    8.000074
   102  C    5.999971
   103  N    7.000027
   104  C    6.000062
   105  C    5.999971
   106  C    6.000014
   107  C    5.999962
   108  C    5.999997
   109  C    6.000010
   110  C    6.000004
   111  N    6.999996
   112  C    5.999964
   113  C    5.999901
   114  C    6.000026
   115  C    5.999910
   116  C    6.000017
   117  C    5.999952
   118  O    7.999887
   119  C    5.999995
   120  C    5.999988
   121  O    7.999957
   122  O    8.000009
   123  C    6.000013
   124  H    1.000009
   125  H    1.000033
   126  H    1.000001
   127  H    1.000001
   128  H    1.000008
   129  H    1.000034
   130  H    1.000016
   131  H    1.000014
   132  H    0.999976
   133  H    0.999998
   134  H    0.999974
   135  H    0.999980
   136  H    1.000052
   137  H    1.000039
   138  H    1.000074
   139  H    1.000029
   140  H    1.000059
   141  H    1.000015
   142  H    1.000012
   143  H    1.000019
   144  H    1.000003
   145  H    1.000034
   146  H    1.000012
   147  H    0.999990
   148  H    0.999975
   149  H    1.000010
   150  H    0.999993
   151  H    0.999991
   152  H    0.999937
   153  H    0.999957
   154  H    0.999941
   155  H    0.999998
   156  H    0.999993
   157  H    0.999987
   158  H    0.999952
 Sum of Mulliken charges = 624.00000

 Dipole moment (field-independent basis, Debye):
    X=             -4.1711    Y=             -6.5926    Z=              7.5121  Tot=             10.8302
 Quadrupole moment (field-independent basis, Debye-Ang):
   XX=           -206.1493   YY=             -1.3997   ZZ=             -2.3215
   XY=           -167.1120   XZ=            190.8183   YZ=              2.2138

 Normal termination of Gaussian 16 at Thu Sep 23 02:58:38 2021.
