 Gaussian 16, Revision A.03,
 Gaussian 16:  ES64L-G16RevA.03 25-Dec-2016

 ----------------------------------------------------------
 #p cam-b3lyp/Def2SVP td=(nstates=5) density=(transition=1)
 ----------------------------------------------------------

 --------------------------------
 TDDFT excited states in gaussian
 --------------------------------
 Symbolic Z-matrix:
 Charge =  0 Multiplicity = 1

                         Standard orientation:
 ---------------------------------------------------------------------
 Center     Atomic      Atomic             Coordinates (Angstroms)
 Number     Number       Type             X           Y           Z
 ---------------------------------------------------------------------
      1         12           0      -21.295610   -0.766452   -0.106106
      2          6           0      -22.190389    2.542441    0.466564
      3          6           0      -18.371067    0.269207   -1.419105
      4          6           0      -20.788968   -3.869360   -1.352864
      5          6           0      -24.660314   -1.698155    0.497584
      6          7           0      -20.446155    1.173969   -0.312516
      7          6           0      -20.858158    2.420296    0.106346
      8          6           0      -19.801794    3.496498   -0.266985
      9          6           0      -18.945589    2.728461   -1.320648
     10          6           0      -19.183870    1.277997   -0.927299
     11          6           0      -19.367012    2.971332   -2.812631
     12          6           0      -19.187128    4.026909    1.041238
     13          6           0      -18.995749    5.495493    1.072693
     14          1           0      -18.858216    6.071089    2.409065
     15          7           0      -19.692948   -1.685190   -1.021311
     16          6           0      -18.546705   -1.077936   -1.423625
     17          6           0      -17.566768   -2.096547   -1.705817
     18          6           0      -18.293530   -3.341278   -1.681405
     19          6           0      -19.690403   -2.981854   -1.420196
     20          6           0      -16.157075   -1.804629   -2.077255
     21          6           0      -17.850967   -4.800283   -2.027773
     22          8           0      -18.610951   -5.767226   -1.944508
     23          6           0      -16.418510   -5.125257   -2.347189
     24          7           0      -22.680737   -2.425160   -0.692259
     25          6           0      -22.135862   -3.680657   -1.076740
     26          6           0      -23.138652   -4.786630   -1.082994
     27          6           0      -24.271301   -4.071385   -0.277099
     28          6           0      -23.813667   -2.628739   -0.078913
     29          6           0      -23.546679   -5.276725   -2.513577
     30          6           0      -24.561435   -4.736131    1.118065
     31          6           0      -23.325377   -4.958780    2.026340
     32          7           0      -23.055905    0.163586    0.483534
     33          6           0      -24.337190   -0.349055    0.738926
     34          6           0      -25.136280    0.746355    1.143595
     35          6           0      -24.321788    1.869694    1.073257
     36          6           0      -23.095800    1.461594    0.662242
     37          6           0      -26.556746    0.661378    1.603714
     38          6           0      -24.331656    3.251467    1.198572
     39          8           0      -25.266770    4.010565    1.511906
     40          6           0      -22.935713    3.838085    0.829730
     41          6           0      -22.485906    4.552690    2.142200
     42          8           0      -22.175258    3.983673    3.203808
     43          8           0      -22.500977    5.924029    1.911581
     44          6           0      -22.354124    6.843606    3.084341
     45          1           0      -17.508064    0.731249   -1.903204
     46          1           0      -20.773644   -4.939214   -1.574357
     47          1           0      -25.643860   -1.956195    0.895859
     48          1           0      -20.289647    4.375528   -0.686836
     49          1           0      -17.891934    2.949596   -1.152913
     50          1           0      -20.156319    3.705662   -2.975945
     51          1           0      -19.811497    2.071322   -3.235574
     52          1           0      -18.504763    3.350118   -3.361019
     53          1           0      -18.178091    3.618417    1.074771
     54          1           0      -19.812592    3.679765    1.864112
     55          1           0      -19.907392    5.918329    0.650213
     56          1           0      -18.175104    5.751136    0.402692
     57          1           0      -15.866533   -0.797384   -1.779293
     58          1           0      -16.010624   -2.104785   -3.115374
     59          1           0      -15.494038   -2.447832   -1.498556
     60          1           0      -16.475954   -6.032157   -2.949561
     61          1           0      -15.862402   -5.361363   -1.439649
     62          1           0      -15.944125   -4.344648   -2.942734
     63          1           0      -22.827923   -5.668452   -0.520941
     64          1           0      -25.182473   -4.076967   -0.876162
     65          1           0      -23.308888   -4.495060   -3.235578
     66          1           0      -24.597393   -5.523366   -2.666932
     67          1           0      -23.043056   -6.174933   -2.872069
     68          1           0      -25.112442   -5.651227    0.900389
     69          1           0      -25.295886   -4.066483    1.565436
     70          1           0      -23.407629   -4.440493    2.981910
     71          1           0      -22.458992   -4.608729    1.464454
     72          1           0      -23.163376   -6.009379    2.265513
     73          1           0      -27.116596    1.336514    0.956583
     74          1           0      -26.580672    0.940473    2.657096
     75          1           0      -27.032902   -0.311082    1.477820
     76          1           0      -23.077812    4.587111    0.051165
     77          1           0      -23.191510    6.623346    3.746049
     78          1           0      -22.359042    7.916335    2.891384
     79          1           0      -21.394081    6.460129    3.429943
     80         12           0       22.351701    0.447632    0.438405
     81          6           0       18.854522    1.048707    0.355321
     82          6           0       21.791028   -1.545290    3.245723
     83          6           0       25.243728   -0.976207   -0.228686
     84          6           0       22.517893    2.337125   -2.693075
     85          7           0       20.420633   -0.375378    1.524427
     86          6           0       19.209560    0.231227    1.457750
     87          6           0       18.357298   -0.218252    2.630983
     88          6           0       19.371218   -0.497723    3.740525
     89          6           0       20.612411   -0.888712    2.786812
     90          6           0       19.777204    0.651215    4.665434
     91          6           0       17.424593   -1.425943    2.181112
     92          6           0       16.033969   -1.270430    2.657463
     93          1           0       15.319840   -2.525148    3.196604
     94          7           0       23.417095   -1.125614    1.350665
     95          6           0       23.042045   -1.763671    2.559058
     96          6           0       24.107374   -2.678772    2.882841
     97          6           0       25.184614   -2.508854    1.973164
     98          6           0       24.666860   -1.533001    0.949196
     99          6           0       23.999314   -3.601446    4.092770
    100          6           0       26.456415   -3.261235    1.974057
    101          8           0       26.638457   -4.111257    2.836873
    102          6           0       27.554103   -3.175548    0.964956
    103          7           0       23.669002    0.619722   -1.361309
    104          6           0       24.877773    0.045777   -1.199364
    105          6           0       25.841783    0.483455   -2.316936
    106          6           0       25.032035    1.690049   -3.057622
    107          6           0       23.667789    1.601697   -2.325809
    108          6           0       27.322644    0.811804   -1.824182
    109          6           0       24.946848    1.587651   -4.612726
    110          6           0       23.634722    0.998434   -5.234017
    111          7           0       21.057822    1.457030   -0.868056
    112          6           0       21.296299    2.219259   -2.047037
    113          6           0       20.018045    2.977200   -2.401106
    114          6           0       19.090809    2.476465   -1.501256
    115          6           0       19.773080    1.585896   -0.597082
    116          6           0       19.686273    4.005516   -3.499614
    117          6           0       17.730996    2.571466   -1.074079
    118          8           0       16.820748    3.303792   -1.465539
    119          6           0       17.575956    1.550629   -0.003988
    120          6           0       16.726055    0.456281   -0.689311
    121          8           0       17.113746   -0.401054   -1.480286
    122          8           0       15.375549    0.665669   -0.294384
    123          6           0       14.378279   -0.133045   -0.882473
    124          1           0       21.701773   -2.105834    4.178751
    125          1           0       26.257990   -1.378849   -0.262973
    126          1           0       22.500193    3.039538   -3.528166
    127          1           0       17.729097    0.574699    3.036530
    128          1           0       19.185395   -1.281173    4.474324
    129          1           0       19.072560    1.482315    4.670030
    130          1           0       20.830444    0.907803    4.549035
    131          1           0       19.685068    0.193710    5.651157
    132          1           0       17.809942   -2.344774    2.623236
    133          1           0       17.490288   -1.671561    1.121127
    134          1           0       15.544401   -0.867664    1.771505
    135          1           0       16.028693   -0.530830    3.457988
    136          1           0       24.617405   -3.277909    4.930032
    137          1           0       24.211176   -4.620805    3.773420
    138          1           0       22.975663   -3.614944    4.467291
    139          1           0       28.024901   -2.196544    1.057723
    140          1           0       27.259256   -3.330182   -0.073675
    141          1           0       28.402800   -3.799733    1.241964
    142          1           0       25.837624   -0.374282   -2.989184
    143          1           0       25.462177    2.639562   -2.740819
    144          1           0       27.550074    0.293717   -0.892639
    145          1           0       27.647550    1.851844   -1.776628
    146          1           0       27.924165    0.519840   -2.686437
    147          1           0       25.785858    1.038580   -5.039369
    148          1           0       25.004537    2.634133   -4.911160
    149          1           0       24.120183    0.548693   -6.100452
    150          1           0       22.867391    1.695720   -5.571025
    151          1           0       23.261954    0.235088   -4.550739
    152          1           0       19.328472    4.938771   -3.066142
    153          1           0       18.795579    3.503374   -3.876054
    154          1           0       20.513278    4.005729   -4.209324
    155          1           0       17.006023    1.974858    0.822715
    156          1           0       13.363758    0.085518   -0.546875
    157          1           0       14.597977   -1.168330   -0.624735
    158          1           0       14.462717    0.057286   -1.952777
 ---------------------------------------------------------------------

 SCF Done:  E(RCAM-B3LYP) =  -4069.76802142     A.U. after   19 cycles

 Excitation energies and oscillator strengths:

 Excited State   1:      Singlet-A      1.6607 eV  746.57 nm  f=0.3856  <S**2>=0.000
     309 -> 316       -0.16221
     311 -> 313        0.68883
     309 <- 316       -0.10408
 This state for optimization and/or second-order correction.
 Total Energy, E(TD-HF/TD-DFT) =  -4069.70699099
 Copying the excited state density for this state as the 1-particle RhoCI density.

 Excited State   2:      Singlet-A      1.6842 eV  736.15 nm  f=0.3491  <S**2>=0.000
     310 -> 315       -0.19722
     312 -> 314        0.68012
     310 <- 315       -0.11211

 Excited State   3:      Singlet-A      2.1916 eV  565.74 nm  f=0.0564  <S**2>=0.000
     310 -> 314        0.61457
     312 -> 315        0.33939

 Excited State   4:      Singlet-A      2.2190 eV  558.74 nm  f=0.1281  <S**2>=0.000
     309 -> 313        0.64341
     311 -> 316        0.27226

 Excited State   5:      Singlet-A      3.0720 eV  403.60 nm  f=0.0000  <S**2>=0.000
     312 -> 313        0.70710

 The electronic state is 1-A.
 Alpha  occ. eigenvalues --  -46.91337 -46.88315 -19.24752 -19.24738 -19.21443
 Alpha  occ. eigenvalues --  -19.20004 -19.18951 -19.18728 -19.17648 -19.17607
 Alpha  occ. eigenvalues --  -14.42443 -14.41979 -14.41936 -14.41475 -14.40280
 Alpha  occ. eigenvalues --  -14.39797 -14.39340 -14.38498 -10.40634 -10.40023
 Alpha  occ. eigenvalues --  -10.35278 -10.34600 -10.34160 -10.33630 -10.31971
 Alpha  occ. eigenvalues --  -10.31866 -10.31463 -10.31440 -10.31344 -10.31098
 Alpha  occ. eigenvalues --  -10.31010 -10.30949 -10.30867 -10.30550 -10.30316
 Alpha  occ. eigenvalues --  -10.30234 -10.30219 -10.30117 -10.29503 -10.29428
 Alpha  occ. eigenvalues --  -10.29302 -10.29199 -10.28815 -10.28555 -10.28450
 Alpha  occ. eigenvalues --  -10.28411 -10.28319 -10.28300 -10.28242 -10.28239
 Alpha  occ. eigenvalues --  -10.28208 -10.28182 -10.27947 -10.27902 -10.27875
 Alpha  occ. eigenvalues --  -10.27700 -10.27665 -10.27643 -10.27591 -10.27547
 Alpha  occ. eigenvalues --  -10.27448 -10.27391 -10.27201 -10.27166 -10.27141
 Alpha  occ. eigenvalues --  -10.27130 -10.27008 -10.27004 -10.26814 -10.26724
 Alpha  occ. eigenvalues --  -10.26523 -10.26399 -10.26393 -10.26371 -10.26273
 Alpha  occ. eigenvalues --  -10.25936 -10.25932 -10.25825 -10.25803 -10.25741
 Alpha  occ. eigenvalues --  -10.25734 -10.25702 -10.25564 -10.25306 -10.25014
 Alpha  occ. eigenvalues --  -10.23776  -3.19537  -3.16910  -1.94378  -1.94044
 Alpha  occ. eigenvalues --   -1.93792  -1.91791  -1.91369  -1.91213  -1.15862
 Alpha  occ. eigenvalues --   -1.14411  -1.09639  -1.09467  -1.09391  -1.08693
 Alpha  occ. eigenvalues --   -1.07940  -1.06643  -1.04803  -1.04238  -1.03895
 Alpha  occ. eigenvalues --   -1.03511  -1.03485  -1.02873  -1.02221  -1.01311
 Alpha  occ. eigenvalues --   -0.94416  -0.92526  -0.89208  -0.89086  -0.89045
 Alpha  occ. eigenvalues --   -0.88756  -0.88581  -0.87835  -0.87792  -0.87303
 Alpha  occ. eigenvalues --   -0.87122  -0.86885  -0.86529  -0.85608  -0.84815
 Alpha  occ. eigenvalues --   -0.84593  -0.83697  -0.83500  -0.82738  -0.82161
 Alpha  occ. eigenvalues --   -0.81677  -0.81617  -0.80983  -0.80893  -0.80386
 Alpha  occ. eigenvalues --   -0.80309  -0.78201  -0.78072  -0.77307  -0.77067
 Alpha  occ. eigenvalues --   -0.76928  -0.76913  -0.76041  -0.76027  -0.75463
 Alpha  occ. eigenvalues --   -0.75240  -0.73244  -0.72782  -0.72043  -0.71875
 Alpha  occ. eigenvalues --   -0.69951  -0.69786  -0.68761  -0.68749  -0.67529
 Alpha  occ. eigenvalues --   -0.67355  -0.66903  -0.66526  -0.65379  -0.65331
 Alpha  occ. eigenvalues --   -0.65003  -0.64747  -0.64654  -0.64579  -0.64448
 Alpha  occ. eigenvalues --   -0.64061  -0.62251  -0.61558  -0.59967  -0.59880
 Alpha  occ. eigenvalues --   -0.59804  -0.59778  -0.59307  -0.59133  -0.58939
 Alpha  occ. eigenvalues --   -0.58429  -0.58295  -0.57560  -0.57070  -0.56994
 Alpha  occ. eigenvalues --   -0.56237  -0.55994  -0.55975  -0.55675  -0.55612
 Alpha  occ. eigenvalues --   -0.55322  -0.55073  -0.54984  -0.54758  -0.54596
 Alpha  occ. eigenvalues --   -0.53713  -0.53541  -0.53426  -0.53070  -0.53040
 Alpha  occ. eigenvalues --   -0.52927  -0.52802  -0.52677  -0.52458  -0.52216
 Alpha  occ. eigenvalues --   -0.51995  -0.51927  -0.51704  -0.51664  -0.51452
 Alpha  occ. eigenvalues --   -0.51426  -0.51341  -0.50587  -0.50485  -0.50341
 Alpha  occ. eigenvalues --   -0.50216  -0.50003  -0.49628  -0.49439  -0.49380
 Alpha  occ. eigenvalues --   -0.49260  -0.49189  -0.48983  -0.48907  -0.48754
 Alpha  occ. eigenvalues --   -0.48513  -0.48510  -0.48297  -0.48078  -0.47969
 Alpha  occ. eigenvalues --   -0.47793  -0.47678  -0.47504  -0.47357  -0.47201
 Alpha  occ. eigenvalues --   -0.47026  -0.46883  -0.46606  -0.46291  -0.46127
 Alpha  occ. eigenvalues --   -0.45984  -0.45979  -0.45938  -0.45901  -0.45695
 Alpha  occ. eigenvalues --   -0.45470  -0.45462  -0.45335  -0.45181  -0.44604
 Alpha  occ. eigenvalues --   -0.44602  -0.44482  -0.44482  -0.44175  -0.44172
 Alpha  occ. eigenvalues --   -0.43828  -0.43745  -0.43509  -0.43459  -0.43436
 Alpha  occ. eigenvalues --   -0.43339  -0.43183  -0.43049  -0.43037  -0.42688
 Alpha  occ. eigenvalues --   -0.42365  -0.42360  -0.42074  -0.41957  -0.41735
 Alpha  occ. eigenvalues --   -0.41635  -0.41583  -0.41330  -0.41059  -0.41049
 Alpha  occ. eigenvalues --   -0.41011  -0.40839  -0.40642  -0.40459  -0.40290
 Alpha  occ. eigenvalues --   -0.40118  -0.39949  -0.39204  -0.39154  -0.38595
 Alpha  occ. eigenvalues --   -0.38300  -0.38198  -0.38028  -0.37959  -0.37671
 Alpha  occ. eigenvalues --   -0.37360  -0.36824  -0.36592  -0.36553  -0.36362
 Alpha  occ. eigenvalues --   -0.36070  -0.35807  -0.35254  -0.34251  -0.34179
 Alpha  occ. eigenvalues --   -0.34083  -0.33380  -0.33220  -0.31500  -0.31309
 Alpha  occ. eigenvalues --   -0.30844  -0.30817  -0.30601  -0.30247  -0.30050
 Alpha  occ. eigenvalues --   -0.29716  -0.29512  -0.29395  -0.24235  -0.24084
 Alpha  occ. eigenvalues --   -0.21185  -0.21071
 Alpha virt. eigenvalues --   -0.08998  -0.08565  -0.02649  -0.01506  -0.00638
 Alpha virt. eigenvalues --    0.00099   0.00539   0.02136   0.02201   0.02430
 Alpha virt. eigenvalues --    0.04669   0.04966   0.05077   0.05131   0.05858

 Mulliken charges:
               1
     1  Mg  11.997490
     2  C    6.031933
     3  C    5.989981
     4  C    5.961685
     5  C    5.988602
     6  N    7.022508
     7  C    5.963220
     8  C    6.002584
     9  C    5.993245
    10  C    6.024624
    11  C    5.995878
    12  C    6.007090
    13  C    5.999639
    14  H    1.001059
    15  N    6.989187
    16  C    6.042890
    17  C    6.020195
    18  C    6.013607
    19  C    6.045647
    20  C    5.994563
    21  C    6.012895
    22  O    8.029687
    23  C    5.994152
    24  N    6.981957
    25  C    6.046914
    26  C    5.982956
    27  C    6.007526
    28  C    5.982219
    29  C    6.000069
    30  C    6.008674
    31  C    6.006774
    32  N    7.004888
    33  C    5.965054
    34  C    5.968799
    35  C    5.998465
    36  C    5.966608
    37  C    6.005160
    38  C    5.986610
    39  O    7.968697
    40  C    5.994605
    41  C    5.997237
    42  O    7.996739
    43  O    7.998423
    44  C    6.000914
    45  H    1.015082
    46  H    1.003769
    47  H    0.982140
    48  H    1.001074
    49  H    1.001622
    50  H    1.017378
    51  H    0.999443
    52  H    1.003626
    53  H    0.986492
    54  H    1.006092
    55  H    1.003852
    56  H    0.993857
    57  H    1.016737
    58  H    1.021014
    59  H    1.019929
    60  H    1.014208
    61  H    1.011348
    62  H    1.003893
    63  H    1.001784
    64  H    0.996854
    65  H    0.999810
    66  H    1.010776
    67  H    0.996819
    68  H    0.989305
    69  H    1.007143
    70  H    1.003153
    71  H    0.984747
    72  H    0.992629
    73  H    0.980055
    74  H    0.978681
    75  H    0.981375
    76  H    0.991795
    77  H    1.001116
    78  H    0.995333
    79  H    0.995425
    80  Mg  12.000066
    81  C    6.000437
    82  C    5.999623
    83  C    5.999670
    84  C    6.000459
    85  N    7.000044
    86  C    5.999478
    87  C    6.000056
    88  C    5.999954
    89  C    6.000521
    90  C    5.999965
    91  C    6.000100
    92  C    6.000057
    93  H    0.999760
    94  N    6.999757
    95  C    6.000890
    96  C    6.000272
    97  C    6.000234
    98  C    6.000694
    99  C    5.999869
   100  C    6.000185
   101  O    8.000429
   102  C    5.999906
   103  N    7.000080
   104  C    6.000559
   105  C    5.999769
   106  C    6.000252
   107  C    5.999313
   108  C    5.999924
   109  C    5.999970
   110  C    6.000148
   111  N    7.000102
   112  C    5.999067
   113  C    5.999613
   114  C    5.999880
   115  C    5.999447
   116  C    6.000029
   117  C    5.999646
   118  O    7.999402
   119  C    6.000048
   120  C    5.999963
   121  O    7.999885
   122  O    7.999962
   123  C    6.000101
   124  H    1.000176
   125  H    1.000126
   126  H    0.999847
   127  H    0.999997
   128  H    1.000000
   129  H    1.000245
   130  H    1.000009
   131  H    1.000051
   132  H    0.999780
   133  H    1.000014
   134  H    1.000040
   135  H    0.999970
   136  H    1.000412
   137  H    1.000299
   138  H    1.000311
   139  H    1.000229
   140  H    1.000190
   141  H    1.000267
   142  H    1.000023
   143  H    0.999950
   144  H    0.999874
   145  H    1.000163
   146  H    1.000125
   147  H    0.999852
   148  H    1.000023
   149  H    0.999858
   150  H    1.000036
   151  H    0.999934
   152  H    0.999705
   153  H    0.999700
   154  H    0.999742
   155  H    0.999817
   156  H    0.999794
   157  H    0.999875
   158  H    0.999977
 Sum of Mulliken charges = 624.00000

 Dipole moment (field-independent basis, Debye):
    X=              9.3400    Y=             -4.3176    Z=             -4.0720  Tot=             11.0661
 Quadrupole moment (field-independent basis, Debye-Ang):
   XX=           -388.8495   YY=              5.1607   ZZ=              2.8242
   XY=             79.5932   XZ=             88.5574   YZ=              3.5336

 Normal termination of Gaussian 16 at Wed Sep 22 10:46:06 2021.
