 Gaussian 16, Revision A.03,
 Gaussian 16:  ES64L-G16RevA.03 25-Dec-2016

 -----------------------------------
 #p cam-b3lyp/Def2SVP td=(nstates=5)
 -----------------------------------

 --------------------------------
 TDDFT excited states in gaussian
 --------------------------------
 Symbolic Z-matrix:
 Charge =  0 Multiplicity = 1

                         Standard orientation:
 ---------------------------------------------------------------------
 Center     Atomic      Atomic             Coordinates (Angstroms)
 Number     Number       Type             X           Y           Z
 ---------------------------------------------------------------------
      1         12           0      -20.151245   -0.458227   -0.052653
      2          6           0      -19.525368    2.854076   -0.690388
      3          6           0      -19.417585    0.104142    3.249303
      4          6           0      -20.669713   -3.826388    0.591422
      5          6           0      -20.447508   -1.060455   -3.454110
      6          7           0      -19.478363    1.290766    1.181535
      7          6           0      -19.391315    2.552548    0.666021
      8          6           0      -19.052830    3.515542    1.698419
      9          6           0      -18.792576    2.693439    2.950791
     10          6           0      -19.216892    1.238827    2.465170
     11          6           0      -17.358931    2.717763    3.584834
     12          6           0      -20.173049    4.596947    1.872215
     13          6           0      -19.714171    6.038983    2.282011
     14          1           0      -18.417779    6.157662    3.107189
     15          7           0      -20.159265   -1.645732    1.727442
     16          6           0      -19.838566   -1.189345    2.994439
     17          6           0      -19.937754   -2.314392    3.946234
     18          6           0      -20.316729   -3.493983    3.171161
     19          6           0      -20.422787   -3.025247    1.778480
     20          6           0      -19.645343   -2.216290    5.434585
     21          6           0      -20.664236   -4.867982    3.694777
     22          8           0      -21.046095   -5.740049    2.894698
     23          6           0      -20.552869   -5.285141    5.113450
     24          7           0      -20.432177   -2.222771   -1.253475
     25          6           0      -20.670232   -3.433608   -0.741268
     26          6           0      -21.056265   -4.428006   -1.848911
     27          6           0      -21.247349   -3.506732   -3.173852
     28          6           0      -20.749360   -2.148526   -2.565532
     29          6           0      -19.995675   -5.563167   -1.988651
     30          6           0      -22.705540   -3.376177   -3.692934
     31          6           0      -22.993552   -4.046179   -5.044796
     32          7           0      -19.955040    0.625847   -1.781977
     33          6           0      -20.088596    0.251769   -3.121103
     34          6           0      -19.881203    1.423666   -4.000526
     35          6           0      -19.642590    2.440997   -3.046627
     36          6           0      -19.688595    1.908402   -1.730470
     37          6           0      -19.973995    1.496408   -5.444688
     38          6           0      -19.455416    3.899742   -2.904575
     39          8           0      -19.444134    4.786703   -3.716310
     40          6           0      -19.330712    4.203906   -1.369124
     41          6           0      -18.082458    4.949851   -1.142856
     42          8           0      -16.984480    4.378893   -1.242758
     43          8           0      -18.249258    6.224379   -0.694613
     44          6           0      -17.076236    6.970370   -0.250009
     45          1           0      -19.179098    0.316932    4.293483
     46          1           0      -20.793041   -4.889507    0.809389
     47          1           0      -20.675874   -1.271943   -4.500712
     48          1           0      -18.129919    4.014002    1.399988
     49          1           0      -19.543337    2.889386    3.717224
     50          1           0      -16.556286    3.328654    3.170431
     51          1           0      -16.991030    1.692499    3.616194
     52          1           0      -17.358072    2.963966    4.646951
     53          1           0      -20.942843    4.220748    2.546111
     54          1           0      -20.787312    4.612245    0.972107
     55          1           0      -20.507822    6.538767    2.838098
     56          1           0      -19.442557    6.656874    1.426639
     57          1           0      -19.476235   -1.195363    5.775208
     58          1           0      -18.734776   -2.758015    5.692064
     59          1           0      -20.536363   -2.471901    6.007758
     60          1           0      -20.960511   -6.294109    5.168234
     61          1           0      -21.082108   -4.627408    5.804178
     62          1           0      -19.515133   -5.199216    5.436117
     63          1           0      -22.057819   -4.787892   -1.613028
     64          1           0      -20.575195   -3.793652   -3.982471
     65          1           0      -20.428894   -6.563380   -2.001802
     66          1           0      -19.290688   -5.539703   -1.157214
     67          1           0      -19.457668   -5.307872   -2.901909
     68          1           0      -23.032975   -2.342928   -3.801958
     69          1           0      -23.426132   -3.791145   -2.987860
     70          1           0      -22.315414   -4.888234   -5.183734
     71          1           0      -22.797479   -3.315756   -5.829109
     72          1           0      -24.059442   -4.269961   -5.059151
     73          1           0      -20.115835    2.513951   -5.808143
     74          1           0      -20.773560    0.881225   -5.856952
     75          1           0      -18.985457    1.277832   -5.848831
     76          1           0      -20.229277    4.799728   -1.205321
     77          1           0      -16.363583    7.199777   -1.042690
     78          1           0      -16.604319    6.483779    0.603534
     79          1           0      -17.385566    7.952890    0.106116
     80         12           0       19.341534   -0.797406    0.062656
     81          6           0       21.504456    1.810953   -0.384741
     82          6           0       17.529606    0.972058    2.227887
     83          6           0       17.531538   -3.468849    0.520749
     84          6           0       21.676826   -2.761219   -1.779192
     85          7           0       19.593161    1.150305    0.986333
     86          6           0       20.387194    2.104413    0.439336
     87          6           0       19.964724    3.488664    0.849265
     88          6           0       18.853759    3.153772    1.923693
     89          6           0       18.685107    1.656464    1.782975
     90          6           0       19.174335    3.639626    3.357617
     91          6           0       19.522865    4.463833   -0.404209
     92          6           0       20.086242    5.892138   -0.457108
     93          1           0       20.541374    6.522716    0.896452
     94          7           0       17.718686   -1.128820    1.036138
     95          6           0       17.069111   -0.311372    1.905351
     96          6           0       15.964896   -0.954561    2.574863
     97          6           0       15.830771   -2.155850    1.946803
     98          6           0       17.124336   -2.333837    1.216839
     99          6           0       15.316505   -0.202219    3.722530
    100          6           0       14.727196   -3.218501    2.118603
    101          8           0       14.725026   -4.289813    1.558239
    102          6           0       13.650131   -2.824755    3.085801
    103          7           0       19.700389   -2.868683   -0.423655
    104          6           0       18.687202   -3.726033   -0.204640
    105          6           0       18.984619   -5.094317   -0.826002
    106          6           0       20.149482   -4.778471   -1.824553
    107          6           0       20.571426   -3.387904   -1.307315
    108          6           0       19.305157   -6.310706    0.143216
    109          6           0       19.757732   -4.675011   -3.346708
    110          6           0       18.738774   -3.693018   -3.862124
    111          7           0       21.179379   -0.599626   -0.993040
    112          6           0       22.071035   -1.477252   -1.618236
    113          6           0       23.258278   -0.774635   -2.121387
    114          6           0       23.073163    0.538424   -1.663299
    115          6           0       21.804236    0.553388   -1.003145
    116          6           0       24.373767   -1.317177   -2.977458
    117          6           0       23.619588    1.816369   -1.604045
    118          8           0       24.678243    2.290113   -1.986033
    119          6           0       22.540740    2.746535   -0.991317
    120          6           0       23.316118    3.522769    0.003340
    121          8           0       23.641709    3.125457    1.124660
    122          8           0       23.734876    4.712689   -0.517658
    123          6           0       24.757077    5.489991    0.190167
    124          1           0       16.856608    1.636201    2.774597
    125          1           0       16.946588   -4.388044    0.583116
    126          1           0       22.276880   -3.468818   -2.356428
    127          1           0       20.756647    3.980419    1.414290
    128          1           0       17.907151    3.582163    1.594992
    129          1           0       19.492616    2.785893    3.955771
    130          1           0       18.261976    4.042835    3.797103
    131          1           0       19.974461    4.373909    3.263429
    132          1           0       18.435371    4.510136   -0.345371
    133          1           0       19.831861    4.027748   -1.353657
    134          1           0       19.314441    6.588960   -0.782923
    135          1           0       20.865150    5.953169   -1.217064
    136          1           0       15.974776    0.018291    4.563007
    137          1           0       14.559942   -0.683798    4.341754
    138          1           0       14.902652    0.657220    3.195054
    139          1           0       13.198777   -1.876738    2.794107
    140          1           0       14.183407   -2.856797    4.035676
    141          1           0       12.760571   -3.448703    3.164526
    142          1           0       18.032630   -5.327768   -1.304110
    143          1           0       20.974283   -5.463034   -1.625379
    144          1           0       19.251752   -5.973161    1.177979
    145          1           0       20.343934   -6.622353    0.040689
    146          1           0       18.700399   -7.209416    0.012780
    147          1           0       19.440391   -5.703839   -3.518649
    148          1           0       20.619856   -4.469184   -3.980318
    149          1           0       18.232462   -3.218161   -3.020715
    150          1           0       17.969633   -4.207551   -4.437927
    151          1           0       19.122994   -2.851054   -4.437601
    152          1           0       25.303328   -1.436107   -2.422562
    153          1           0       24.535620   -0.659386   -3.831567
    154          1           0       24.027193   -2.322082   -3.219906
    155          1           0       22.037617    3.342837   -1.752717
    156          1           0       25.321192    6.137387   -0.482253
    157          1           0       25.354463    4.868371    0.855361
    158          1           0       24.330457    6.159632    0.936721
 ---------------------------------------------------------------------

 SCF Done:  E(RCAM-B3LYP) =  -4069.84236558     A.U. after   19 cycles

 Excitation energies and oscillator strengths:

 Excited State   1:      Singlet-A      1.7299 eV  716.72 nm  f=0.3854  <S**2>=0.000
     309 -> 315        0.18860
     311 -> 313        0.68238
     309 <- 315        0.10885
 This state for optimization and/or second-order correction.
 Total Energy, E(TD-HF/TD-DFT) =  -4069.77879327
 Copying the excited state density for this state as the 1-particle RhoCI density.

 Excited State   2:      Singlet-A      1.7684 eV  701.13 nm  f=0.3794  <S**2>=0.000
     310 -> 316       -0.19166
     312 -> 314        0.68180
     310 <- 316       -0.10600

 Excited State   3:      Singlet-A      2.2550 eV  549.81 nm  f=0.0844  <S**2>=0.000
     309 -> 313        0.62548
     311 -> 315       -0.31650

 Excited State   4:      Singlet-A      2.2757 eV  544.83 nm  f=0.0582  <S**2>=0.000
     310 -> 314        0.61594
     312 -> 316        0.33784

 Excited State   5:      Singlet-A      3.1079 eV  398.94 nm  f=0.0000  <S**2>=0.000
     312 -> 313        0.70710

 The electronic state is 1-A.
 Alpha  occ. eigenvalues --  -46.88923 -46.87953 -19.26013 -19.23908 -19.19931
 Alpha  occ. eigenvalues --  -19.19340 -19.19082 -19.18402 -19.18335 -19.17647
 Alpha  occ. eigenvalues --  -14.41866 -14.41759 -14.41706 -14.41056 -14.39998
 Alpha  occ. eigenvalues --  -14.39528 -14.39282 -14.38746 -10.39599 -10.38251
 Alpha  occ. eigenvalues --  -10.35961 -10.34998 -10.34889 -10.33542 -10.32359
 Alpha  occ. eigenvalues --  -10.30951 -10.30825 -10.30686 -10.30654 -10.30647
 Alpha  occ. eigenvalues --  -10.30581 -10.30452 -10.30448 -10.30240 -10.30143
 Alpha  occ. eigenvalues --  -10.30132 -10.30054 -10.29957 -10.29344 -10.29190
 Alpha  occ. eigenvalues --  -10.29028 -10.28962 -10.28923 -10.28731 -10.28714
 Alpha  occ. eigenvalues --  -10.28432 -10.28320 -10.28060 -10.28040 -10.27936
 Alpha  occ. eigenvalues --  -10.27848 -10.27823 -10.27807 -10.27804 -10.27759
 Alpha  occ. eigenvalues --  -10.27744 -10.27588 -10.27563 -10.27555 -10.27496
 Alpha  occ. eigenvalues --  -10.27486 -10.27425 -10.27416 -10.27323 -10.27257
 Alpha  occ. eigenvalues --  -10.27236 -10.27024 -10.26522 -10.26518 -10.26491
 Alpha  occ. eigenvalues --  -10.26258 -10.26139 -10.26107 -10.26104 -10.26053
 Alpha  occ. eigenvalues --  -10.26043 -10.26037 -10.26035 -10.25896 -10.25560
 Alpha  occ. eigenvalues --  -10.25544 -10.25387 -10.25289 -10.25210 -10.25051
 Alpha  occ. eigenvalues --  -10.24056  -3.17346  -3.16808  -1.92267  -1.91785
 Alpha  occ. eigenvalues --   -1.91673  -1.91653  -1.91278  -1.91141  -1.16478
 Alpha  occ. eigenvalues --   -1.14839  -1.11525  -1.10985  -1.08998  -1.08955
 Alpha  occ. eigenvalues --   -1.07165  -1.05917  -1.05584  -1.05158  -1.04695
 Alpha  occ. eigenvalues --   -1.04109  -1.04088  -1.03412  -1.02992  -1.00993
 Alpha  occ. eigenvalues --   -0.92524  -0.92337  -0.89626  -0.89165  -0.88416
 Alpha  occ. eigenvalues --   -0.88315  -0.88021  -0.87955  -0.87743  -0.87463
 Alpha  occ. eigenvalues --   -0.87230  -0.86770  -0.86554  -0.86295  -0.84369
 Alpha  occ. eigenvalues --   -0.83983  -0.83601  -0.83581  -0.82706  -0.82599
 Alpha  occ. eigenvalues --   -0.82362  -0.81909  -0.81253  -0.81059  -0.80587
 Alpha  occ. eigenvalues --   -0.80522  -0.79021  -0.78472  -0.77594  -0.77460
 Alpha  occ. eigenvalues --   -0.77345  -0.76978  -0.76273  -0.75699  -0.75206
 Alpha  occ. eigenvalues --   -0.74927  -0.72637  -0.72633  -0.71682  -0.71544
 Alpha  occ. eigenvalues --   -0.69638  -0.69278  -0.69024  -0.68389  -0.68146
 Alpha  occ. eigenvalues --   -0.68065  -0.67313  -0.66956  -0.65874  -0.65480
 Alpha  occ. eigenvalues --   -0.65411  -0.65065  -0.64970  -0.64742  -0.64364
 Alpha  occ. eigenvalues --   -0.63757  -0.62763  -0.61710  -0.61114  -0.59887
 Alpha  occ. eigenvalues --   -0.59623  -0.59314  -0.59280  -0.59256  -0.58788
 Alpha  occ. eigenvalues --   -0.58259  -0.57925  -0.57798  -0.57546  -0.57323
 Alpha  occ. eigenvalues --   -0.56301  -0.56087  -0.56005  -0.55378  -0.55312
 Alpha  occ. eigenvalues --   -0.55115  -0.54759  -0.54667  -0.54414  -0.54012
 Alpha  occ. eigenvalues --   -0.53632  -0.53482  -0.53203  -0.52958  -0.52821
 Alpha  occ. eigenvalues --   -0.52620  -0.52616  -0.52450  -0.52435  -0.52292
 Alpha  occ. eigenvalues --   -0.52251  -0.51694  -0.51627  -0.51538  -0.51315
 Alpha  occ. eigenvalues --   -0.51255  -0.51204  -0.50607  -0.50458  -0.50241
 Alpha  occ. eigenvalues --   -0.50228  -0.49995  -0.49879  -0.49496  -0.49405
 Alpha  occ. eigenvalues --   -0.49331  -0.49089  -0.49028  -0.48774  -0.48573
 Alpha  occ. eigenvalues --   -0.48569  -0.48511  -0.48149  -0.48059  -0.48008
 Alpha  occ. eigenvalues --   -0.47984  -0.47781  -0.47506  -0.47232  -0.47166
 Alpha  occ. eigenvalues --   -0.47141  -0.46795  -0.46734  -0.46652  -0.46509
 Alpha  occ. eigenvalues --   -0.46321  -0.45903  -0.45741  -0.45704  -0.45548
 Alpha  occ. eigenvalues --   -0.45478  -0.45246  -0.45235  -0.44954  -0.44824
 Alpha  occ. eigenvalues --   -0.44564  -0.44506  -0.44361  -0.44112  -0.43907
 Alpha  occ. eigenvalues --   -0.43838  -0.43828  -0.43634  -0.43523  -0.43460
 Alpha  occ. eigenvalues --   -0.43198  -0.43169  -0.43045  -0.42905  -0.42843
 Alpha  occ. eigenvalues --   -0.42656  -0.42433  -0.42180  -0.42135  -0.41880
 Alpha  occ. eigenvalues --   -0.41841  -0.41570  -0.41519  -0.41247  -0.41189
 Alpha  occ. eigenvalues --   -0.41056  -0.40945  -0.40744  -0.40721  -0.40517
 Alpha  occ. eigenvalues --   -0.40368  -0.40027  -0.39585  -0.39570  -0.39202
 Alpha  occ. eigenvalues --   -0.38464  -0.38220  -0.38191  -0.37510  -0.37256
 Alpha  occ. eigenvalues --   -0.36999  -0.36751  -0.36658  -0.36444  -0.36270
 Alpha  occ. eigenvalues --   -0.36058  -0.35149  -0.34354  -0.34073  -0.34008
 Alpha  occ. eigenvalues --   -0.33275  -0.33149  -0.32936  -0.32491  -0.31359
 Alpha  occ. eigenvalues --   -0.31167  -0.30928  -0.30730  -0.30712  -0.30099
 Alpha  occ. eigenvalues --   -0.30087  -0.29707  -0.29540  -0.23917  -0.23809
 Alpha  occ. eigenvalues --   -0.20838  -0.20604
 Alpha virt. eigenvalues --   -0.08325  -0.07824  -0.01756  -0.01748   0.00227
 Alpha virt. eigenvalues --    0.00510   0.02281   0.02511   0.03028   0.03060
 Alpha virt. eigenvalues --    0.04429   0.05027   0.05198   0.05969   0.06114

 Mulliken charges:
               1
     1  Mg   0.814836
     2  C   -0.017257
     3  C   -0.070469
     4  C   -0.047022
     5  C   -0.073596
     6  N   -0.243894
     7  C   -0.051361
     8  C   -0.008530
     9  C    0.010439
    10  C   -0.041610
    11  C    0.066190
    12  C    0.061616
    13  C   -0.064225
    14  H    0.001550
    15  N   -0.381037
    16  C    0.179999
    17  C   -0.151797
    18  C   -0.018598
    19  C    0.094802
    20  C    0.107327
    21  C   -0.005721
    22  O   -0.232190
    23  C    0.074368
    24  N   -0.261027
    25  C    0.046016
    26  C   -0.044084
    27  C   -0.048510
    28  C    0.017421
    29  C    0.079029
    30  C    0.027444
    31  C    0.003022
    32  N   -0.356653
    33  C    0.120863
    34  C   -0.150006
    35  C   -0.006751
    36  C    0.104757
    37  C    0.121498
    38  C    0.014236
    39  O   -0.146079
    40  C    0.025548
    41  C    0.218358
    42  O   -0.248962
    43  O   -0.321502
    44  C    0.184532
    45  H   -0.049216
    46  H    0.001154
    47  H   -0.028703
    48  H    0.022810
    49  H    0.008046
    50  H    0.027316
    51  H    0.010368
    52  H    0.004926
    53  H   -0.006404
    54  H    0.001685
    55  H    0.031433
    56  H    0.046801
    57  H    0.002011
    58  H    0.041561
    59  H    0.029983
    60  H    0.037793
    61  H    0.020639
    62  H    0.031123
    63  H    0.014379
    64  H    0.014666
    65  H    0.025740
    66  H    0.024960
    67  H    0.008081
    68  H    0.007546
    69  H    0.001726
    70  H    0.019689
    71  H    0.010868
    72  H    0.018660
    73  H    0.025111
    74  H    0.026403
    75  H    0.033602
    76  H    0.036836
    77  H    0.048229
    78  H    0.035112
    79  H    0.032101
    80  Mg   0.850595
    81  C    0.012175
    82  C   -0.109488
    83  C   -0.070319
    84  C   -0.108753
    85  N   -0.257951
    86  C   -0.051838
    87  C   -0.000868
    88  C   -0.101383
    89  C    0.045293
    90  C    0.094740
    91  C    0.048927
    92  C   -0.072547
    93  H    0.012968
    94  N   -0.419508
    95  C    0.163777
    96  C   -0.108912
    97  C   -0.091216
    98  C    0.161820
    99  C    0.094044
   100  C    0.026225
   101  O   -0.168431
   102  C    0.036208
   103  N   -0.251367
   104  C    0.003046
   105  C   -0.036973
   106  C    0.001966
   107  C   -0.034609
   108  C    0.070317
   109  C    0.035391
   110  C    0.008518
   111  N   -0.312651
   112  C    0.155311
   113  C   -0.183098
   114  C    0.078811
   115  C    0.062733
   116  C    0.144279
   117  C   -0.022484
   118  O   -0.177555
   119  C    0.001679
   120  C    0.195327
   121  O   -0.239446
   122  O   -0.323693
   123  C    0.190524
   124  H   -0.033068
   125  H   -0.010546
   126  H   -0.035038
   127  H    0.022026
   128  H    0.005883
   129  H    0.023415
   130  H    0.016531
   131  H    0.024981
   132  H    0.008962
   133  H    0.018154
   134  H    0.025954
   135  H    0.040074
   136  H    0.037344
   137  H    0.007414
   138  H    0.045241
   139  H    0.040715
   140  H    0.049149
   141  H    0.021292
   142  H    0.008531
   143  H    0.002532
   144  H    0.016653
   145  H    0.005053
   146  H    0.028216
   147  H    0.006577
   148  H    0.007644
   149  H    0.009860
   150  H    0.017935
   151  H    0.021356
   152  H    0.036297
   153  H    0.041583
   154  H   -0.001556
   155  H    0.044070
   156  H    0.042898
   157  H    0.040269
   158  H    0.012014
 Sum of Mulliken charges =  -0.00000

 Dipole moment (field-independent basis, Debye):
    X=             -6.5695    Y=              1.0121    Z=              4.3428  Tot=              7.9400
 Quadrupole moment (field-independent basis, Debye-Ang):
   XX=           -685.9486   YY=           -505.2891   ZZ=           -479.2886
   XY=            -21.4991   XZ=            -50.3234   YZ=             35.1969

 Normal termination of Gaussian 16 at Thu Sep  2 03:43:01 2021.
