 Gaussian 16, Revision A.03,
 Gaussian 16:  ES64L-G16RevA.03 25-Dec-2016

 -----------------------------------
 #p cam-b3lyp/Def2SVP td=(nstates=5)
 -----------------------------------

 --------------------------------
 TDDFT excited states in gaussian
 --------------------------------
 Symbolic Z-matrix:
 Charge =  0 Multiplicity = 1

                         Standard orientation:
 ---------------------------------------------------------------------
 Center     Atomic      Atomic             Coordinates (Angstroms)
 Number     Number       Type             X           Y           Z
 ---------------------------------------------------------------------
      1         12           0      -16.500283    0.508981    0.233593
      2          6           0      -15.110998   -2.064809   -1.520016
      3          6           0      -17.150105   -1.752582    2.874991
      4          6           0      -18.079341    2.951071    1.893714
      5          6           0      -15.758940    2.625607   -2.368154
      6          7           0      -16.464076   -1.694769    0.519514
      7          6           0      -15.724093   -2.531031   -0.326152
      8          6           0      -15.668509   -3.991815    0.203921
      9          6           0      -16.397648   -3.785564    1.558178
     10          6           0      -16.765806   -2.316030    1.654392
     11          6           0      -17.631144   -4.690274    1.984798
     12          6           0      -14.223468   -4.637125    0.377075
     13          6           0      -14.296275   -6.079675    0.945610
     14          1           0      -13.956799   -7.154197   -0.088318
     15          7           0      -17.457274    0.589714    2.191354
     16          6           0      -17.385944   -0.382336    3.165910
     17          6           0      -18.143048    0.137822    4.298443
     18          6           0      -18.415357    1.510570    3.994871
     19          6           0      -17.968433    1.764202    2.661383
     20          6           0      -18.402104   -0.700632    5.490291
     21          6           0      -19.224758    2.454595    4.951046
     22          8           0      -19.650971    3.578157    4.615072
     23          6           0      -19.592700    1.986777    6.334974
     24          7           0      -16.872710    2.386699   -0.165237
     25          6           0      -17.585352    3.273912    0.689617
     26          6           0      -17.949077    4.549224   -0.036451
     27          6           0      -16.847113    4.571777   -1.093974
     28          6           0      -16.402441    3.120865   -1.211611
     29          6           0      -19.387054    4.512461   -0.654611
     30          6           0      -15.623080    5.411310   -0.664774
     31          6           0      -15.644021    6.893892   -0.923614
     32          7           0      -15.650557    0.409320   -1.642189
     33          6           0      -15.270201    1.344122   -2.527949
     34          6           0      -14.643134    0.709119   -3.649288
     35          6           0      -14.530629   -0.622640   -3.310787
     36          6           0      -15.124858   -0.757595   -2.046420
     37          6           0      -14.155304    1.470635   -4.832104
     38          6           0      -14.043242   -1.854043   -3.766473
     39          8           0      -13.438355   -2.161688   -4.775356
     40          6           0      -14.404975   -2.878890   -2.591577
     41          6           0      -15.228928   -3.970973   -3.176113
     42          8           0      -16.350127   -3.884231   -3.614483
     43          8           0      -14.630731   -5.157476   -3.033810
     44          6           0      -15.395221   -6.360607   -3.543017
     45          1           0      -17.174002   -2.467406    3.699988
     46          1           0      -18.585454    3.759038    2.425850
     47          1           0      -15.377972    3.254036   -3.175424
     48          1           0      -16.272496   -4.619254   -0.451611
     49          1           0      -15.687819   -3.917539    2.375321
     50          1           0      -17.698330   -4.948121    3.042063
     51          1           0      -17.732642   -5.526003    1.292215
     52          1           0      -18.494283   -4.039454    1.845707
     53          1           0      -13.701012   -3.915940    1.004391
     54          1           0      -13.735828   -4.645192   -0.597643
     55          1           0      -15.251221   -6.233346    1.448172
     56          1           0      -13.517880   -6.150570    1.704763
     57          1           0      -19.470444   -0.915384    5.521879
     58          1           0      -17.954029   -0.168374    6.329371
     59          1           0      -17.843425   -1.635046    5.434991
     60          1           0      -20.095931    2.788467    6.875494
     61          1           0      -18.629840    1.872679    6.834844
     62          1           0      -20.161924    1.060636    6.410218
     63          1           0      -17.906184    5.409412    0.632209
     64          1           0      -17.189243    4.918837   -2.068744
     65          1           0      -19.418188    3.876524   -1.538469
     66          1           0      -19.720001    5.521733   -0.898173
     67          1           0      -20.027723    4.117379    0.133005
     68          1           0      -14.684907    5.028117   -1.064127
     69          1           0      -15.438680    5.265095    0.399611
     70          1           0      -15.545156    7.379548    0.046772
     71          1           0      -16.676242    7.074445   -1.224049
     72          1           0      -14.936725    7.232513   -1.680867
     73          1           0      -13.089111    1.673328   -4.738632
     74          1           0      -14.715401    2.350563   -5.150010
     75          1           0      -14.244973    0.777608   -5.668809
     76          1           0      -13.474276   -3.286191   -2.195934
     77          1           0      -16.394668   -6.307561   -3.110724
     78          1           0      -14.967715   -7.310118   -3.219823
     79          1           0      -15.430807   -6.294533   -4.630653
     80         12           0       15.893508    0.730014   -0.171011
     81          6           0       18.178935   -1.539744    0.972210
     82          6           0       13.816518   -1.706360   -1.094324
     83          6           0       13.952752    3.039238   -1.405309
     84          6           0       18.429805    3.189302    0.299787
     85          7           0       16.055202   -1.433392   -0.231037
     86          6           0       16.954746   -2.105076    0.530328
     87          6           0       16.515305   -3.517608    0.802947
     88          6           0       15.238400   -3.615316   -0.124825
     89          6           0       15.048348   -2.188812   -0.592952
     90          6           0       15.342477   -4.662988   -1.259070
     91          6           0       16.307736   -3.868809    2.400120
     92          6           0       16.915901   -5.167489    2.951313
     93          1           0       17.169940   -6.318665    1.928006
     94          7           0       14.127531    0.690480   -0.926592
     95          6           0       13.373813   -0.387973   -1.265044
     96          6           0       12.158274   -0.037935   -1.958705
     97          6           0       12.088587    1.319742   -1.872670
     98          6           0       13.475396    1.734360   -1.494927
     99          6           0       11.359610   -1.172478   -2.573943
    100          6           0       10.939678    2.257275   -2.294164
    101          8           0       10.993476    3.463675   -2.235619
    102          6           0        9.735558    1.539954   -2.829070
    103          7           0       16.261207    2.801448   -0.649994
    104          6           0       15.200314    3.529262   -1.042876
    105          6           0       15.550332    5.019565   -1.099736
    106          6           0       16.867822    5.101130   -0.256328
    107          6           0       17.244916    3.606180   -0.209684
    108          6           0       15.675811    5.712453   -2.523074
    109          6           0       16.725551    5.652055    1.212470
    110          6           0       15.831719    5.011190    2.241352
    111          7           0       17.880592    0.916907    0.569158
    112          6           0       18.832711    1.939840    0.625965
    113          6           0       20.105653    1.463719    1.182116
    114          6           0       19.890642    0.086937    1.344836
    115          6           0       18.534210   -0.151455    0.958227
    116          6           0       21.325524    2.268905    1.549697
    117          6           0       20.459696   -1.120765    1.735817
    118          8           0       21.579522   -1.433964    2.108639
    119          6           0       19.326426   -2.179171    1.741318
    120          6           0       19.957844   -3.326496    1.049906
    121          8           0       20.089323   -3.441717   -0.171020
    122          8           0       20.490143   -4.209081    1.944562
    123          6           0       21.410627   -5.248078    1.472013
    124          1           0       13.086082   -2.510993   -1.203560
    125          1           0       13.337406    3.871784   -1.750553
    126          1           0       19.091757    4.048880    0.429809
    127          1           0       17.222400   -4.228992    0.376138
    128          1           0       14.369414   -3.832724    0.495841
    129          1           0       15.535639   -4.146260   -2.199087
    130          1           0       14.384806   -5.176774   -1.342829
    131          1           0       16.169551   -5.322402   -0.995696
    132          1           0       15.226594   -3.893735    2.537086
    133          1           0       16.749745   -3.090989    3.021993
    134          1           0       16.227203   -5.636910    3.653262
    135          1           0       17.806879   -4.938186    3.535722
    136          1           0       11.882846   -1.746073   -3.339161
    137          1           0       10.500089   -0.961890   -3.210041
    138          1           0       11.061105   -1.720000   -1.679933
    139          1           0        9.365402    0.815706   -2.103818
    140          1           0       10.110362    1.155548   -3.777451
    141          1           0        8.826056    2.108835   -3.018821
    142          1           0       14.679416    5.466156   -0.618663
    143          1           0       17.629266    5.609796   -0.847982
    144          1           0       15.469506    4.979178   -3.302349
    145          1           0       16.707661    5.998658   -2.723235
    146          1           0       15.072093    6.606930   -2.683889
    147          1           0       16.408069    6.671076    0.989856
    148          1           0       17.683075    5.694188    1.730599
    149          1           0       15.213289    4.250364    1.763339
    150          1           0       15.148115    5.746882    2.664807
    151          1           0       16.327896    4.468945    3.046013
    152          1           0       22.151335    2.111879    0.857228
    153          1           0       21.640749    2.017994    2.562646
    154          1           0       20.991097    3.296470    1.404787
    155          1           0       18.968817   -2.387132    2.749934
    156          1           0       22.093736   -5.580107    2.254711
    157          1           0       21.875730   -4.980869    0.524362
    158          1           0       20.891845   -6.149844    1.147283
 ---------------------------------------------------------------------

 SCF Done:  E(RCAM-B3LYP) =  -4069.82675564     A.U. after   18 cycles

 Excitation energies and oscillator strengths:

 Excited State   1:      Singlet-A      1.6533 eV  749.90 nm  f=0.3909  <S**2>=0.000
     309 -> 316       -0.16011
     311 -> 313        0.69075
     309 <- 316       -0.10387
 This state for optimization and/or second-order correction.
 Total Energy, E(TD-HF/TD-DFT) =  -4069.76599647
 Copying the excited state density for this state as the 1-particle RhoCI density.

 Excited State   2:      Singlet-A      1.7684 eV  701.10 nm  f=0.3764  <S**2>=0.000
     310 -> 315        0.19165
     312 -> 314        0.68178
     310 <- 315        0.10600

 Excited State   3:      Singlet-A      2.2510 eV  550.80 nm  f=0.1067  <S**2>=0.000
     309 -> 313        0.63837
     311 -> 316        0.28833

 Excited State   4:      Singlet-A      2.2757 eV  544.82 nm  f=0.0584  <S**2>=0.000
     310 -> 314        0.61592
     312 -> 315       -0.33785

 Excited State   5:      Singlet-A      2.8400 eV  436.56 nm  f=0.0000  <S**2>=0.000
     312 -> 313        0.70710

 The electronic state is 1-A.
 Alpha  occ. eigenvalues --  -46.87968 -46.87569 -19.24987 -19.23922 -19.19945
 Alpha  occ. eigenvalues --  -19.19446 -19.18808 -19.18615 -19.18349 -19.17662
 Alpha  occ. eigenvalues --  -14.42787 -14.41807 -14.41721 -14.41071 -14.40013
 Alpha  occ. eigenvalues --  -14.38933 -14.38917 -14.38761 -10.38598 -10.38265
 Alpha  occ. eigenvalues --  -10.35975 -10.35276 -10.35010 -10.33557 -10.32361
 Alpha  occ. eigenvalues --  -10.32122 -10.31422 -10.30840 -10.30668 -10.30632
 Alpha  occ. eigenvalues --  -10.30596 -10.30463 -10.30255 -10.30147 -10.30076
 Alpha  occ. eigenvalues --  -10.29628 -10.29546 -10.29334 -10.29059 -10.29048
 Alpha  occ. eigenvalues --  -10.29046 -10.28977 -10.28938 -10.28729 -10.28671
 Alpha  occ. eigenvalues --  -10.28548 -10.28164 -10.28128 -10.28075 -10.27863
 Alpha  occ. eigenvalues --  -10.27854 -10.27839 -10.27826 -10.27822 -10.27777
 Alpha  occ. eigenvalues --  -10.27756 -10.27604 -10.27571 -10.27523 -10.27501
 Alpha  occ. eigenvalues --  -10.27442 -10.27431 -10.27339 -10.27251 -10.27181
 Alpha  occ. eigenvalues --  -10.26829 -10.26737 -10.26598 -10.26530 -10.26506
 Alpha  occ. eigenvalues --  -10.26418 -10.26276 -10.26234 -10.26050 -10.26048
 Alpha  occ. eigenvalues --  -10.25911 -10.25894 -10.25797 -10.25640 -10.25592
 Alpha  occ. eigenvalues --  -10.25575 -10.25229 -10.25161 -10.25084 -10.25066
 Alpha  occ. eigenvalues --  -10.24071  -3.16824  -3.16349  -1.91689  -1.91293
 Alpha  occ. eigenvalues --   -1.91251  -1.91157  -1.90820  -1.90648  -1.16981
 Alpha  occ. eigenvalues --   -1.14853  -1.11538  -1.10509  -1.09013  -1.08342
 Alpha  occ. eigenvalues --   -1.07211  -1.05932  -1.05599  -1.05508  -1.04710
 Alpha  occ. eigenvalues --   -1.04124  -1.03990  -1.03166  -1.03007  -1.02028
 Alpha  occ. eigenvalues --   -0.93403  -0.92352  -0.89640  -0.89147  -0.88848
 Alpha  occ. eigenvalues --   -0.88730  -0.88432  -0.88037  -0.87973  -0.87970
 Alpha  occ. eigenvalues --   -0.87478  -0.87239  -0.86635  -0.86568  -0.84396
 Alpha  occ. eigenvalues --   -0.84385  -0.84035  -0.83596  -0.82720  -0.82615
 Alpha  occ. eigenvalues --   -0.82596  -0.81648  -0.81282  -0.81074  -0.80702
 Alpha  occ. eigenvalues --   -0.80536  -0.79034  -0.78454  -0.77622  -0.77475
 Alpha  occ. eigenvalues --   -0.77286  -0.76993  -0.76279  -0.75713  -0.75268
 Alpha  occ. eigenvalues --   -0.75220  -0.73288  -0.72652  -0.71877  -0.71697
 Alpha  occ. eigenvalues --   -0.69655  -0.69514  -0.69039  -0.69028  -0.68381
 Alpha  occ. eigenvalues --   -0.68162  -0.67328  -0.66149  -0.65868  -0.65427
 Alpha  occ. eigenvalues --   -0.65019  -0.64985  -0.64757  -0.64691  -0.64254
 Alpha  occ. eigenvalues --   -0.63772  -0.62153  -0.61724  -0.61128  -0.60318
 Alpha  occ. eigenvalues --   -0.60060  -0.59329  -0.59295  -0.59185  -0.58949
 Alpha  occ. eigenvalues --   -0.58395  -0.58087  -0.57939  -0.57813  -0.57561
 Alpha  occ. eigenvalues --   -0.56619  -0.56315  -0.56153  -0.55327  -0.55130
 Alpha  occ. eigenvalues --   -0.55090  -0.54826  -0.54682  -0.54428  -0.54317
 Alpha  occ. eigenvalues --   -0.53647  -0.53529  -0.53419  -0.53217  -0.53002
 Alpha  occ. eigenvalues --   -0.52783  -0.52635  -0.52631  -0.52450  -0.52353
 Alpha  occ. eigenvalues --   -0.52309  -0.51831  -0.51738  -0.51642  -0.51394
 Alpha  occ. eigenvalues --   -0.51269  -0.50622  -0.50473  -0.50440  -0.50317
 Alpha  occ. eigenvalues --   -0.50243  -0.50049  -0.49972  -0.49801  -0.49510
 Alpha  occ. eigenvalues --   -0.49345  -0.49345  -0.49103  -0.49011  -0.48830
 Alpha  occ. eigenvalues --   -0.48788  -0.48584  -0.48326  -0.48147  -0.48074
 Alpha  occ. eigenvalues --   -0.48023  -0.47809  -0.47796  -0.47566  -0.47188
 Alpha  occ. eigenvalues --   -0.47181  -0.46992  -0.46809  -0.46668  -0.46587
 Alpha  occ. eigenvalues --   -0.46524  -0.46524  -0.46100  -0.45925  -0.45719
 Alpha  occ. eigenvalues --   -0.45567  -0.45493  -0.45342  -0.45261  -0.44839
 Alpha  occ. eigenvalues --   -0.44764  -0.44522  -0.44295  -0.44127  -0.43922
 Alpha  occ. eigenvalues --   -0.43843  -0.43817  -0.43782  -0.43625  -0.43474
 Alpha  occ. eigenvalues --   -0.43401  -0.43185  -0.42920  -0.42915  -0.42858
 Alpha  occ. eigenvalues --   -0.42448  -0.42150  -0.42071  -0.41872  -0.41857
 Alpha  occ. eigenvalues --   -0.41694  -0.41623  -0.41585  -0.41262  -0.41189
 Alpha  occ. eigenvalues --   -0.41072  -0.40944  -0.40759  -0.40707  -0.40532
 Alpha  occ. eigenvalues --   -0.40479  -0.40109  -0.39891  -0.39600  -0.39218
 Alpha  occ. eigenvalues --   -0.38503  -0.38480  -0.38207  -0.38136  -0.37544
 Alpha  occ. eigenvalues --   -0.37016  -0.37002  -0.36731  -0.36636  -0.36460
 Alpha  occ. eigenvalues --   -0.36285  -0.35163  -0.34369  -0.34285  -0.34077
 Alpha  occ. eigenvalues --   -0.33345  -0.33289  -0.32951  -0.32505  -0.31528
 Alpha  occ. eigenvalues --   -0.31373  -0.31316  -0.30727  -0.30716  -0.30542
 Alpha  occ. eigenvalues --   -0.30102  -0.29722  -0.29163  -0.24674  -0.23824
 Alpha  occ. eigenvalues --   -0.21182  -0.20619
 Alpha virt. eigenvalues --   -0.09137  -0.07839  -0.01763  -0.01613   0.00212
 Alpha virt. eigenvalues --    0.00341   0.02265   0.02292   0.03012   0.03345
 Alpha virt. eigenvalues --    0.04586   0.05010   0.05296   0.06099   0.06151

 Mulliken charges:
               1
     1  Mg   0.828494
     2  C    0.007463
     3  C   -0.059500
     4  C   -0.069198
     5  C   -0.093554
     6  N   -0.267892
     7  C   -0.051242
     8  C    0.020259
     9  C   -0.103982
    10  C    0.038333
    11  C    0.063709
    12  C    0.034956
    13  C   -0.056535
    14  H    0.031764
    15  N   -0.358579
    16  C    0.139178
    17  C   -0.202994
    18  C   -0.035925
    19  C    0.110418
    20  C    0.139562
    21  C    0.019226
    22  O   -0.225558
    23  C    0.056040
    24  N   -0.391530
    25  C    0.083617
    26  C   -0.019363
    27  C   -0.020644
    28  C    0.118460
    29  C    0.088219
    30  C   -0.004925
    31  C    0.053328
    32  N   -0.339549
    33  C    0.089587
    34  C   -0.168118
    35  C    0.069248
    36  C    0.103898
    37  C    0.107985
    38  C    0.017624
    39  O   -0.153869
    40  C   -0.052417
    41  C    0.180652
    42  O   -0.216988
    43  O   -0.331603
    44  C    0.179180
    45  H   -0.027505
    46  H   -0.006546
    47  H   -0.026943
    48  H    0.017603
    49  H    0.009412
    50  H    0.020303
    51  H    0.021761
    52  H    0.015448
    53  H    0.010907
    54  H    0.032960
    55  H    0.030073
    56  H    0.029246
    57  H    0.042977
    58  H    0.027707
    59  H    0.001076
    60  H    0.024471
    61  H    0.024831
    62  H    0.040007
    63  H    0.000271
    64  H   -0.003781
    65  H    0.020463
    66  H    0.019300
    67  H    0.019185
    68  H   -0.002580
    69  H   -0.003897
    70  H    0.012726
    71  H   -0.002432
    72  H    0.028755
    73  H    0.038251
    74  H    0.023720
    75  H    0.027418
    76  H    0.043073
    77  H    0.041535
    78  H    0.041600
    79  H    0.051375
    80  Mg   0.850536
    81  C    0.012151
    82  C   -0.109471
    83  C   -0.070345
    84  C   -0.108753
    85  N   -0.257964
    86  C   -0.051801
    87  C   -0.000891
    88  C   -0.101377
    89  C    0.045311
    90  C    0.094737
    91  C    0.048944
    92  C   -0.072544
    93  H    0.013012
    94  N   -0.419461
    95  C    0.163737
    96  C   -0.108886
    97  C   -0.091253
    98  C    0.161856
    99  C    0.094030
   100  C    0.026213
   101  O   -0.168449
   102  C    0.036209
   103  N   -0.251360
   104  C    0.003034
   105  C   -0.036981
   106  C    0.001989
   107  C   -0.034619
   108  C    0.070310
   109  C    0.035365
   110  C    0.008548
   111  N   -0.312648
   112  C    0.155310
   113  C   -0.183101
   114  C    0.078809
   115  C    0.062728
   116  C    0.144282
   117  C   -0.022481
   118  O   -0.177554
   119  C    0.001665
   120  C    0.195365
   121  O   -0.239428
   122  O   -0.323718
   123  C    0.190504
   124  H   -0.033057
   125  H   -0.010542
   126  H   -0.035034
   127  H    0.022050
   128  H    0.005845
   129  H    0.023465
   130  H    0.016542
   131  H    0.024986
   132  H    0.008916
   133  H    0.018126
   134  H    0.025901
   135  H    0.040065
   136  H    0.037409
   137  H    0.007485
   138  H    0.045191
   139  H    0.040667
   140  H    0.049231
   141  H    0.021309
   142  H    0.008496
   143  H    0.002554
   144  H    0.016695
   145  H    0.005076
   146  H    0.028217
   147  H    0.006574
   148  H    0.007643
   149  H    0.009854
   150  H    0.017883
   151  H    0.021330
   152  H    0.036322
   153  H    0.041561
   154  H   -0.001562
   155  H    0.044033
   156  H    0.042889
   157  H    0.040298
   158  H    0.012023
 Sum of Mulliken charges =  -0.00000

 Dipole moment (field-independent basis, Debye):
    X=             -4.3137    Y=             -2.1873    Z=              3.6784  Tot=              6.0764
 Quadrupole moment (field-independent basis, Debye-Ang):
   XX=           -743.0222   YY=           -469.5435   ZZ=           -513.7114
   XY=             51.4376   XZ=            -39.5782   YZ=            -26.6060

 Normal termination of Gaussian 16 at Thu Sep  2 08:01:09 2021.
