 Gaussian 16, Revision A.03,
 Gaussian 16:  ES64L-G16RevA.03 25-Dec-2016

 -----------------------------------
 #p cam-b3lyp/Def2SVP td=(nstates=5)
 -----------------------------------

 --------------------------------
 TDDFT excited states in gaussian
 --------------------------------
 Symbolic Z-matrix:
 Charge =  0 Multiplicity = 1

                         Standard orientation:
 ---------------------------------------------------------------------
 Center     Atomic      Atomic             Coordinates (Angstroms)
 Number     Number       Type             X           Y           Z
 ---------------------------------------------------------------------
      1         12           0      -11.771052    0.169996   -0.572079
      2          6           0       -8.636158   -1.279020    0.668248
      3          6           0      -13.249723   -2.694592    0.687824
      4          6           0      -14.523929    1.778292   -0.642227
      5          6           0       -9.814269    3.095612   -1.295637
      6          7           0      -10.953143   -1.757059    0.721081
      7          6           0       -9.675865   -2.126170    1.082441
      8          6           0       -9.738655   -3.434564    1.952460
      9          6           0      -11.149116   -3.996375    1.703113
     10          6           0      -11.827742   -2.758949    1.001604
     11          6           0      -11.303043   -5.277523    0.782323
     12          6           0       -9.382510   -3.205871    3.461349
     13          6           0       -8.556049   -4.284215    4.128393
     14          1           0       -9.319987   -5.282025    5.054317
     15          7           0      -13.627007   -0.394066   -0.178923
     16          6           0      -14.080304   -1.621380    0.222013
     17          6           0      -15.563207   -1.594893    0.348865
     18          6           0      -15.924092   -0.272460   -0.018824
     19          6           0      -14.670705    0.439300   -0.256229
     20          6           0      -16.472511   -2.727835    0.852177
     21          6           0      -17.297804    0.399116    0.065041
     22          8           0      -18.248418   -0.306285    0.391920
     23          6           0      -17.554813    1.752263   -0.235176
     24          7           0      -12.074007    2.267053   -0.669454
     25          6           0      -13.390629    2.585323   -0.937256
     26          6           0      -13.446213    4.097402   -1.384285
     27          6           0      -11.951413    4.568466   -1.278916
     28          6           0      -11.230739    3.203201   -1.171285
     29          6           0      -14.081111    4.365384   -2.776446
     30          6           0      -11.548457    5.583135   -0.134189
     31          6           0      -11.857020    7.075166   -0.348409
     32          7           0       -9.667336    0.852942   -0.438348
     33          6           0       -9.048430    2.000861   -0.891353
     34          6           0       -7.610830    1.901371   -0.819099
     35          6           0       -7.400473    0.603910   -0.218496
     36          6           0       -8.662708   -0.022885    0.070509
     37          6           0       -6.670343    2.998455   -1.212631
     38          6           0       -6.407966   -0.244712    0.270461
     39          8           0       -5.210652   -0.064201    0.446579
     40          6           0       -7.132465   -1.426939    0.976968
     41          6           0       -6.579172   -2.663815    0.308554
     42          8           0       -6.152057   -3.639205    0.931270
     43          8           0       -6.729908   -2.713858   -1.135673
     44          6           0       -6.515407   -4.056671   -1.672671
     45          1           0      -13.733935   -3.618383    1.009719
     46          1           0      -15.388980    2.399103   -0.884559
     47          1           0       -9.354185    4.024935   -1.637638
     48          1           0       -9.106151   -4.189926    1.483946
     49          1           0      -11.700336   -4.135289    2.633139
     50          1           0      -11.532396   -6.086489    1.475595
     51          1           0      -10.359692   -5.531397    0.299728
     52          1           0      -12.026597   -5.191047   -0.028223
     53          1           0      -10.239946   -3.196536    4.134753
     54          1           0       -8.805410   -2.288472    3.579243
     55          1           0       -7.728519   -3.783061    4.630561
     56          1           0       -8.119246   -4.896807    3.339059
     57          1           0      -17.383524   -2.762706    0.254140
     58          1           0      -16.630950   -2.485995    1.903070
     59          1           0      -15.997175   -3.698820    0.719899
     60          1           0      -17.386085    1.897975   -1.302611
     61          1           0      -17.014740    2.469698    0.382726
     62          1           0      -18.588376    1.841359    0.101104
     63          1           0      -14.015299    4.733836   -0.707475
     64          1           0      -11.596752    4.977356   -2.224716
     65          1           0      -13.310997    4.888503   -3.343511
     66          1           0      -14.947105    5.011815   -2.637481
     67          1           0      -14.329090    3.366619   -3.137796
     68          1           0      -10.469280    5.450316   -0.051116
     69          1           0      -12.082037    5.360223    0.790006
     70          1           0      -12.246196    7.054369   -1.366758
     71          1           0      -10.940307    7.663338   -0.410318
     72          1           0      -12.571795    7.537646    0.331829
     73          1           0       -6.962891    3.856327   -0.608603
     74          1           0       -6.806986    3.341597   -2.237990
     75          1           0       -5.643126    2.809599   -0.900538
     76          1           0       -6.803031   -1.422145    2.015804
     77          1           0       -7.124383   -3.911864   -2.565820
     78          1           0       -6.757578   -4.833831   -0.947806
     79          1           0       -5.478295   -4.088745   -2.006773
     80         12           0       11.211668    0.830279   -0.131591
     81          6           0       10.593836   -2.600668   -0.547729
     82          6           0        7.853976    1.322860    0.028408
     83          6           0       11.948635    3.910610    0.683784
     84          6           0       14.617214   -0.153623    0.501337
     85          7           0        9.475720   -0.483077   -0.315875
     86          6           0        9.445576   -1.841377   -0.460603
     87          6           0        8.010010   -2.320221   -0.197538
     88          6           0        7.194944   -1.089796   -0.580178
     89          6           0        8.220076   -0.014802   -0.170996
     90          6           0        6.871875   -1.027718   -2.090943
     91          6           0        7.807311   -2.728504    1.308480
     92          6           0        7.525987   -4.273602    1.650125
     93          1           0        8.518938   -5.033623    2.545942
     94          7           0       10.065222    2.388754    0.353809
     95          6           0        8.689435    2.408299    0.341856
     96          6           0        8.261482    3.755410    0.555365
     97          6           0        9.412010    4.607602    0.638036
     98          6           0       10.562375    3.660584    0.568062
     99          6           0        6.754242    4.177604    0.632084
    100          6           0        9.364277    6.174722    0.749593
    101          8           0        8.321041    6.747633    0.675230
    102          6           0       10.619014    6.911628    0.660626
    103          7           0       12.974526    1.693387    0.813117
    104          6           0       13.051735    3.036423    0.657291
    105          6           0       14.477661    3.542096    0.516030
    106          6           0       15.314430    2.311463    0.830641
    107          6           0       14.234567    1.179850    0.717553
    108          6           0       14.785050    4.120181   -0.914773
    109          6           0       16.129267    2.240611    2.206931
    110          6           0       17.628854    2.361803    2.253026
    111          7           0       12.425807   -0.916713   -0.230545
    112          6           0       13.775150   -1.169885    0.047732
    113          6           0       14.090720   -2.576722   -0.074106
    114          6           0       12.874714   -3.159612   -0.333616
    115          6           0       11.861396   -2.147577   -0.402702
    116          6           0       15.417846   -3.177469    0.137451
    117          6           0       12.217858   -4.435411   -0.573567
    118          8           0       12.709239   -5.564166   -0.696833
    119          6           0       10.758723   -4.119806   -0.826808
    120          6           0       10.439069   -4.568818   -2.248516
    121          8           0       11.057511   -4.113175   -3.207735
    122          8           0        9.495558   -5.607822   -2.262808
    123          6           0        9.172114   -6.104379   -3.573583
    124          1           0        6.777349    1.466153   -0.081901
    125          1           0       12.159833    4.979720    0.630164
    126          1           0       15.671338   -0.426855    0.585195
    127          1           0        7.879752   -3.242912   -0.763579
    128          1           0        6.281159   -1.093135    0.012726
    129          1           0        5.800535   -0.843371   -2.019340
    130          1           0        7.125949   -2.018935   -2.467542
    131          1           0        7.387630   -0.264837   -2.674255
    132          1           0        6.928630   -2.195016    1.670779
    133          1           0        8.651021   -2.333066    1.873506
    134          1           0        7.579123   -4.791661    0.692281
    135          1           0        6.530605   -4.478500    2.042437
    136          1           0        6.437437    4.792652    1.473806
    137          1           0        6.191135    3.244252    0.662510
    138          1           0        6.422268    4.714625   -0.256637
    139          1           0       11.352439    6.645383    1.422056
    140          1           0       10.397850    7.975891    0.740999
    141          1           0       10.999568    6.882045   -0.359434
    142          1           0       14.692756    4.380359    1.179556
    143          1           0       16.020750    2.118701    0.023124
    144          1           0       14.724631    5.207303   -0.962965
    145          1           0       14.182375    3.595941   -1.656415
    146          1           0       15.820134    3.863871   -1.145145
    147          1           0       15.850987    1.473108    2.928346
    148          1           0       15.720313    3.166582    2.612079
    149          1           0       17.976810    3.267210    2.749279
    150          1           0       18.024431    2.380698    1.237228
    151          1           0       17.954416    1.466999    2.783035
    152          1           0       15.976468   -2.520285    0.804452
    153          1           0       15.905400   -3.155385   -0.837592
    154          1           0       15.339083   -4.210038    0.474504
    155          1           0       10.252382   -4.766302   -0.111315
    156          1           0        8.501698   -5.465120   -4.148651
    157          1           0        8.700670   -7.085549   -3.525057
    158          1           0       10.035774   -6.272061   -4.216499
 ---------------------------------------------------------------------

 SCF Done:  E(RCAM-B3LYP) =  -4069.76420129     A.U. after   17 cycles

 Excitation energies and oscillator strengths:

 Excited State   1:      Singlet-A      1.7190 eV  721.26 nm  f=0.4762  <S**2>=0.000
     309 -> 315       -0.14744
     310 -> 316       -0.12515
     311 -> 313        0.51197
     312 -> 314       -0.44952
 This state for optimization and/or second-order correction.
 Total Energy, E(TD-HF/TD-DFT) =  -4069.70102984
 Copying the excited state density for this state as the 1-particle RhoCI density.

 Excited State   2:      Singlet-A      1.7268 eV  718.02 nm  f=0.2495  <S**2>=0.000
     309 -> 315       -0.13026
     310 -> 316        0.14500
     311 -> 313        0.44662
     312 -> 314        0.51429

 Excited State   3:      Singlet-A      2.2416 eV  553.11 nm  f=0.0686  <S**2>=0.000
     309 -> 313        0.61610
     311 -> 315        0.33044

 Excited State   4:      Singlet-A      2.2828 eV  543.13 nm  f=0.0528  <S**2>=0.000
     310 -> 314        0.60486
     312 -> 316       -0.35585

 Excited State   5:      Singlet-A      2.8453 eV  435.75 nm  f=0.0000  <S**2>=0.000
     312 -> 313        0.70695

 The electronic state is 1-A.
 Alpha  occ. eigenvalues --  -46.90801 -46.88519 -19.25860 -19.23785 -19.20418
 Alpha  occ. eigenvalues --  -19.20157 -19.18939 -19.18822 -19.18600 -19.17923
 Alpha  occ. eigenvalues --  -14.42755 -14.42053 -14.41976 -14.41900 -14.40849
 Alpha  occ. eigenvalues --  -14.39216 -14.39183 -14.39181 -10.40087 -10.39456
 Alpha  occ. eigenvalues --  -10.34966 -10.34903 -10.34404 -10.33562 -10.32349
 Alpha  occ. eigenvalues --  -10.31927 -10.31629 -10.31568 -10.31406 -10.31347
 Alpha  occ. eigenvalues --  -10.31045 -10.30976 -10.30972 -10.30859 -10.30650
 Alpha  occ. eigenvalues --  -10.30496 -10.30366 -10.29693 -10.29626 -10.29433
 Alpha  occ. eigenvalues --  -10.29368 -10.29280 -10.29057 -10.28957 -10.28955
 Alpha  occ. eigenvalues --  -10.28878 -10.28565 -10.28444 -10.28433 -10.28379
 Alpha  occ. eigenvalues --  -10.28365 -10.28256 -10.28241 -10.28091 -10.28027
 Alpha  occ. eigenvalues --  -10.27941 -10.27669 -10.27651 -10.27650 -10.27649
 Alpha  occ. eigenvalues --  -10.27499 -10.27378 -10.27371 -10.27024 -10.27021
 Alpha  occ. eigenvalues --  -10.26888 -10.26872 -10.26846 -10.26763 -10.26738
 Alpha  occ. eigenvalues --  -10.26727 -10.26715 -10.26690 -10.26679 -10.26674
 Alpha  occ. eigenvalues --  -10.26309 -10.26267 -10.26223 -10.26091 -10.25994
 Alpha  occ. eigenvalues --  -10.25865 -10.25862 -10.25585 -10.25303 -10.25278
 Alpha  occ. eigenvalues --  -10.24972  -3.19211  -3.17129  -1.94057  -1.93719
 Alpha  occ. eigenvalues --   -1.93477  -1.92004  -1.91600  -1.91429  -1.15801
 Alpha  occ. eigenvalues --   -1.14015  -1.11757  -1.10491  -1.09039  -1.08944
 Alpha  occ. eigenvalues --   -1.08061  -1.06418  -1.05072  -1.04604  -1.04113
 Alpha  occ. eigenvalues --   -1.03405  -1.03384  -1.02692  -1.01908  -1.01125
 Alpha  occ. eigenvalues --   -0.92936  -0.92877  -0.89045  -0.89016  -0.88982
 Alpha  occ. eigenvalues --   -0.88756  -0.88544  -0.88344  -0.87453  -0.87032
 Alpha  occ. eigenvalues --   -0.86968  -0.86935  -0.85973  -0.85060  -0.84831
 Alpha  occ. eigenvalues --   -0.84448  -0.84091  -0.83904  -0.83736  -0.82577
 Alpha  occ. eigenvalues --   -0.82390  -0.82363  -0.81196  -0.80873  -0.80684
 Alpha  occ. eigenvalues --   -0.79935  -0.78296  -0.77853  -0.77397  -0.77087
 Alpha  occ. eigenvalues --   -0.77062  -0.76246  -0.76101  -0.75888  -0.75318
 Alpha  occ. eigenvalues --   -0.74925  -0.72883  -0.72720  -0.71968  -0.71952
 Alpha  occ. eigenvalues --   -0.69179  -0.68897  -0.68636  -0.68435  -0.67949
 Alpha  occ. eigenvalues --   -0.67760  -0.67056  -0.66604  -0.65720  -0.65616
 Alpha  occ. eigenvalues --   -0.65421  -0.65416  -0.65090  -0.64691  -0.64289
 Alpha  occ. eigenvalues --   -0.64073  -0.62557  -0.61975  -0.60425  -0.60071
 Alpha  occ. eigenvalues --   -0.59879  -0.59858  -0.59315  -0.58962  -0.58960
 Alpha  occ. eigenvalues --   -0.58717  -0.58333  -0.57517  -0.57212  -0.57039
 Alpha  occ. eigenvalues --   -0.56824  -0.56076  -0.55903  -0.55651  -0.55125
 Alpha  occ. eigenvalues --   -0.54840  -0.54817  -0.54371  -0.53998  -0.53824
 Alpha  occ. eigenvalues --   -0.53800  -0.53593  -0.53396  -0.53351  -0.53053
 Alpha  occ. eigenvalues --   -0.52933  -0.52797  -0.52628  -0.52529  -0.52521
 Alpha  occ. eigenvalues --   -0.52040  -0.52018  -0.51793  -0.51586  -0.51485
 Alpha  occ. eigenvalues --   -0.51070  -0.50840  -0.50711  -0.50656  -0.50308
 Alpha  occ. eigenvalues --   -0.49980  -0.49938  -0.49906  -0.49630  -0.49555
 Alpha  occ. eigenvalues --   -0.49485  -0.49175  -0.49129  -0.49001  -0.48904
 Alpha  occ. eigenvalues --   -0.48677  -0.48493  -0.48432  -0.48215  -0.48191
 Alpha  occ. eigenvalues --   -0.48006  -0.47924  -0.47791  -0.47340  -0.47318
 Alpha  occ. eigenvalues --   -0.46988  -0.46779  -0.46571  -0.46428  -0.46195
 Alpha  occ. eigenvalues --   -0.46194  -0.46114  -0.45958  -0.45949  -0.45775
 Alpha  occ. eigenvalues --   -0.45413  -0.45244  -0.45177  -0.45010  -0.44731
 Alpha  occ. eigenvalues --   -0.44525  -0.44379  -0.44286  -0.44152  -0.44150
 Alpha  occ. eigenvalues --   -0.44000  -0.43849  -0.43691  -0.43633  -0.43380
 Alpha  occ. eigenvalues --   -0.43237  -0.43130  -0.42863  -0.42604  -0.42497
 Alpha  occ. eigenvalues --   -0.42409  -0.42357  -0.42250  -0.42104  -0.41992
 Alpha  occ. eigenvalues --   -0.41980  -0.41797  -0.41567  -0.41539  -0.41423
 Alpha  occ. eigenvalues --   -0.41396  -0.40876  -0.40689  -0.40519  -0.40300
 Alpha  occ. eigenvalues --   -0.40260  -0.40220  -0.39992  -0.39838  -0.39353
 Alpha  occ. eigenvalues --   -0.38896  -0.38824  -0.37901  -0.37818  -0.37567
 Alpha  occ. eigenvalues --   -0.37264  -0.37210  -0.36976  -0.36507  -0.36381
 Alpha  occ. eigenvalues --   -0.36343  -0.35441  -0.34683  -0.34542  -0.34536
 Alpha  occ. eigenvalues --   -0.33903  -0.33314  -0.33250  -0.31787  -0.31440
 Alpha  occ. eigenvalues --   -0.31244  -0.31080  -0.31049  -0.30784  -0.30214
 Alpha  occ. eigenvalues --   -0.29984  -0.29483  -0.28788  -0.24510  -0.24223
 Alpha  occ. eigenvalues --   -0.21498  -0.20824
 Alpha virt. eigenvalues --   -0.08831  -0.08151  -0.02742  -0.02060  -0.00408
 Alpha virt. eigenvalues --    0.00540   0.00666   0.01987   0.02127   0.02901
 Alpha virt. eigenvalues --    0.04340   0.04369   0.04751   0.05204   0.05439

 Mulliken charges:
               1
     1  Mg   0.834453
     2  C   -0.008476
     3  C   -0.051083
     4  C   -0.074840
     5  C   -0.087880
     6  N   -0.224664
     7  C   -0.070877
     8  C    0.059321
     9  C   -0.071643
    10  C   -0.036533
    11  C    0.062120
    12  C    0.059722
    13  C   -0.072198
    14  H    0.007899
    15  N   -0.409471
    16  C    0.147896
    17  C   -0.174457
    18  C   -0.015308
    19  C    0.192196
    20  C    0.144594
    21  C   -0.033239
    22  O   -0.215628
    23  C    0.089210
    24  N   -0.319209
    25  C    0.023119
    26  C   -0.073025
    27  C   -0.047461
    28  C    0.019162
    29  C    0.084288
    30  C    0.042778
    31  C    0.012928
    32  N   -0.344548
    33  C    0.143197
    34  C   -0.151071
    35  C    0.030782
    36  C    0.129318
    37  C    0.139441
    38  C   -0.006613
    39  O   -0.180331
    40  C   -0.020385
    41  C    0.217505
    42  O   -0.226537
    43  O   -0.389967
    44  C    0.179712
    45  H   -0.026293
    46  H   -0.046836
    47  H   -0.027691
    48  H    0.012102
    49  H    0.017890
    50  H    0.026353
    51  H    0.015186
    52  H    0.028919
    53  H    0.025273
    54  H    0.019056
    55  H    0.034320
    56  H    0.030122
    57  H    0.044873
    58  H    0.045501
    59  H    0.008992
    60  H    0.054034
    61  H    0.041976
    62  H    0.028152
    63  H    0.008557
    64  H   -0.003863
    65  H    0.016931
    66  H    0.020144
    67  H    0.021255
    68  H    0.004923
    69  H    0.011241
    70  H   -0.004516
    71  H    0.017610
    72  H    0.028290
    73  H    0.012693
    74  H    0.025063
    75  H    0.037456
    76  H    0.040488
    77  H    0.031659
    78  H    0.052858
    79  H    0.033083
    80  Mg   0.818862
    81  C   -0.027428
    82  C   -0.090142
    83  C   -0.046523
    84  C   -0.087604
    85  N   -0.261392
    86  C   -0.073465
    87  C   -0.067209
    88  C   -0.064439
    89  C    0.017825
    90  C    0.107694
    91  C    0.064765
    92  C   -0.081377
    93  H    0.028670
    94  N   -0.432483
    95  C    0.196244
    96  C   -0.155107
    97  C   -0.066407
    98  C    0.129344
    99  C    0.128217
   100  C    0.011568
   101  O   -0.165185
   102  C    0.047118
   103  N   -0.260855
   104  C    0.045600
   105  C   -0.043660
   106  C   -0.029957
   107  C    0.049880
   108  C    0.066868
   109  C    0.022800
   110  C    0.021427
   111  N   -0.342392
   112  C    0.111544
   113  C   -0.194071
   114  C    0.033611
   115  C    0.152410
   116  C    0.142391
   117  C    0.016837
   118  O   -0.185504
   119  C    0.043702
   120  C    0.222902
   121  O   -0.216258
   122  O   -0.330541
   123  C    0.180924
   124  H   -0.023178
   125  H   -0.052892
   126  H   -0.027718
   127  H   -0.005420
   128  H   -0.000974
   129  H    0.021908
   130  H    0.016671
   131  H    0.032473
   132  H    0.009266
   133  H    0.031028
   134  H    0.028416
   135  H    0.036456
   136  H    0.032392
   137  H   -0.008062
   138  H    0.027814
   139  H    0.050248
   140  H    0.014335
   141  H    0.046695
   142  H    0.006319
   143  H    0.001066
   144  H    0.023599
   145  H    0.019679
   146  H    0.008028
   147  H    0.019316
   148  H   -0.007892
   149  H    0.021728
   150  H    0.005540
   151  H    0.020090
   152  H    0.015904
   153  H    0.033759
   154  H    0.041401
   155  H    0.030972
   156  H    0.024209
   157  H    0.031448
   158  H    0.036174
 Sum of Mulliken charges =  -0.00000

 Dipole moment (field-independent basis, Debye):
    X=             -3.7049    Y=              4.1050    Z=             -3.0991  Tot=              6.3389
 Quadrupole moment (field-independent basis, Debye-Ang):
   XX=           -436.8140   YY=           -505.6889   ZZ=           -509.6899
   XY=             38.6827   XZ=             31.9995   YZ=             -3.4261

 Normal termination of Gaussian 16 at Thu Sep  2 15:42:40 2021.
