 Gaussian 16, Revision A.03,
 Gaussian 16:  ES64L-G16RevA.03 25-Dec-2016

 -----------------------------------
 #p cam-b3lyp/Def2SVP td=(nstates=5)
 -----------------------------------

 --------------------------------
 TDDFT excited states in gaussian
 --------------------------------
 Symbolic Z-matrix:
 Charge =  0 Multiplicity = 1

                         Standard orientation:
 ---------------------------------------------------------------------
 Center     Atomic      Atomic             Coordinates (Angstroms)
 Number     Number       Type             X           Y           Z
 ---------------------------------------------------------------------
      1         12           0       26.333214   -0.883493    0.055082
      2          6           0       26.965651    2.428158   -0.977953
      3          6           0       25.843324    0.291819    3.247269
      4          6           0       25.795623   -4.017994    1.135093
      5          6           0       27.399806   -2.082656   -3.054191
      6          7           0       26.285957    1.135910    0.892376
      7          6           0       26.540949    2.341666    0.392456
      8          6           0       26.404393    3.533498    1.362744
      9          6           0       26.334945    2.673084    2.715917
     10          6           0       26.187929    1.244326    2.252571
     11          6           0       27.536385    2.852199    3.611905
     12          6           0       25.075528    4.442941    1.124842
     13          6           0       25.245509    5.889962    1.596740
     14          1           0       25.096327    6.945767    0.471178
     15          7           0       25.711104   -1.769868    1.920892
     16          6           0       25.617610   -1.067666    3.147987
     17          6           0       24.982838   -1.961335    4.090404
     18          6           0       24.932379   -3.220669    3.499535
     19          6           0       25.471713   -3.063759    2.112346
     20          6           0       24.681364   -1.595426    5.531468
     21          6           0       24.398887   -4.543264    4.000425
     22          8           0       24.388140   -5.493129    3.273125
     23          6           0       23.806237   -4.695766    5.365727
     24          7           0       26.743681   -2.787256   -0.740082
     25          6           0       26.361823   -3.946705   -0.130505
     26          6           0       26.650491   -5.088512   -1.144262
     27          6           0       26.587994   -4.454793   -2.522456
     28          6           0       26.957071   -3.002704   -2.137760
     29          6           0       28.056734   -5.635357   -0.902843
     30          6           0       25.281982   -4.596087   -3.212657
     31          6           0       24.013857   -4.298636   -2.451428
     32          7           0       27.014332   -0.055737   -1.703790
     33          6           0       27.424467   -0.638165   -2.888293
     34          6           0       27.801592    0.424524   -3.833058
     35          6           0       27.607454    1.621988   -3.122798
     36          6           0       27.144353    1.286446   -1.879847
     37          6           0       28.318379    0.238123   -5.193988
     38          6           0       27.563005    3.056338   -3.220578
     39          8           0       27.795012    3.827694   -4.197385
     40          6           0       27.100322    3.615237   -1.792781
     41          6           0       28.229153    4.476028   -1.287705
     42          8           0       29.371062    4.123090   -1.301102
     43          8           0       27.845095    5.726065   -0.731078
     44          6           0       28.908076    6.425191    0.053215
     45          1           0       25.735073    0.638127    4.276660
     46          1           0       25.729934   -5.054591    1.473224
     47          1           0       27.575279   -2.371947   -4.092702
     48          1           0       27.252511    4.209235    1.245556
     49          1           0       25.437745    3.043931    3.213039
     50          1           0       27.246126    3.587135    4.362545
     51          1           0       28.444939    3.092969    3.059538
     52          1           0       27.586788    1.916204    4.168112
     53          1           0       24.233857    4.018025    1.672655
     54          1           0       24.775436    4.416978    0.077093
     55          1           0       26.236253    5.853268    2.050178
     56          1           0       24.581915    6.131990    2.426680
     57          1           0       24.687465   -0.506112    5.536527
     58          1           0       25.573426   -1.935846    6.056470
     59          1           0       23.711814   -1.968385    5.862208
     60          1           0       22.874880   -4.149415    5.215827
     61          1           0       24.372425   -4.215442    6.163279
     62          1           0       23.642768   -5.749844    5.592608
     63          1           0       25.995473   -5.955625   -1.066999
     64          1           0       27.285997   -4.860070   -3.254264
     65          1           0       28.873120   -5.339464   -1.561758
     66          1           0       27.989019   -6.722952   -0.926198
     67          1           0       28.347006   -5.374193    0.115456
     68          1           0       25.169699   -5.577665   -3.673698
     69          1           0       25.343703   -3.881379   -4.033106
     70          1           0       23.607648   -3.392298   -2.901397
     71          1           0       23.980325   -4.127234   -1.375102
     72          1           0       23.297042   -5.090266   -2.669024
     73          1           0       29.325160   -0.172874   -5.120099
     74          1           0       28.261185    1.235409   -5.630019
     75          1           0       27.734358   -0.499794   -5.745629
     76          1           0       26.158163    4.125632   -1.993469
     77          1           0       29.619278    6.905579   -0.618665
     78          1           0       29.452832    5.761119    0.725843
     79          1           0       28.577439    7.268350    0.659057
     80         12           0      -27.056846   -0.360736   -0.368558
     81          6           0      -25.138948    2.560404   -0.472236
     82          6           0      -28.347626    0.725545    2.641527
     83          6           0      -28.395784   -3.459843    0.135271
     84          6           0      -25.197885   -1.585866   -3.021161
     85          7           0      -26.811069    1.457672    0.823001
     86          6           0      -26.157936    2.573896    0.475469
     87          6           0      -26.481333    3.801789    1.339229
     88          6           0      -27.378419    3.160690    2.466453
     89          6           0      -27.638699    1.648997    1.916758
     90          6           0      -26.817103    3.165621    3.904714
     91          6           0      -27.147501    4.953547    0.586235
     92          6           0      -26.889366    6.329300    1.227132
     93          1           0      -26.052745    6.414472    2.511542
     94          7           0      -28.296801   -1.228978    1.096629
     95          6           0      -28.787463   -0.586263    2.256602
     96          6           0      -29.656980   -1.511092    2.955641
     97          6           0      -29.634121   -2.780659    2.266441
     98          6           0      -28.790063   -2.529548    1.099329
     99          6           0      -30.470234   -1.065544    4.139692
    100          6           0      -30.454227   -4.120841    2.537898
    101          8           0      -30.448251   -5.073564    1.796699
    102          6           0      -31.260322   -4.165609    3.817844
    103          7           0      -26.760815   -2.256136   -1.239242
    104          6           0      -27.447685   -3.385171   -0.900746
    105          6           0      -27.093364   -4.601208   -1.833701
    106          6           0      -26.148095   -3.940918   -2.836025
    107          6           0      -26.029373   -2.516692   -2.327008
    108          6           0      -26.588913   -5.978453   -1.241306
    109          6           0      -26.719658   -4.005697   -4.271794
    110          6           0      -27.760381   -2.951223   -4.709270
    111          7           0      -25.569927    0.337361   -1.668392
    112          6           0      -24.904183   -0.265639   -2.703932
    113          6           0      -23.958552    0.620278   -3.295762
    114          6           0      -23.998448    1.800047   -2.424697
    115          6           0      -24.934226    1.550490   -1.497916
    116          6           0      -23.078903    0.471448   -4.457189
    117          6           0      -23.365416    3.072280   -2.105828
    118          8           0      -22.512161    3.713022   -2.728899
    119          6           0      -24.062647    3.644816   -0.836703
    120          6           0      -23.104543    3.889322    0.236553
    121          8           0      -22.616622    3.041254    0.976118
    122          8           0      -22.653719    5.182651    0.150680
    123          6           0      -21.400930    5.567243    0.829420
    124          1           0      -28.682815    1.138745    3.595354
    125          1           0      -28.958463   -4.394551    0.181188
    126          1           0      -24.678677   -1.932554   -3.917045
    127          1           0      -25.602716    4.155783    1.878034
    128          1           0      -28.398826    3.542126    2.476501
    129          1           0      -27.648688    3.629470    4.434900
    130          1           0      -25.921207    3.782924    3.966678
    131          1           0      -26.584135    2.150869    4.227596
    132          1           0      -28.221168    4.805051    0.477467
    133          1           0      -26.772103    5.000289   -0.436365
    134          1           0      -27.913002    6.661358    1.401592
    135          1           0      -26.510210    7.051183    0.502376
    136          1           0      -30.091045   -0.076222    4.395992
    137          1           0      -30.332700   -1.777994    4.953358
    138          1           0      -31.540395   -1.023856    3.931431
    139          1           0      -30.708915   -4.307821    4.747836
    140          1           0      -32.028550   -4.929472    3.697730
    141          1           0      -31.740839   -3.187328    3.810923
    142          1           0      -28.071544   -4.816075   -2.263328
    143          1           0      -25.205145   -4.482392   -2.769305
    144          1           0      -25.699685   -6.382980   -1.723324
    145          1           0      -27.367629   -6.721913   -1.408524
    146          1           0      -26.472035   -5.850991   -0.164700
    147          1           0      -27.134170   -5.008343   -4.369347
    148          1           0      -25.842844   -3.958405   -4.918266
    149          1           0      -28.496307   -3.517500   -5.279529
    150          1           0      -27.353688   -2.195710   -5.381113
    151          1           0      -28.188855   -2.375291   -3.889775
    152          1           0      -23.099241    1.411212   -5.007927
    153          1           0      -23.325457   -0.346996   -5.133617
    154          1           0      -22.039267    0.429182   -4.131924
    155          1           0      -24.540269    4.558589   -1.189937
    156          1           0      -20.975809    4.745159    1.406273
    157          1           0      -21.637240    6.369412    1.528982
    158          1           0      -20.787087    5.854701   -0.023473
 ---------------------------------------------------------------------

 SCF Done:  E(RCAM-B3LYP) =  -4069.81860273     A.U. after   19 cycles

 Excitation energies and oscillator strengths:

 Excited State   1:      Singlet-A      1.6958 eV  731.13 nm  f=0.3665  <S**2>=0.000
     309 -> 315        0.17411
     311 -> 313        0.68769
     309 <- 315        0.10610
 This state for optimization and/or second-order correction.
 Total Energy, E(TD-HF/TD-DFT) =  -4069.75628329
 Copying the excited state density for this state as the 1-particle RhoCI density.

 Excited State   2:      Singlet-A      1.7177 eV  721.80 nm  f=0.4144  <S**2>=0.000
     310 -> 316       -0.18152
     312 -> 314        0.68398
     310 <- 316       -0.10677

 Excited State   3:      Singlet-A      2.1355 eV  580.60 nm  f=0.1570  <S**2>=0.000
     310 -> 314        0.65932
     312 -> 316        0.23565

 Excited State   4:      Singlet-A      2.1842 eV  567.65 nm  f=0.1188  <S**2>=0.000
     309 -> 313        0.64719
     311 -> 315       -0.27033

 Excited State   5:      Singlet-A      3.1894 eV  388.74 nm  f=0.0000  <S**2>=0.000
     312 -> 313        0.70711

 The electronic state is 1-A.
 Alpha  occ. eigenvalues --  -46.88617 -46.88249 -19.24492 -19.23882 -19.20037
 Alpha  occ. eigenvalues --  -19.19949 -19.19075 -19.18993 -19.18711 -19.18234
 Alpha  occ. eigenvalues --  -14.43408 -14.42285 -14.41898 -14.41334 -14.39700
 Alpha  occ. eigenvalues --  -14.39436 -14.39049 -14.38169 -10.39391 -10.38690
 Alpha  occ. eigenvalues --  -10.36193 -10.35180 -10.35091 -10.34734 -10.31844
 Alpha  occ. eigenvalues --  -10.31677 -10.31265 -10.31176 -10.31114 -10.30942
 Alpha  occ. eigenvalues --  -10.30891 -10.30885 -10.30715 -10.30678 -10.30602
 Alpha  occ. eigenvalues --  -10.30512 -10.30324 -10.29876 -10.29431 -10.29382
 Alpha  occ. eigenvalues --  -10.28880 -10.28858 -10.28850 -10.28797 -10.28581
 Alpha  occ. eigenvalues --  -10.28380 -10.28360 -10.28303 -10.28277 -10.28236
 Alpha  occ. eigenvalues --  -10.28193 -10.28159 -10.28121 -10.28117 -10.27782
 Alpha  occ. eigenvalues --  -10.27668 -10.27580 -10.27576 -10.27522 -10.27427
 Alpha  occ. eigenvalues --  -10.27218 -10.27130 -10.27119 -10.27113 -10.27007
 Alpha  occ. eigenvalues --  -10.26953 -10.26918 -10.26687 -10.26644 -10.26597
 Alpha  occ. eigenvalues --  -10.26582 -10.26410 -10.26350 -10.26328 -10.25989
 Alpha  occ. eigenvalues --  -10.25924 -10.25855 -10.25803 -10.25614 -10.25476
 Alpha  occ. eigenvalues --  -10.25389 -10.25110 -10.25100 -10.24764 -10.24454
 Alpha  occ. eigenvalues --  -10.24419  -3.17112  -3.16774  -1.92034  -1.91675
 Alpha  occ. eigenvalues --   -1.91543  -1.91428  -1.91226  -1.91080  -1.15607
 Alpha  occ. eigenvalues --   -1.15097  -1.12110  -1.11587  -1.08872  -1.07374
 Alpha  occ. eigenvalues --   -1.06652  -1.06648  -1.05291  -1.04455  -1.03532
 Alpha  occ. eigenvalues --   -1.03334  -1.02929  -1.02453  -1.01762  -1.01027
 Alpha  occ. eigenvalues --   -0.92945  -0.92081  -0.90042  -0.89433  -0.89187
 Alpha  occ. eigenvalues --   -0.88827  -0.88814  -0.88145  -0.87842  -0.87101
 Alpha  occ. eigenvalues --   -0.86929  -0.86465  -0.86214  -0.86094  -0.84701
 Alpha  occ. eigenvalues --   -0.84208  -0.83566  -0.83445  -0.82623  -0.82468
 Alpha  occ. eigenvalues --   -0.82345  -0.81971  -0.81107  -0.81007  -0.80178
 Alpha  occ. eigenvalues --   -0.79917  -0.78906  -0.78134  -0.77341  -0.77146
 Alpha  occ. eigenvalues --   -0.77100  -0.76846  -0.76279  -0.75908  -0.75020
 Alpha  occ. eigenvalues --   -0.74984  -0.72452  -0.72438  -0.71327  -0.71100
 Alpha  occ. eigenvalues --   -0.69825  -0.69698  -0.68844  -0.68455  -0.67837
 Alpha  occ. eigenvalues --   -0.67693  -0.67117  -0.66085  -0.65824  -0.64934
 Alpha  occ. eigenvalues --   -0.64773  -0.64708  -0.64449  -0.64198  -0.63733
 Alpha  occ. eigenvalues --   -0.63403  -0.61763  -0.61408  -0.60378  -0.59934
 Alpha  occ. eigenvalues --   -0.59778  -0.59140  -0.59098  -0.59090  -0.58976
 Alpha  occ. eigenvalues --   -0.58603  -0.58324  -0.57674  -0.57588  -0.57417
 Alpha  occ. eigenvalues --   -0.56390  -0.55863  -0.55756  -0.55444  -0.55178
 Alpha  occ. eigenvalues --   -0.54781  -0.54668  -0.54536  -0.54084  -0.53975
 Alpha  occ. eigenvalues --   -0.53713  -0.53713  -0.53610  -0.53356  -0.53039
 Alpha  occ. eigenvalues --   -0.52875  -0.52687  -0.52430  -0.52333  -0.52141
 Alpha  occ. eigenvalues --   -0.51983  -0.51876  -0.51627  -0.51618  -0.51523
 Alpha  occ. eigenvalues --   -0.50836  -0.50810  -0.50728  -0.50644  -0.50230
 Alpha  occ. eigenvalues --   -0.50198  -0.50005  -0.49687  -0.49676  -0.49589
 Alpha  occ. eigenvalues --   -0.49581  -0.49374  -0.49204  -0.49070  -0.49067
 Alpha  occ. eigenvalues --   -0.49009  -0.48549  -0.48296  -0.48238  -0.48216
 Alpha  occ. eigenvalues --   -0.48135  -0.47729  -0.47645  -0.47630  -0.47171
 Alpha  occ. eigenvalues --   -0.47119  -0.46753  -0.46704  -0.46350  -0.46263
 Alpha  occ. eigenvalues --   -0.46132  -0.45873  -0.45832  -0.45653  -0.45553
 Alpha  occ. eigenvalues --   -0.45400  -0.45253  -0.45215  -0.45035  -0.44952
 Alpha  occ. eigenvalues --   -0.44649  -0.44315  -0.44274  -0.44165  -0.43973
 Alpha  occ. eigenvalues --   -0.43727  -0.43648  -0.43498  -0.43412  -0.43193
 Alpha  occ. eigenvalues --   -0.43150  -0.43102  -0.43063  -0.42846  -0.42795
 Alpha  occ. eigenvalues --   -0.42680  -0.42519  -0.42461  -0.42370  -0.41934
 Alpha  occ. eigenvalues --   -0.41818  -0.41553  -0.41505  -0.41104  -0.41038
 Alpha  occ. eigenvalues --   -0.40925  -0.40892  -0.40620  -0.40374  -0.40267
 Alpha  occ. eigenvalues --   -0.40237  -0.39921  -0.39741  -0.39518  -0.38521
 Alpha  occ. eigenvalues --   -0.38397  -0.38339  -0.37847  -0.37711  -0.37695
 Alpha  occ. eigenvalues --   -0.37280  -0.37123  -0.36634  -0.36425  -0.36189
 Alpha  occ. eigenvalues --   -0.36128  -0.35680  -0.34678  -0.34514  -0.34325
 Alpha  occ. eigenvalues --   -0.33808  -0.33281  -0.33201  -0.31708  -0.31609
 Alpha  occ. eigenvalues --   -0.31364  -0.30889  -0.30823  -0.30309  -0.30004
 Alpha  occ. eigenvalues --   -0.29610  -0.29324  -0.28660  -0.24138  -0.23519
 Alpha  occ. eigenvalues --   -0.21382  -0.21323
 Alpha virt. eigenvalues --   -0.08956  -0.08919  -0.01733  -0.01317   0.00442
 Alpha virt. eigenvalues --    0.00597   0.02178   0.02486   0.02606   0.03267
 Alpha virt. eigenvalues --    0.04658   0.05135   0.05305   0.05325   0.05623

 Mulliken charges:
               1
     1  Mg   0.813783
     2  C   -0.040336
     3  C   -0.100311
     4  C   -0.056121
     5  C   -0.065207
     6  N   -0.248678
     7  C   -0.044820
     8  C   -0.042240
     9  C   -0.088363
    10  C    0.097207
    11  C    0.104630
    12  C    0.047560
    13  C   -0.047324
    14  H    0.045022
    15  N   -0.365832
    16  C    0.130081
    17  C   -0.165497
    18  C   -0.010039
    19  C    0.116018
    20  C    0.118461
    21  C   -0.027539
    22  O   -0.177937
    23  C    0.053326
    24  N   -0.336449
    25  C    0.059182
    26  C   -0.036022
    27  C    0.001082
    28  C    0.092586
    29  C    0.078985
    30  C    0.053792
    31  C   -0.013975
    32  N   -0.352984
    33  C    0.068153
    34  C   -0.192110
    35  C    0.046561
    36  C    0.100716
    37  C    0.125866
    38  C    0.023007
    39  O   -0.217224
    40  C    0.037679
    41  C    0.193545
    42  O   -0.181822
    43  O   -0.372694
    44  C    0.178961
    45  H   -0.015781
    46  H   -0.006741
    47  H   -0.026813
    48  H    0.020214
    49  H    0.010242
    50  H    0.008607
    51  H    0.034968
    52  H    0.001623
    53  H    0.003188
    54  H    0.019056
    55  H    0.008176
    56  H    0.020940
    57  H    0.008450
    58  H    0.052483
    59  H    0.037134
    60  H    0.038128
    61  H    0.030876
    62  H    0.035323
    63  H   -0.003200
    64  H   -0.009963
    65  H    0.023915
    66  H    0.009688
    67  H    0.009326
    68  H    0.006471
    69  H   -0.008900
    70  H    0.008047
    71  H    0.038120
    72  H    0.006353
    73  H    0.030645
    74  H    0.042264
    75  H    0.013584
    76  H    0.046823
    77  H    0.037688
    78  H    0.032989
    79  H    0.033397
    80  Mg   0.823071
    81  C    0.006420
    82  C   -0.075179
    83  C   -0.064060
    84  C   -0.084813
    85  N   -0.287779
    86  C   -0.049496
    87  C   -0.003280
    88  C   -0.105779
    89  C    0.045294
    90  C    0.081860
    91  C    0.056996
    92  C   -0.056538
    93  H    0.033367
    94  N   -0.398856
    95  C    0.148740
    96  C   -0.158253
    97  C   -0.054709
    98  C    0.106836
    99  C    0.107917
   100  C    0.035164
   101  O   -0.175847
   102  C    0.039519
   103  N   -0.264175
   104  C    0.020580
   105  C   -0.037466
   106  C    0.004157
   107  C    0.026915
   108  C    0.071300
   109  C    0.003277
   110  C    0.023089
   111  N   -0.363408
   112  C    0.130884
   113  C   -0.149191
   114  C    0.007040
   115  C    0.102511
   116  C    0.128403
   117  C    0.019661
   118  O   -0.185031
   119  C    0.009761
   120  C    0.206552
   121  O   -0.224811
   122  O   -0.347447
   123  C    0.165995
   124  H   -0.022146
   125  H   -0.007200
   126  H   -0.041544
   127  H    0.017789
   128  H    0.005506
   129  H    0.018278
   130  H    0.021351
   131  H    0.034498
   132  H    0.006340
   133  H    0.007296
   134  H    0.018430
   135  H    0.031228
   136  H    0.004034
   137  H    0.025178
   138  H    0.045407
   139  H    0.059595
   140  H    0.027317
   141  H    0.011661
   142  H    0.014068
   143  H    0.008365
   144  H    0.018918
   145  H    0.013851
   146  H    0.029131
   147  H    0.005410
   148  H    0.006367
   149  H    0.017088
   150  H    0.014997
   151  H    0.026892
   152  H    0.029757
   153  H    0.012636
   154  H    0.034337
   155  H    0.043373
   156  H    0.050311
   157  H    0.036872
   158  H    0.055426
 Sum of Mulliken charges =  -0.00000

 Dipole moment (field-independent basis, Debye):
    X=             -6.1587    Y=             -0.8677    Z=              7.4053  Tot=              9.6706
 Quadrupole moment (field-independent basis, Debye-Ang):
   XX=           -471.1434   YY=           -510.4381   ZZ=           -481.5280
   XY=            -72.9698   XZ=            138.8343   YZ=             54.4786

 Normal termination of Gaussian 16 at Tue Sep 14 16:47:39 2021.
