 Gaussian 16, Revision A.03,
 Gaussian 16:  ES64L-G16RevA.03 25-Dec-2016

 ----------------------------------------------------------
 #p cam-b3lyp/Def2SVP td=(nstates=5) density=(transition=1)
 ----------------------------------------------------------

 --------------------------------
 TDDFT excited states in gaussian
 --------------------------------
 Symbolic Z-matrix:
 Charge =  0 Multiplicity = 1

                         Standard orientation:
 ---------------------------------------------------------------------
 Center     Atomic      Atomic             Coordinates (Angstroms)
 Number     Number       Type             X           Y           Z
 ---------------------------------------------------------------------
      1         12           0        8.380500    0.509738    0.090219
      2          6           0        6.845084   -1.843746   -2.096273
      3          6           0        7.536795    3.029951   -2.070668
      4          6           0        8.907890    2.824429    2.661429
      5          6           0        8.680587   -2.028412    2.501901
      6          7           0        7.028617    0.513657   -1.813533
      7          6           0        6.743312   -0.528041   -2.611789
      8          6           0        6.501805   -0.027431   -4.024103
      9          6           0        6.653395    1.569425   -4.022206
     10          6           0        7.261736    1.677530   -2.533313
     11          6           0        7.647292    1.976293   -5.133244
     12          6           0        5.139156   -0.472049   -4.530649
     13          6           0        3.979356   -0.472481   -3.506612
     14          1           0        2.911363    0.645169   -3.656710
     15          7           0        8.327496    2.682997    0.257512
     16          6           0        7.926524    3.488636   -0.785970
     17          6           0        8.188463    4.828777   -0.363612
     18          6           0        8.503280    4.853370    1.048450
     19          6           0        8.646994    3.418881    1.403928
     20          6           0        7.893583    6.028972   -1.233258
     21          6           0        8.527070    6.062407    1.984965
     22          8           0        8.226635    7.163292    1.565084
     23          6           0        8.875491    5.979949    3.371755
     24          7           0        8.641941    0.429825    2.290725
     25          6           0        8.976687    1.474352    3.033766
     26          6           0        9.203278    1.126445    4.496004
     27          6           0        8.758287   -0.399083    4.477116
     28          6           0        8.747724   -0.728405    3.027935
     29          6           0       10.717462    1.339620    4.988012
     30          6           0        7.373723   -0.587413    5.252180
     31          6           0        7.323980   -1.334944    6.554577
     32          7           0        8.124078   -1.483160    0.135172
     33          6           0        8.408985   -2.414424    1.154518
     34          6           0        8.201572   -3.792717    0.672518
     35          6           0        7.625645   -3.566123   -0.577411
     36          6           0        7.462118   -2.164220   -0.856184
     37          6           0        8.622996   -5.154266    1.325625
     38          6           0        7.065202   -4.283619   -1.726968
     39          8           0        6.939615   -5.489633   -1.996527
     40          6           0        6.555813   -3.224131   -2.759061
     41          6           0        5.102365   -3.551110   -2.757015
     42          8           0        4.386293   -3.532899   -1.788871
     43          8           0        4.732719   -3.992419   -3.955901
     44          6           0        3.283193   -4.302927   -4.213562
     45          1           0        7.548364    3.783842   -2.860397
     46          1           0        9.161130    3.426616    3.536250
     47          1           0        8.703512   -2.716061    3.350506
     48          1           0        7.301079   -0.575777   -4.522733
     49          1           0        5.696767    2.080826   -4.132404
     50          1           0        7.126571    2.633745   -5.829165
     51          1           0        8.024611    1.145335   -5.729821
     52          1           0        8.435929    2.538327   -4.633693
     53          1           0        5.210866   -1.485272   -4.926139
     54          1           0        4.789808    0.192512   -5.321386
     55          1           0        4.224705   -0.279882   -2.462284
     56          1           0        3.520756   -1.454942   -3.619254
     57          1           0        7.432258    5.741641   -2.178443
     58          1           0        8.817034    6.601373   -1.327454
     59          1           0        7.257332    6.697730   -0.654620
     60          1           0        8.198785    5.389823    3.990126
     61          1           0        8.895189    6.982930    3.797640
     62          1           0        9.847522    5.486317    3.344233
     63          1           0        8.511590    1.615623    5.181373
     64          1           0        9.501386   -0.840794    5.141284
     65          1           0       11.305555    1.770912    4.177402
     66          1           0       11.126329    0.352412    5.204134
     67          1           0       10.846396    1.918667    5.903742
     68          1           0        6.679419   -1.199539    4.676439
     69          1           0        6.899749    0.374227    5.444063
     70          1           0        6.958749   -2.357869    6.462957
     71          1           0        6.597307   -0.719098    7.085488
     72          1           0        8.207132   -1.220458    7.183313
     73          1           0        7.926333   -5.359835    2.137879
     74          1           0        9.664062   -5.052260    1.632454
     75          1           0        8.477359   -5.946012    0.590981
     76          1           0        7.100183   -3.421511   -3.683264
     77          1           0        3.004910   -5.310313   -3.903155
     78          1           0        3.041577   -4.204317   -5.272644
     79          1           0        2.735506   -3.544476   -3.654224
     80         12           0       -8.173396    0.170832   -0.018778
     81          6           0       -5.552620   -2.085689   -0.349754
     82          6           0       -6.458398    2.180100   -2.266288
     83          6           0      -10.447840    2.603899    0.669208
     84          6           0       -9.625993   -1.907561    2.331996
     85          7           0       -6.197469    0.075081   -1.130427
     86          6           0       -5.286261   -0.969874   -1.150029
     87          6           0       -3.993612   -0.672695   -2.007127
     88          6           0       -4.227457    0.855257   -2.323914
     89          6           0       -5.709316    1.089586   -1.850595
     90          6           0       -3.331276    1.935603   -1.711364
     91          6           0       -3.909730   -1.617171   -3.220205
     92          6           0       -2.867461   -2.703290   -3.173533
     93          1           0       -2.165944   -3.048749   -4.499089
     94          7           0       -8.568348    2.044212   -0.814447
     95          6           0       -7.778328    2.610208   -1.765863
     96          6           0       -8.376630    3.931785   -2.037639
     97          6           0       -9.449789    4.131884   -1.155325
     98          6           0       -9.559813    2.945524   -0.398829
     99          6           0       -7.912696    4.756178   -3.169243
    100          6           0      -10.329782    5.331403   -0.958587
    101          8           0      -11.337999    5.337599   -0.198934
    102          6           0      -10.102553    6.597820   -1.580695
    103          7           0       -9.808651    0.296637    1.216116
    104          6           0      -10.617484    1.386857    1.314874
    105          6           0      -11.712044    1.225416    2.294939
    106          6           0      -11.505416   -0.247038    2.801900
    107          6           0      -10.230986   -0.603533    2.133652
    108          6           0      -11.941020    2.200239    3.487340
    109          6           0      -12.748818   -1.239391    2.566048
    110          6           0      -12.986619   -2.001730    1.228727
    111          7           0       -7.729701   -1.598205    0.883402
    112          6           0       -8.425299   -2.345055    1.790097
    113          6           0       -7.834272   -3.603504    1.932231
    114          6           0       -6.624605   -3.483914    1.145350
    115          6           0       -6.636579   -2.256175    0.513920
    116          6           0       -8.354910   -4.803664    2.720892
    117          6           0       -5.511132   -4.261854    0.683317
    118          8           0       -5.169458   -5.420242    0.808787
    119          6           0       -4.633075   -3.262324   -0.148296
    120          6           0       -3.415921   -2.912428    0.610498
    121          8           0       -3.135630   -1.792077    1.090606
    122          8           0       -2.560654   -3.940438    0.802276
    123          6           0       -1.185246   -3.672126    1.345010
    124          1           0       -5.883249    2.834549   -2.923617
    125          1           0      -11.184343    3.355761    0.960921
    126          1           0      -10.108002   -2.686068    2.927855
    127          1           0       -3.101158   -0.583719   -1.386799
    128          1           0       -4.195235    0.933607   -3.410573
    129          1           0       -3.890700    2.516631   -0.977800
    130          1           0       -3.155623    2.664035   -2.501594
    131          1           0       -2.401243    1.579393   -1.267013
    132          1           0       -3.632626   -0.975620   -4.057523
    133          1           0       -4.910726   -1.998022   -3.422834
    134          1           0       -3.357802   -3.609580   -2.817165
    135          1           0       -2.063046   -2.553189   -2.453337
    136          1           0       -8.778217    4.838270   -3.825422
    137          1           0       -7.055311    4.430022   -3.759398
    138          1           0       -7.658242    5.754143   -2.812375
    139          1           0       -9.033614    6.780240   -1.473442
    140          1           0      -10.819437    7.337587   -1.226774
    141          1           0      -10.215745    6.529884   -2.662701
    142          1           0      -12.561051    1.295228    1.615555
    143          1           0      -11.284445   -0.232021    3.868512
    144          1           0      -12.876132    2.752068    3.391270
    145          1           0      -11.157555    2.957421    3.533247
    146          1           0      -11.901671    1.711131    4.460579
    147          1           0      -13.597841   -0.563814    2.672395
    148          1           0      -12.654852   -1.883216    3.440684
    149          1           0      -12.171194   -1.946865    0.507959
    150          1           0      -13.952562   -1.839123    0.749746
    151          1           0      -13.091710   -3.038390    1.546015
    152          1           0       -7.632461   -5.149156    3.461095
    153          1           0       -8.477727   -5.627765    2.018317
    154          1           0       -9.336371   -4.658184    3.172959
    155          1           0       -4.235686   -3.813654   -1.000653
    156          1           0       -0.751873   -4.636644    1.080077
    157          1           0       -1.142907   -3.459667    2.412760
    158          1           0       -0.737139   -2.833206    0.811648
 ---------------------------------------------------------------------

 SCF Done:  E(RCAM-B3LYP) =  -4069.77607795     A.U. after   19 cycles

 Excitation energies and oscillator strengths:

 Excited State   1:      Singlet-A      1.6859 eV  735.43 nm  f=0.1303  <S**2>=0.000
     309 -> 315        0.18555
     311 -> 313        0.63222
     312 -> 314        0.25416
     309 <- 315        0.10656
 This state for optimization and/or second-order correction.
 Total Energy, E(TD-HF/TD-DFT) =  -4069.71412346
 Copying the excited state density for this state as the 1-particle RhoCI density.

 Excited State   2:      Singlet-A      1.7063 eV  726.62 nm  f=0.5838  <S**2>=0.000
     310 -> 316       -0.16516
     311 -> 313       -0.25178
     312 -> 314        0.63582

 Excited State   3:      Singlet-A      2.1995 eV  563.70 nm  f=0.0719  <S**2>=0.000
     309 -> 313        0.59386
     310 -> 314       -0.18426
     311 -> 315       -0.31592

 Excited State   4:      Singlet-A      2.2074 eV  561.67 nm  f=0.1446  <S**2>=0.000
     309 -> 313        0.17279
     310 -> 314        0.62443
     312 -> 316        0.25074

 Excited State   5:      Singlet-A      2.7383 eV  452.78 nm  f=0.0000  <S**2>=0.000
     312 -> 313        0.70695

 The electronic state is 1-A.
 Alpha  occ. eigenvalues --  -46.90313 -46.87416 -19.25215 -19.23742 -19.19013
 Alpha  occ. eigenvalues --  -19.18955 -19.18155 -19.18079 -19.18000 -19.17855
 Alpha  occ. eigenvalues --  -14.42540 -14.42070 -14.41892 -14.41745 -14.40241
 Alpha  occ. eigenvalues --  -14.39639 -14.39420 -14.38241 -10.38876 -10.38282
 Alpha  occ. eigenvalues --  -10.35072 -10.34421 -10.34407 -10.34030 -10.32589
 Alpha  occ. eigenvalues --  -10.32120 -10.31552 -10.31504 -10.31076 -10.31025
 Alpha  occ. eigenvalues --  -10.30835 -10.30830 -10.30797 -10.30700 -10.30476
 Alpha  occ. eigenvalues --  -10.30344 -10.30059 -10.30012 -10.29953 -10.29911
 Alpha  occ. eigenvalues --  -10.28964 -10.28915 -10.28859 -10.28848 -10.28619
 Alpha  occ. eigenvalues --  -10.28500 -10.28446 -10.28254 -10.28226 -10.28204
 Alpha  occ. eigenvalues --  -10.28170 -10.28162 -10.28016 -10.27986 -10.27741
 Alpha  occ. eigenvalues --  -10.27706 -10.27615 -10.27534 -10.27493 -10.27286
 Alpha  occ. eigenvalues --  -10.27140 -10.27130 -10.27111 -10.27065 -10.27061
 Alpha  occ. eigenvalues --  -10.27006 -10.26998 -10.26861 -10.26818 -10.26785
 Alpha  occ. eigenvalues --  -10.26764 -10.26639 -10.26587 -10.26478 -10.26315
 Alpha  occ. eigenvalues --  -10.26208 -10.25886 -10.25829 -10.25827 -10.25778
 Alpha  occ. eigenvalues --  -10.25709 -10.25642 -10.25578 -10.25562 -10.25151
 Alpha  occ. eigenvalues --  -10.24489  -3.18620  -3.16131  -1.93484  -1.93107
 Alpha  occ. eigenvalues --   -1.92897  -1.91042  -1.90590  -1.90435  -1.17208
 Alpha  occ. eigenvalues --   -1.14834  -1.10299  -1.09376  -1.08924  -1.07854
 Alpha  occ. eigenvalues --   -1.07849  -1.04923  -1.04693  -1.04660  -1.03966
 Alpha  occ. eigenvalues --   -1.03789  -1.03119  -1.02500  -1.02113  -1.01702
 Alpha  occ. eigenvalues --   -0.92939  -0.92056  -0.89040  -0.88953  -0.88919
 Alpha  occ. eigenvalues --   -0.88349  -0.88339  -0.88192  -0.87467  -0.87194
 Alpha  occ. eigenvalues --   -0.86889  -0.86214  -0.85984  -0.85452  -0.84793
 Alpha  occ. eigenvalues --   -0.84260  -0.84118  -0.83484  -0.82945  -0.82739
 Alpha  occ. eigenvalues --   -0.82704  -0.82348  -0.81203  -0.80848  -0.80364
 Alpha  occ. eigenvalues --   -0.80354  -0.78442  -0.77991  -0.77452  -0.77379
 Alpha  occ. eigenvalues --   -0.76730  -0.76480  -0.76432  -0.75986  -0.75185
 Alpha  occ. eigenvalues --   -0.75064  -0.72998  -0.72954  -0.71824  -0.71213
 Alpha  occ. eigenvalues --   -0.70005  -0.69028  -0.68660  -0.68595  -0.68247
 Alpha  occ. eigenvalues --   -0.67885  -0.66991  -0.66781  -0.65661  -0.65317
 Alpha  occ. eigenvalues --   -0.65083  -0.64967  -0.64860  -0.64460  -0.64226
 Alpha  occ. eigenvalues --   -0.64142  -0.62536  -0.61218  -0.60374  -0.59853
 Alpha  occ. eigenvalues --   -0.59515  -0.59371  -0.59079  -0.59001  -0.58813
 Alpha  occ. eigenvalues --   -0.58473  -0.57903  -0.57600  -0.57375  -0.57185
 Alpha  occ. eigenvalues --   -0.56444  -0.56062  -0.55940  -0.55478  -0.55156
 Alpha  occ. eigenvalues --   -0.55031  -0.54769  -0.54621  -0.54289  -0.53950
 Alpha  occ. eigenvalues --   -0.53698  -0.53591  -0.53156  -0.53075  -0.52796
 Alpha  occ. eigenvalues --   -0.52708  -0.52590  -0.52394  -0.52250  -0.52131
 Alpha  occ. eigenvalues --   -0.51917  -0.51880  -0.51749  -0.51629  -0.50942
 Alpha  occ. eigenvalues --   -0.50785  -0.50668  -0.50231  -0.50218  -0.50042
 Alpha  occ. eigenvalues --   -0.49919  -0.49802  -0.49646  -0.49590  -0.49518
 Alpha  occ. eigenvalues --   -0.49319  -0.49285  -0.49038  -0.48813  -0.48682
 Alpha  occ. eigenvalues --   -0.48606  -0.48376  -0.48248  -0.48036  -0.47874
 Alpha  occ. eigenvalues --   -0.47785  -0.47649  -0.47388  -0.47112  -0.47044
 Alpha  occ. eigenvalues --   -0.46980  -0.46699  -0.46628  -0.46376  -0.46373
 Alpha  occ. eigenvalues --   -0.46135  -0.45914  -0.45880  -0.45702  -0.45596
 Alpha  occ. eigenvalues --   -0.45417  -0.45285  -0.45270  -0.45205  -0.45124
 Alpha  occ. eigenvalues --   -0.45054  -0.45031  -0.44663  -0.44449  -0.44102
 Alpha  occ. eigenvalues --   -0.44041  -0.43871  -0.43775  -0.43668  -0.43663
 Alpha  occ. eigenvalues --   -0.43632  -0.43343  -0.43291  -0.43003  -0.42743
 Alpha  occ. eigenvalues --   -0.42642  -0.42476  -0.42354  -0.42098  -0.41575
 Alpha  occ. eigenvalues --   -0.41503  -0.41462  -0.41389  -0.41227  -0.41008
 Alpha  occ. eigenvalues --   -0.40956  -0.40666  -0.40223  -0.40191  -0.40131
 Alpha  occ. eigenvalues --   -0.39883  -0.39881  -0.39600  -0.38797  -0.38719
 Alpha  occ. eigenvalues --   -0.38120  -0.38101  -0.37733  -0.37524  -0.37242
 Alpha  occ. eigenvalues --   -0.36872  -0.36800  -0.36501  -0.36397  -0.36279
 Alpha  occ. eigenvalues --   -0.35872  -0.35307  -0.34401  -0.34214  -0.34191
 Alpha  occ. eigenvalues --   -0.33446  -0.33069  -0.32627  -0.31480  -0.30878
 Alpha  occ. eigenvalues --   -0.30840  -0.30761  -0.30515  -0.30370  -0.29902
 Alpha  occ. eigenvalues --   -0.29760  -0.29196  -0.29016  -0.24381  -0.23521
 Alpha  occ. eigenvalues --   -0.21414  -0.20996
 Alpha virt. eigenvalues --   -0.08864  -0.08573  -0.02654  -0.01195   0.00170
 Alpha virt. eigenvalues --    0.00809   0.00941   0.02338   0.02486   0.03669
 Alpha virt. eigenvalues --    0.04678   0.04985   0.05088   0.05780   0.05932

 Mulliken charges:
               1
     1  Mg  11.995347
     2  C    5.984338
     3  C    6.030677
     4  C    6.018429
     5  C    5.976308
     6  N    6.993804
     7  C    6.028498
     8  C    5.998919
     9  C    6.014121
    10  C    5.957768
    11  C    6.001233
    12  C    5.997241
    13  C    5.992785
    14  H    1.012254
    15  N    7.012537
    16  C    5.952345
    17  C    5.985234
    18  C    5.988539
    19  C    5.959108
    20  C    6.004703
    21  C    5.989378
    22  O    7.982738
    23  C    6.004152
    24  N    6.996217
    25  C    5.973268
    26  C    6.012333
    27  C    5.985139
    28  C    6.037838
    29  C    6.002705
    30  C    5.998916
    31  C    5.998126
    32  N    6.992996
    33  C    6.045179
    34  C    6.024375
    35  C    6.002929
    36  C    6.033973
    37  C    6.003071
    38  C    6.013711
    39  O    8.031151
    40  C    6.000564
    41  C    6.006181
    42  O    8.002357
    43  O    8.001132
    44  C    5.997802
    45  H    0.994544
    46  H    0.990860
    47  H    1.008667
    48  H    0.994426
    49  H    0.993266
    50  H    0.995166
    51  H    0.989412
    52  H    1.003728
    53  H    0.995462
    54  H    1.007341
    55  H    0.999980
    56  H    0.996876
    57  H    0.981125
    58  H    0.981458
    59  H    0.983727
    60  H    0.989414
    61  H    0.988120
    62  H    0.993901
    63  H    0.997873
    64  H    1.004992
    65  H    1.003212
    66  H    0.988121
    67  H    0.998330
    68  H    0.996975
    69  H    1.012910
    70  H    0.997875
    71  H    1.004992
    72  H    1.004413
    73  H    1.016305
    74  H    1.014242
    75  H    1.010727
    76  H    1.009115
    77  H    1.002177
    78  H    1.005312
    79  H    1.004536
    80  Mg  12.000232
    81  C    6.007900
    82  C    5.992531
    83  C    5.991425
    84  C    6.001320
    85  N    7.001582
    86  C    5.989266
    87  C    6.004162
    88  C    5.997544
    89  C    6.010475
    90  C    5.998977
    91  C    6.001828
    92  C    6.001633
    93  H    0.995768
    94  N    6.996575
    95  C    6.017804
    96  C    6.011461
    97  C    6.002539
    98  C    6.015251
    99  C    5.996815
   100  C    6.004763
   101  O    8.009627
   102  C    5.998047
   103  N    6.996699
   104  C    6.015776
   105  C    5.993702
   106  C    6.005382
   107  C    5.987143
   108  C    6.000320
   109  C    6.001602
   110  C    6.000634
   111  N    7.002510
   112  C    5.988203
   113  C    5.989408
   114  C    5.997257
   115  C    5.988377
   116  C    6.001394
   117  C    5.994929
   118  O    7.987939
   119  C    5.998126
   120  C    5.999499
   121  O    7.997075
   122  O    8.000465
   123  C    6.001036
   124  H    1.004314
   125  H    1.003326
   126  H    0.995143
   127  H    0.997826
   128  H    1.000507
   129  H    0.999128
   130  H    1.000675
   131  H    1.004781
   132  H    0.996626
   133  H    1.000129
   134  H    1.001893
   135  H    0.998754
   136  H    1.008497
   137  H    1.008606
   138  H    1.009545
   139  H    1.001720
   140  H    1.005682
   141  H    1.002689
   142  H    1.000169
   143  H    0.999874
   144  H    1.000293
   145  H    0.999264
   146  H    1.004276
   147  H    0.995320
   148  H    1.000550
   149  H    1.000253
   150  H    0.996769
   151  H    1.000573
   152  H    0.992373
   153  H    0.992788
   154  H    0.993481
   155  H    0.995965
   156  H    0.996754
   157  H    0.999197
   158  H    0.997259
 Sum of Mulliken charges = 624.00000

 Dipole moment (field-independent basis, Debye):
    X=             -1.8806    Y=             -5.8889    Z=             -1.6008  Tot=              6.3857
 Quadrupole moment (field-independent basis, Debye-Ang):
   XX=             -1.8846   YY=             -8.3931   ZZ=              0.6448
   XY=           -109.9613   XZ=             13.1311   YZ=             -1.8725

 Normal termination of Gaussian 16 at Tue Sep 21 19:05:27 2021.
