 Gaussian 16, Revision A.03,
 Gaussian 16:  ES64L-G16RevA.03 25-Dec-2016

 ----------------------------------------------------------
 #p cam-b3lyp/Def2SVP td=(nstates=5) density=(transition=1)
 ----------------------------------------------------------

 --------------------------------
 TDDFT excited states in gaussian
 --------------------------------
 Symbolic Z-matrix:
 Charge =  0 Multiplicity = 1

                         Standard orientation:
 ---------------------------------------------------------------------
 Center     Atomic      Atomic             Coordinates (Angstroms)
 Number     Number       Type             X           Y           Z
 ---------------------------------------------------------------------
      1         12           0       -9.798348    0.017333    0.896755
      2          6           0       -9.472528   -2.217805   -1.810008
      3          6           0       -6.753055   -1.055543    1.984085
      4          6           0       -9.763244    2.675277    3.045140
      5          6           0      -12.681145    1.280379   -0.774834
      6          7           0       -8.197856   -1.395703    0.069971
      7          6           0       -8.307111   -2.313055   -0.935504
      8          6           0       -7.003662   -3.101855   -1.149276
      9          6           0       -6.406872   -2.905203    0.329809
     10          6           0       -7.168716   -1.706118    0.837140
     11          6           0       -6.561293   -4.118624    1.285472
     12          6           0       -6.029356   -2.487650   -2.252389
     13          6           0       -5.025145   -3.401469   -2.937664
     14          1           0       -3.506004   -3.286344   -2.689711
     15          7           0       -8.466343    0.773783    2.405774
     16          6           0       -7.347022    0.077717    2.759093
     17          6           0       -6.782252    0.593410    3.926831
     18          6           0       -7.647244    1.687888    4.306416
     19          6           0       -8.680739    1.802213    3.238817
     20          6           0       -5.537003    0.046036    4.613958
     21          6           0       -7.421174    2.507034    5.557001
     22          8           0       -6.452724    2.233096    6.311835
     23          6           0       -8.397303    3.633238    6.048489
     24          7           0      -11.051156    1.670950    1.056724
     25          6           0      -10.843374    2.638858    2.076427
     26          6           0      -12.061615    3.509240    2.212895
     27          6           0      -12.807892    3.337133    0.872107
     28          6           0      -12.226531    1.984778    0.366137
     29          6           0      -13.081302    3.234062    3.341125
     30          6           0      -12.462366    4.517300   -0.180463
     31          6           0      -13.240433    5.821441   -0.090622
     32          7           0      -10.953476   -0.524954   -0.837074
     33          6           0      -12.086936    0.066972   -1.373835
     34          6           0      -12.463702   -0.533365   -2.560432
     35          6           0      -11.476872   -1.511429   -2.772019
     36          6           0      -10.568938   -1.443376   -1.701833
     37          6           0      -13.663662   -0.161658   -3.373095
     38          6           0      -11.119780   -2.563195   -3.568698
     39          8           0      -11.711547   -3.080505   -4.495520
     40          6           0       -9.678972   -2.888372   -3.121759
     41          6           0       -8.808435   -2.391792   -4.237265
     42          8           0       -8.794190   -1.264010   -4.621944
     43          8           0       -8.090196   -3.450252   -4.796405
     44          6           0       -7.378430   -3.061960   -5.964134
     45          1           0       -5.891370   -1.506654    2.481009
     46          1           0       -9.913617    3.421497    3.828663
     47          1           0      -13.645564    1.628703   -1.149764
     48          1           0       -7.176256   -4.172902   -1.249542
     49          1           0       -5.335119   -2.750290    0.208655
     50          1           0       -5.582749   -4.594945    1.218681
     51          1           0       -7.312527   -4.827065    0.936593
     52          1           0       -6.733435   -3.800471    2.313827
     53          1           0       -5.401953   -1.711272   -1.814447
     54          1           0       -6.666159   -1.967861   -2.968542
     55          1           0       -5.217201   -3.248713   -4.000672
     56          1           0       -5.319664   -4.426540   -2.713315
     57          1           0       -5.475442    0.048229    5.702734
     58          1           0       -4.800366    0.670702    4.109264
     59          1           0       -5.440566   -1.020769    4.412038
     60          1           0       -9.371357    3.197345    6.268909
     61          1           0       -8.393114    4.324367    5.205851
     62          1           0       -8.040087    4.254552    6.869640
     63          1           0      -11.698378    4.535093    2.265184
     64          1           0      -13.889181    3.292967    1.002865
     65          1           0      -14.057895    2.883385    3.007832
     66          1           0      -12.981123    3.956558    4.151370
     67          1           0      -12.686581    2.345033    3.832725
     68          1           0      -12.669934    3.996504   -1.115012
     69          1           0      -11.404527    4.777271   -0.137467
     70          1           0      -12.538119    6.653001   -0.039298
     71          1           0      -13.854305    5.811728    0.810454
     72          1           0      -13.843327    5.986910   -0.983881
     73          1           0      -13.306290   -0.044694   -4.395770
     74          1           0      -14.079802    0.806164   -3.090644
     75          1           0      -14.435372   -0.931609   -3.367021
     76          1           0       -9.593283   -3.970146   -3.025129
     77          1           0       -7.991573   -3.249798   -6.845115
     78          1           0       -6.515169   -3.693628   -6.177032
     79          1           0       -7.098256   -2.010064   -5.949785
     80         12           0        9.668719    0.817546   -0.203403
     81          6           0        8.625648   -2.246842    1.227703
     82          6           0        6.466669    1.371683   -1.113937
     83          6           0       10.713501    3.572963   -1.629734
     84          6           0       13.042590   -0.332313    0.199912
     85          7           0        7.722243   -0.364290   -0.067794
     86          6           0        7.554365   -1.443749    0.783299
     87          6           0        6.085964   -1.634334    0.954437
     88          6           0        5.455010   -0.865279   -0.206713
     89          6           0        6.583717    0.153232   -0.504632
     90          6           0        5.218882   -1.809404   -1.444686
     91          6           0        5.452624   -1.188635    2.380207
     92          6           0        4.387780   -2.082547    3.086523
     93          1           0        3.186884   -2.559349    2.219362
     94          7           0        8.673210    2.269000   -1.251876
     95          6           0        7.395040    2.310075   -1.487824
     96          6           0        7.112929    3.510688   -2.293574
     97          6           0        8.296465    4.309424   -2.290962
     98          6           0        9.315807    3.378588   -1.728703
     99          6           0        5.772848    3.925295   -3.003286
    100          6           0        8.556438    5.743861   -2.749951
    101          8           0        9.683703    6.272515   -2.794176
    102          6           0        7.463711    6.480315   -3.366426
    103          7           0       11.675232    1.426923   -0.801900
    104          6           0       11.829843    2.719549   -1.295854
    105          6           0       13.364622    3.083804   -1.300425
    106          6           0       14.019037    1.874816   -0.586518
    107          6           0       12.840901    0.931061   -0.335078
    108          6           0       13.888691    3.446260   -2.690227
    109          6           0       14.893829    2.201912    0.649835
    110          6           0       16.201311    1.398196    0.840323
    111          7           0       10.678654   -0.909419    0.528684
    112          6           0       12.024283   -1.258527    0.584383
    113          6           0       12.148477   -2.486950    1.327023
    114          6           0       10.844067   -2.932951    1.545066
    115          6           0        9.948591   -1.941320    1.057814
    116          6           0       13.335514   -3.098245    1.760075
    117          6           0       10.012989   -3.976168    2.163939
    118          8           0       10.283091   -4.988289    2.790867
    119          6           0        8.520006   -3.542477    1.995732
    120          6           0        7.801902   -4.668631    1.273689
    121          8           0        7.684199   -4.967446    0.106872
    122          8           0        7.158473   -5.292635    2.303144
    123          6           0        6.074911   -6.245353    1.962987
    124          1           0        5.423663    1.606935   -1.337579
    125          1           0       10.994333    4.585664   -1.926205
    126          1           0       14.050062   -0.591806    0.530361
    127          1           0        5.725888   -2.661213    0.886722
    128          1           0        4.602335   -0.261195    0.102373
    129          1           0        4.345954   -1.545974   -2.040977
    130          1           0        4.981014   -2.835687   -1.163856
    131          1           0        6.102702   -1.677877   -2.067978
    132          1           0        5.108731   -0.156964    2.313813
    133          1           0        6.251899   -1.076912    3.113800
    134          1           0        3.959565   -1.393393    3.815301
    135          1           0        5.006220   -2.890068    3.478443
    136          1           0        5.265387    4.789304   -2.574848
    137          1           0        5.110208    3.060679   -2.955989
    138          1           0        5.879770    4.274374   -4.030361
    139          1           0        6.589677    6.498733   -2.714872
    140          1           0        7.193599    6.040848   -4.326722
    141          1           0        7.765838    7.526830   -3.392339
    142          1           0       13.476711    3.909299   -0.597345
    143          1           0       14.587207    1.273162   -1.295688
    144          1           0       14.235081    2.539680   -3.187532
    145          1           0       14.766703    4.091380   -2.689809
    146          1           0       13.047601    3.726755   -3.323397
    147          1           0       14.348055    2.199486    1.593226
    148          1           0       15.197522    3.249603    0.645233
    149          1           0       15.930731    0.618542    1.552531
    150          1           0       16.880045    2.090299    1.339770
    151          1           0       16.540098    0.998830   -0.115229
    152          1           0       13.351034   -4.165551    1.979641
    153          1           0       13.688942   -2.521387    2.615304
    154          1           0       14.032230   -2.989895    0.929629
    155          1           0        8.074650   -3.351905    2.972002
    156          1           0        5.276977   -6.015020    2.668341
    157          1           0        6.311204   -7.303412    2.073141
    158          1           0        5.713510   -6.052455    0.953239
 ---------------------------------------------------------------------

 SCF Done:  E(RCAM-B3LYP) =  -4069.77995770     A.U. after   17 cycles

 Excitation energies and oscillator strengths:

 Excited State   1:      Singlet-A      1.7064 eV  726.60 nm  f=0.4001  <S**2>=0.000
     309 -> 315       -0.18533
     311 -> 313        0.68239
     309 <- 315       -0.10820
 This state for optimization and/or second-order correction.
 Total Energy, E(TD-HF/TD-DFT) =  -4069.71725029
 Copying the excited state density for this state as the 1-particle RhoCI density.

 Excited State   2:      Singlet-A      1.7331 eV  715.38 nm  f=0.3810  <S**2>=0.000
     310 -> 316        0.19064
     312 -> 314        0.68152
     310 <- 316        0.10762

 Excited State   3:      Singlet-A      2.1430 eV  578.55 nm  f=0.1330  <S**2>=0.000
     309 -> 313        0.65031
     311 -> 315        0.26005

 Excited State   4:      Singlet-A      2.2618 eV  548.17 nm  f=0.0701  <S**2>=0.000
     310 -> 314        0.62170
     312 -> 316       -0.32238

 Excited State   5:      Singlet-A      2.5686 eV  482.69 nm  f=0.0000  <S**2>=0.000
     312 -> 313        0.70697

 The electronic state is 1-A.
 Alpha  occ. eigenvalues --  -46.90458 -46.89370 -19.25528 -19.24387 -19.21062
 Alpha  occ. eigenvalues --  -19.20054 -19.19250 -19.18687 -19.18230 -19.18037
 Alpha  occ. eigenvalues --  -14.43326 -14.42812 -14.41777 -14.41428 -14.39969
 Alpha  occ. eigenvalues --  -14.39857 -14.39348 -14.38956 -10.39837 -10.39255
 Alpha  occ. eigenvalues --  -10.35516 -10.35177 -10.34821 -10.33492 -10.32539
 Alpha  occ. eigenvalues --  -10.32478 -10.31778 -10.31699 -10.31494 -10.31119
 Alpha  occ. eigenvalues --  -10.31083 -10.30864 -10.30817 -10.30750 -10.30373
 Alpha  occ. eigenvalues --  -10.30339 -10.30093 -10.30048 -10.29988 -10.29889
 Alpha  occ. eigenvalues --  -10.29542 -10.29452 -10.29392 -10.29273 -10.28469
 Alpha  occ. eigenvalues --  -10.28435 -10.28359 -10.28213 -10.28212 -10.28206
 Alpha  occ. eigenvalues --  -10.28109 -10.28006 -10.27970 -10.27928 -10.27894
 Alpha  occ. eigenvalues --  -10.27808 -10.27708 -10.27692 -10.27659 -10.27599
 Alpha  occ. eigenvalues --  -10.27588 -10.27560 -10.27546 -10.27510 -10.27485
 Alpha  occ. eigenvalues --  -10.27362 -10.27312 -10.27183 -10.26741 -10.26689
 Alpha  occ. eigenvalues --  -10.26622 -10.26602 -10.26540 -10.26512 -10.26366
 Alpha  occ. eigenvalues --  -10.26208 -10.26207 -10.26036 -10.26017 -10.25798
 Alpha  occ. eigenvalues --  -10.25782 -10.25746 -10.25624 -10.25257 -10.24797
 Alpha  occ. eigenvalues --  -10.24309  -3.18750  -3.17757  -1.93648  -1.93198
 Alpha  occ. eigenvalues --   -1.93047  -1.92655  -1.92214  -1.92049  -1.17778
 Alpha  occ. eigenvalues --   -1.16140  -1.10183  -1.09644  -1.09596  -1.09355
 Alpha  occ. eigenvalues --   -1.07785  -1.07474  -1.05906  -1.05153  -1.04795
 Alpha  occ. eigenvalues --   -1.04069  -1.03944  -1.03054  -1.02069  -1.02056
 Alpha  occ. eigenvalues --   -0.94485  -0.92771  -0.89124  -0.88879  -0.88873
 Alpha  occ. eigenvalues --   -0.88818  -0.88481  -0.87990  -0.87709  -0.87562
 Alpha  occ. eigenvalues --   -0.87247  -0.87123  -0.86885  -0.86062  -0.84537
 Alpha  occ. eigenvalues --   -0.84239  -0.83773  -0.83594  -0.83068  -0.82744
 Alpha  occ. eigenvalues --   -0.82458  -0.82034  -0.81510  -0.80838  -0.80601
 Alpha  occ. eigenvalues --   -0.80497  -0.78383  -0.78218  -0.77528  -0.77449
 Alpha  occ. eigenvalues --   -0.77110  -0.77044  -0.76104  -0.75876  -0.75844
 Alpha  occ. eigenvalues --   -0.75124  -0.73757  -0.72509  -0.72402  -0.71822
 Alpha  occ. eigenvalues --   -0.69636  -0.68898  -0.68751  -0.68617  -0.68593
 Alpha  occ. eigenvalues --   -0.67700  -0.67370  -0.67317  -0.66467  -0.65514
 Alpha  occ. eigenvalues --   -0.65478  -0.65310  -0.65056  -0.64894  -0.64368
 Alpha  occ. eigenvalues --   -0.64334  -0.62955  -0.61953  -0.60678  -0.60478
 Alpha  occ. eigenvalues --   -0.60301  -0.59760  -0.59612  -0.59335  -0.59237
 Alpha  occ. eigenvalues --   -0.59171  -0.58322  -0.58209  -0.57956  -0.57501
 Alpha  occ. eigenvalues --   -0.56654  -0.56150  -0.55929  -0.55900  -0.55452
 Alpha  occ. eigenvalues --   -0.55234  -0.55212  -0.54479  -0.53997  -0.53705
 Alpha  occ. eigenvalues --   -0.53699  -0.53571  -0.53338  -0.53247  -0.53224
 Alpha  occ. eigenvalues --   -0.52952  -0.52938  -0.52752  -0.52438  -0.52436
 Alpha  occ. eigenvalues --   -0.52126  -0.51976  -0.51684  -0.51602  -0.51568
 Alpha  occ. eigenvalues --   -0.51371  -0.51207  -0.50968  -0.50794  -0.50765
 Alpha  occ. eigenvalues --   -0.50422  -0.50288  -0.49981  -0.49979  -0.49882
 Alpha  occ. eigenvalues --   -0.49604  -0.49498  -0.49357  -0.49149  -0.48988
 Alpha  occ. eigenvalues --   -0.48952  -0.48854  -0.48586  -0.48183  -0.48093
 Alpha  occ. eigenvalues --   -0.47660  -0.47497  -0.47402  -0.47381  -0.47151
 Alpha  occ. eigenvalues --   -0.47131  -0.46888  -0.46749  -0.46652  -0.46551
 Alpha  occ. eigenvalues --   -0.46485  -0.46259  -0.46172  -0.45936  -0.45927
 Alpha  occ. eigenvalues --   -0.45553  -0.45444  -0.45218  -0.45042  -0.44940
 Alpha  occ. eigenvalues --   -0.44858  -0.44735  -0.44693  -0.44352  -0.44050
 Alpha  occ. eigenvalues --   -0.43992  -0.43918  -0.43844  -0.43681  -0.43474
 Alpha  occ. eigenvalues --   -0.43406  -0.43083  -0.43020  -0.42967  -0.42736
 Alpha  occ. eigenvalues --   -0.42726  -0.42643  -0.42337  -0.42316  -0.42162
 Alpha  occ. eigenvalues --   -0.41910  -0.41702  -0.41559  -0.41480  -0.41345
 Alpha  occ. eigenvalues --   -0.41253  -0.41171  -0.40869  -0.40640  -0.40565
 Alpha  occ. eigenvalues --   -0.40440  -0.40248  -0.39865  -0.39608  -0.39565
 Alpha  occ. eigenvalues --   -0.38771  -0.38636  -0.37949  -0.37795  -0.37673
 Alpha  occ. eigenvalues --   -0.37399  -0.37279  -0.37120  -0.36722  -0.36535
 Alpha  occ. eigenvalues --   -0.36475  -0.35932  -0.35641  -0.35199  -0.34683
 Alpha  occ. eigenvalues --   -0.33900  -0.33556  -0.33103  -0.31679  -0.31590
 Alpha  occ. eigenvalues --   -0.31171  -0.30583  -0.30556  -0.30468  -0.30180
 Alpha  occ. eigenvalues --   -0.30067  -0.29669  -0.29259  -0.24466  -0.23970
 Alpha  occ. eigenvalues --   -0.22181  -0.20970
 Alpha virt. eigenvalues --   -0.09736  -0.08277  -0.02625  -0.02059  -0.00223
 Alpha virt. eigenvalues --   -0.00135   0.01290   0.01758   0.02320   0.02456
 Alpha virt. eigenvalues --    0.04135   0.04999   0.05161   0.05343   0.05772

 Mulliken charges:
               1
     1  Mg  11.999988
     2  C    5.998552
     3  C    6.032762
     4  C    6.012960
     5  C    5.963919
     6  N    7.011882
     7  C    6.032997
     8  C    5.988120
     9  C    6.012418
    10  C    5.959418
    11  C    6.003565
    12  C    5.998067
    13  C    5.997865
    14  H    1.012125
    15  N    7.010195
    16  C    5.949347
    17  C    5.983225
    18  C    5.985316
    19  C    5.958423
    20  C    6.001601
    21  C    5.990317
    22  O    7.974472
    23  C    6.001139
    24  N    6.984648
    25  C    5.970516
    26  C    6.011627
    27  C    5.992161
    28  C    6.043319
    29  C    5.997050
    30  C    5.998347
    31  C    6.000365
    32  N    6.998139
    33  C    6.044367
    34  C    6.021271
    35  C    6.009518
    36  C    6.022412
    37  C    5.996064
    38  C    6.017199
    39  O    8.035622
    40  C    5.994187
    41  C    6.004957
    42  O    8.003574
    43  O    8.003178
    44  C    5.995875
    45  H    0.996413
    46  H    0.988812
    47  H    1.003708
    48  H    1.001681
    49  H    0.998144
    50  H    0.995891
    51  H    0.987524
    52  H    1.007639
    53  H    1.012913
    54  H    0.993669
    55  H    0.998132
    56  H    1.001609
    57  H    0.984913
    58  H    0.982473
    59  H    0.979291
    60  H    0.990030
    61  H    0.991775
    62  H    0.985628
    63  H    0.998100
    64  H    0.999933
    65  H    0.985745
    66  H    0.998917
    67  H    1.002564
    68  H    0.992418
    69  H    1.010719
    70  H    1.004387
    71  H    1.004386
    72  H    0.997466
    73  H    1.015547
    74  H    1.020778
    75  H    1.018676
    76  H    1.011849
    77  H    1.003000
    78  H    1.007423
    79  H    1.004778
    80  Mg  12.000167
    81  C    5.999863
    82  C    6.000378
    83  C    6.000004
    84  C    5.999527
    85  N    6.999989
    86  C    6.000457
    87  C    5.999554
    88  C    6.000100
    89  C    5.999719
    90  C    6.000086
    91  C    5.999791
    92  C    5.999844
    93  H    1.000552
    94  N    7.000016
    95  C    5.999695
    96  C    5.999944
    97  C    5.999870
    98  C    5.999777
    99  C    6.000120
   100  C    6.000032
   101  O    7.999694
   102  C    5.999941
   103  N    6.999843
   104  C    5.999711
   105  C    6.000072
   106  C    5.999931
   107  C    6.000273
   108  C    6.000125
   109  C    6.000039
   110  C    5.999984
   111  N    6.999999
   112  C    6.000223
   113  C    5.999984
   114  C    6.000004
   115  C    6.000170
   116  C    6.000087
   117  C    6.000023
   118  O    8.000080
   119  C    6.000126
   120  C    5.999963
   121  O    7.999631
   122  O    8.000212
   123  C    5.999955
   124  H    1.000438
   125  H    0.999791
   126  H    0.999806
   127  H    0.999939
   128  H    1.000992
   129  H    0.999540
   130  H    0.999733
   131  H    0.999550
   132  H    1.000819
   133  H    0.999998
   134  H    1.001549
   135  H    0.999463
   136  H    1.000374
   137  H    0.999719
   138  H    0.999374
   139  H    1.000372
   140  H    0.999558
   141  H    0.999846
   142  H    1.000027
   143  H    0.999758
   144  H    0.999694
   145  H    0.999770
   146  H    0.999911
   147  H    1.000183
   148  H    0.999970
   149  H    1.000017
   150  H    0.999930
   151  H    0.999799
   152  H    0.999904
   153  H    1.000155
   154  H    0.999844
   155  H    1.000549
   156  H    1.000710
   157  H    0.999692
   158  H    0.999676
 Sum of Mulliken charges = 624.00000

 Dipole moment (field-independent basis, Debye):
    X=             -4.8125    Y=             -3.8821    Z=             -9.2430  Tot=             11.1204
 Quadrupole moment (field-independent basis, Debye-Ang):
   XX=             90.5981   YY=              0.1349   ZZ=            -12.3667
   XY=             35.2590   XZ=             84.5320   YZ=             -2.1190

 Normal termination of Gaussian 16 at Wed Sep 22 12:57:08 2021.
