 Gaussian 16, Revision A.03,
 Gaussian 16:  ES64L-G16RevA.03 25-Dec-2016

 ----------------------------------------------------------
 #p cam-b3lyp/Def2SVP td=(nstates=5) density=(transition=1)
 ----------------------------------------------------------

 --------------------------------
 TDDFT excited states in gaussian
 --------------------------------
 Symbolic Z-matrix:
 Charge =  0 Multiplicity = 1

                         Standard orientation:
 ---------------------------------------------------------------------
 Center     Atomic      Atomic             Coordinates (Angstroms)
 Number     Number       Type             X           Y           Z
 ---------------------------------------------------------------------
      1         12           0       10.956030   -0.025474   -0.277732
      2          6           0        8.006316    0.664347    1.563480
      3          6           0       10.269548   -3.329913    0.092460
      4          6           0       13.269057   -0.628417   -2.695530
      5          6           0       11.185459    3.360756   -0.980265
      6          7           0        9.177677   -1.091869    0.620503
      7          6           0        8.140652   -0.662373    1.405483
      8          6           0        7.357284   -1.793076    1.961176
      9          6           0        8.323527   -3.049405    1.736030
     10          6           0        9.300162   -2.487170    0.760383
     11          6           0        8.948166   -3.524726    3.037907
     12          6           0        6.000544   -1.806580    1.239583
     13          6           0        4.691537   -1.777826    2.136013
     14          1           0        3.585858   -2.866382    1.990336
     15          7           0       11.740315   -1.705119   -1.180084
     16          6           0       11.366039   -3.002276   -0.802832
     17          6           0       12.263864   -3.916708   -1.442108
     18          6           0       13.147751   -3.179339   -2.300392
     19          6           0       12.784364   -1.764050   -2.022095
     20          6           0       12.191597   -5.410841   -1.154462
     21          6           0       14.222672   -3.697495   -3.229540
     22          8           0       14.412791   -4.944550   -3.133694
     23          6           0       15.015452   -2.929331   -4.324636
     24          7           0       12.107031    1.195480   -1.671465
     25          6           0       13.016832    0.705899   -2.542375
     26          6           0       13.677015    1.803640   -3.418068
     27          6           0       13.077529    3.102578   -2.776935
     28          6           0       11.997087    2.500535   -1.760527
     29          6           0       15.188112    1.697761   -3.316481
     30          6           0       12.431372    4.053946   -3.737221
     31          6           0       13.170906    5.354677   -3.895694
     32          7           0       10.012621    1.682352    0.274720
     33          6           0       10.207349    3.037593   -0.020523
     34          6           0        9.445546    3.854076    0.778905
     35          6           0        8.582766    2.965859    1.452924
     36          6           0        8.916533    1.674018    1.052705
     37          6           0        9.677930    5.343286    0.922438
     38          6           0        7.519797    2.898076    2.490730
     39          8           0        7.018694    3.779917    3.116616
     40          6           0        7.107372    1.377560    2.476100
     41          6           0        6.875832    0.969790    3.914764
     42          8           0        5.767985    0.812226    4.427885
     43          8           0        8.112206    0.745353    4.567648
     44          6           0        7.940305    0.227437    5.924647
     45          1           0       10.191062   -4.379529    0.384190
     46          1           0       14.086351   -0.770607   -3.406488
     47          1           0       11.055583    4.390001   -1.319328
     48          1           0        7.185972   -1.627078    3.024829
     49          1           0        7.727648   -3.866187    1.329601
     50          1           0        9.205681   -2.710361    3.713713
     51          1           0        9.902794   -3.997932    2.805578
     52          1           0        8.358760   -4.279237    3.558830
     53          1           0        5.977607   -2.704161    0.621753
     54          1           0        5.898220   -1.032608    0.478924
     55          1           0        4.273503   -0.820920    1.822403
     56          1           0        4.942230   -1.581197    3.177745
     57          1           0       11.173282   -5.783040   -1.266838
     58          1           0       12.479604   -5.530464   -0.110097
     59          1           0       12.743591   -6.078974   -1.816949
     60          1           0       15.658717   -2.267816   -3.745246
     61          1           0       14.308825   -2.360559   -4.929128
     62          1           0       15.569709   -3.595925   -4.985893
     63          1           0       13.434224    1.732772   -4.478017
     64          1           0       13.816928    3.570866   -2.127754
     65          1           0       15.460725    0.662018   -3.519714
     66          1           0       15.478670    1.965134   -2.300008
     67          1           0       15.812351    2.378293   -3.894296
     68          1           0       11.427721    4.359490   -3.441529
     69          1           0       12.264540    3.690147   -4.750893
     70          1           0       13.364708    5.501193   -4.957558
     71          1           0       14.159136    5.337660   -3.436115
     72          1           0       12.665554    6.213595   -3.452843
     73          1           0        9.168991    5.638534    1.840560
     74          1           0        9.272352    5.908282    0.083499
     75          1           0       10.761378    5.449401    0.972284
     76          1           0        6.098104    1.425301    2.065566
     77          1           0        8.807208   -0.363499    6.220546
     78          1           0        7.140335   -0.510167    5.970239
     79          1           0        7.723535    1.006836    6.655678
     80         12           0      -10.769757    0.059427   -0.521714
     81          6           0       -7.981551   -0.739837    1.405621
     82          6           0      -10.234489    3.394430    0.131046
     83          6           0      -13.648214    0.645526   -2.187042
     84          6           0      -11.446073   -3.438917   -0.793545
     85          7           0       -9.345760    1.137717    0.719666
     86          6           0       -8.277315    0.634845    1.395662
     87          6           0       -7.411556    1.754491    1.987726
     88          6           0       -8.287547    3.042479    1.655968
     89          6           0       -9.375003    2.462147    0.745729
     90          6           0       -8.881286    3.670785    2.910986
     91          6           0       -6.005156    1.960777    1.320543
     92          6           0       -4.909564    2.537222    2.179210
     93          1           0       -5.249352    3.186685    3.445493
     94          7           0      -11.724354    1.759529   -1.029368
     95          6           0      -11.336425    3.059284   -0.647103
     96          6           0      -12.197877    3.962844   -1.363708
     97          6           0      -13.166176    3.222199   -2.087673
     98          6           0      -12.877876    1.798505   -1.785564
     99          6           0      -12.190356    5.460959   -1.146941
    100          6           0      -14.237048    3.653900   -2.999457
    101          8           0      -15.114871    2.915554   -3.392697
    102          6           0      -14.388644    5.169470   -3.387500
    103          7           0      -12.299442   -1.214069   -1.553700
    104          6           0      -13.359044   -0.716229   -2.117708
    105          6           0      -14.296935   -1.837237   -2.658302
    106          6           0      -13.589219   -3.130761   -2.297878
    107          6           0      -12.375036   -2.622936   -1.439801
    108          6           0      -15.786059   -1.634968   -2.106201
    109          6           0      -13.207873   -3.977178   -3.530777
    110          6           0      -14.197775   -5.128322   -3.947739
    111          7           0       -9.837566   -1.689944   -0.106334
    112          6           0      -10.219858   -3.045026   -0.266310
    113          6           0       -9.228232   -3.919504    0.232970
    114          6           0       -8.364086   -3.011438    0.980530
    115          6           0       -8.799904   -1.689388    0.679388
    116          6           0       -9.334166   -5.430993    0.321314
    117          6           0       -7.260318   -3.044766    1.867538
    118          8           0       -6.582557   -3.966785    2.303648
    119          6           0       -6.895554   -1.438105    2.125504
    120          6           0       -6.857431   -1.280812    3.617272
    121          8           0       -7.805939   -1.523635    4.370809
    122          8           0       -5.558039   -0.946856    4.101952
    123          6           0       -5.438865   -0.784605    5.584765
    124          1           0      -10.005604    4.433138    0.381237
    125          1           0      -14.645193    0.911008   -2.543814
    126          1           0      -11.576819   -4.518403   -0.890302
    127          1           0       -7.359100    1.561619    3.059474
    128          1           0       -7.715440    3.830493    1.166419
    129          1           0       -8.394325    3.293181    3.809681
    130          1           0       -9.966512    3.576086    2.957455
    131          1           0       -8.641012    4.727302    3.030127
    132          1           0       -6.150371    2.585614    0.439988
    133          1           0       -5.723713    0.998746    0.891750
    134          1           0       -4.452289    3.343946    1.606747
    135          1           0       -4.187246    1.753280    2.406929
    136          1           0      -13.100402    5.831012   -0.674858
    137          1           0      -12.013969    5.939214   -2.111313
    138          1           0      -11.417399    5.845778   -0.481890
    139          1           0      -14.920527    5.635073   -2.557388
    140          1           0      -15.079493    5.274770   -4.224116
    141          1           0      -13.413778    5.644625   -3.489885
    142          1           0      -14.302916   -1.650445   -3.732323
    143          1           0      -14.155059   -3.713079   -1.572301
    144          1           0      -16.124322   -2.527311   -1.579692
    145          1           0      -16.532134   -1.528475   -2.893934
    146          1           0      -15.706924   -0.793532   -1.416619
    147          1           0      -12.242292   -4.427264   -3.297501
    148          1           0      -13.055772   -3.277084   -4.352395
    149          1           0      -13.941190   -6.011289   -3.361326
    150          1           0      -14.299294   -5.381159   -5.003311
    151          1           0      -15.126659   -4.749440   -3.522786
    152          1           0       -9.004930   -5.758991   -0.664301
    153          1           0      -10.363292   -5.749316    0.483400
    154          1           0       -8.883372   -5.899105    1.197333
    155          1           0       -5.945492   -1.212573    1.639549
    156          1           0       -5.652853   -1.715398    6.108823
    157          1           0       -6.037779   -0.015034    6.072486
    158          1           0       -4.368305   -0.589238    5.646656
 ---------------------------------------------------------------------

 SCF Done:  E(RCAM-B3LYP) =  -4069.83950573     A.U. after   19 cycles

 Excitation energies and oscillator strengths:

 Excited State   1:      Singlet-A      1.6836 eV  736.44 nm  f=0.3334  <S**2>=0.000
     309 -> 315       -0.17365
     311 -> 313        0.68639
     309 <- 315       -0.10780
 This state for optimization and/or second-order correction.
 Total Energy, E(TD-HF/TD-DFT) =  -4069.77763563
 Copying the excited state density for this state as the 1-particle RhoCI density.

 Excited State   2:      Singlet-A      1.7261 eV  718.28 nm  f=0.3947  <S**2>=0.000
     310 -> 316        0.17522
     312 -> 314        0.68596
     310 <- 316        0.10541

 Excited State   3:      Singlet-A      2.2183 eV  558.92 nm  f=0.2001  <S**2>=0.000
     309 -> 313        0.58184
     310 -> 314       -0.28920
     311 -> 315        0.23827
     312 -> 316        0.11439

 Excited State   4:      Singlet-A      2.2229 eV  557.75 nm  f=0.1110  <S**2>=0.000
     309 -> 313        0.28705
     310 -> 314        0.58297
     311 -> 315        0.11955
     312 -> 316       -0.23451

 Excited State   5:      Singlet-A      2.8618 eV  433.24 nm  f=0.0000  <S**2>=0.000
     312 -> 313        0.70702

 The electronic state is 1-A.
 Alpha  occ. eigenvalues --  -46.89001 -46.87884 -19.25615 -19.23983 -19.20996
 Alpha  occ. eigenvalues --  -19.19858 -19.19305 -19.19185 -19.18297 -19.18108
 Alpha  occ. eigenvalues --  -14.42577 -14.42359 -14.42223 -14.41552 -14.40082
 Alpha  occ. eigenvalues --  -14.40069 -14.39249 -14.38992 -10.40342 -10.38918
 Alpha  occ. eigenvalues --  -10.35656 -10.35482 -10.35386 -10.34223 -10.31974
 Alpha  occ. eigenvalues --  -10.31647 -10.31601 -10.31495 -10.31118 -10.31054
 Alpha  occ. eigenvalues --  -10.30998 -10.30855 -10.30734 -10.30715 -10.30665
 Alpha  occ. eigenvalues --  -10.30631 -10.30599 -10.30533 -10.29604 -10.29050
 Alpha  occ. eigenvalues --  -10.28855 -10.28801 -10.28761 -10.28533 -10.28502
 Alpha  occ. eigenvalues --  -10.28474 -10.28410 -10.28321 -10.28309 -10.28259
 Alpha  occ. eigenvalues --  -10.28162 -10.27992 -10.27990 -10.27918 -10.27786
 Alpha  occ. eigenvalues --  -10.27751 -10.27722 -10.27669 -10.27662 -10.27632
 Alpha  occ. eigenvalues --  -10.27533 -10.27468 -10.27423 -10.27377 -10.27368
 Alpha  occ. eigenvalues --  -10.27295 -10.27027 -10.26906 -10.26752 -10.26715
 Alpha  occ. eigenvalues --  -10.26704 -10.26544 -10.26497 -10.26311 -10.26294
 Alpha  occ. eigenvalues --  -10.26268 -10.26228 -10.25967 -10.25919 -10.25776
 Alpha  occ. eigenvalues --  -10.25741 -10.25715 -10.25349 -10.25223 -10.25080
 Alpha  occ. eigenvalues --  -10.24429  -3.17564  -3.16580  -1.92445  -1.92025
 Alpha  occ. eigenvalues --   -1.91869  -1.91492  -1.91028  -1.90898  -1.15577
 Alpha  occ. eigenvalues --   -1.13290  -1.12047  -1.11041  -1.08513  -1.07939
 Alpha  occ. eigenvalues --   -1.07622  -1.05669  -1.05250  -1.05083  -1.04264
 Alpha  occ. eigenvalues --   -1.03855  -1.03348  -1.03281  -1.02744  -1.02327
 Alpha  occ. eigenvalues --   -0.93310  -0.91990  -0.89943  -0.89317  -0.89189
 Alpha  occ. eigenvalues --   -0.89028  -0.88853  -0.88310  -0.87847  -0.87670
 Alpha  occ. eigenvalues --   -0.87396  -0.87013  -0.86171  -0.85946  -0.84833
 Alpha  occ. eigenvalues --   -0.84277  -0.84199  -0.82900  -0.82618  -0.82088
 Alpha  occ. eigenvalues --   -0.81940  -0.81404  -0.80694  -0.80489  -0.80297
 Alpha  occ. eigenvalues --   -0.79900  -0.78701  -0.77812  -0.77462  -0.77176
 Alpha  occ. eigenvalues --   -0.76865  -0.76742  -0.76491  -0.75726  -0.75502
 Alpha  occ. eigenvalues --   -0.74965  -0.73524  -0.73025  -0.72216  -0.71517
 Alpha  occ. eigenvalues --   -0.69470  -0.69404  -0.68992  -0.68891  -0.67859
 Alpha  occ. eigenvalues --   -0.67675  -0.67228  -0.67173  -0.66358  -0.65678
 Alpha  occ. eigenvalues --   -0.65651  -0.65347  -0.65170  -0.64927  -0.64852
 Alpha  occ. eigenvalues --   -0.64506  -0.63117  -0.61261  -0.60531  -0.60261
 Alpha  occ. eigenvalues --   -0.60075  -0.59595  -0.59529  -0.59218  -0.58959
 Alpha  occ. eigenvalues --   -0.58426  -0.58059  -0.57675  -0.57240  -0.56886
 Alpha  occ. eigenvalues --   -0.56228  -0.56171  -0.55826  -0.55622  -0.54947
 Alpha  occ. eigenvalues --   -0.54873  -0.54510  -0.54337  -0.53895  -0.53887
 Alpha  occ. eigenvalues --   -0.53598  -0.53295  -0.53202  -0.53119  -0.52806
 Alpha  occ. eigenvalues --   -0.52695  -0.52385  -0.52286  -0.52223  -0.52144
 Alpha  occ. eigenvalues --   -0.52047  -0.51968  -0.51709  -0.51475  -0.51115
 Alpha  occ. eigenvalues --   -0.50919  -0.50849  -0.50550  -0.50460  -0.50287
 Alpha  occ. eigenvalues --   -0.50048  -0.50043  -0.49867  -0.49793  -0.49647
 Alpha  occ. eigenvalues --   -0.49525  -0.49419  -0.49184  -0.48953  -0.48917
 Alpha  occ. eigenvalues --   -0.48647  -0.48470  -0.48335  -0.48265  -0.48044
 Alpha  occ. eigenvalues --   -0.47974  -0.47735  -0.47551  -0.47407  -0.47211
 Alpha  occ. eigenvalues --   -0.47123  -0.47015  -0.46890  -0.46828  -0.46606
 Alpha  occ. eigenvalues --   -0.46605  -0.46456  -0.46014  -0.45896  -0.45746
 Alpha  occ. eigenvalues --   -0.45688  -0.45486  -0.45292  -0.45147  -0.44958
 Alpha  occ. eigenvalues --   -0.44935  -0.44856  -0.44574  -0.44432  -0.44157
 Alpha  occ. eigenvalues --   -0.44056  -0.44001  -0.43964  -0.43786  -0.43658
 Alpha  occ. eigenvalues --   -0.43266  -0.43262  -0.42932  -0.42755  -0.42641
 Alpha  occ. eigenvalues --   -0.42517  -0.42498  -0.42430  -0.42408  -0.42391
 Alpha  occ. eigenvalues --   -0.42077  -0.41853  -0.41712  -0.41706  -0.41571
 Alpha  occ. eigenvalues --   -0.41410  -0.41389  -0.41210  -0.41077  -0.40732
 Alpha  occ. eigenvalues --   -0.40137  -0.40131  -0.39702  -0.39354  -0.39024
 Alpha  occ. eigenvalues --   -0.38743  -0.38540  -0.38218  -0.37775  -0.37677
 Alpha  occ. eigenvalues --   -0.37320  -0.37244  -0.37116  -0.36856  -0.36384
 Alpha  occ. eigenvalues --   -0.36045  -0.35627  -0.35402  -0.34697  -0.34277
 Alpha  occ. eigenvalues --   -0.33734  -0.33402  -0.33185  -0.31740  -0.31572
 Alpha  occ. eigenvalues --   -0.31128  -0.30991  -0.30577  -0.30413  -0.30016
 Alpha  occ. eigenvalues --   -0.29786  -0.29668  -0.29387  -0.24405  -0.24092
 Alpha  occ. eigenvalues --   -0.21638  -0.21451
 Alpha virt. eigenvalues --   -0.09323  -0.08964  -0.01827  -0.01558   0.00236
 Alpha virt. eigenvalues --    0.00306   0.01807   0.02410   0.02491   0.03838
 Alpha virt. eigenvalues --    0.04158   0.04843   0.05090   0.05314   0.05767

 Mulliken charges:
               1
     1  Mg  11.998436
     2  C    6.026597
     3  C    5.998621
     4  C    5.960708
     5  C    5.987002
     6  N    7.027581
     7  C    5.970063
     8  C    6.010148
     9  C    5.983189
    10  C    6.026023
    11  C    5.994876
    12  C    6.005450
    13  C    5.999402
    14  H    0.994490
    15  N    6.989773
    16  C    6.043026
    17  C    6.019712
    18  C    6.008850
    19  C    6.048799
    20  C    5.996065
    21  C    6.010885
    22  O    8.019616
    23  C    6.001865
    24  N    6.981461
    25  C    6.041726
    26  C    5.988193
    27  C    6.006737
    28  C    5.981163
    29  C    5.996075
    30  C    6.005380
    31  C    6.002192
    32  N    7.001187
    33  C    5.970769
    34  C    5.971288
    35  C    5.994924
    36  C    5.961856
    37  C    6.000581
    38  C    5.981868
    39  O    7.973441
    40  C    5.996552
    41  C    5.996578
    42  O    7.993662
    43  O    8.002026
    44  C    6.003347
    45  H    1.015442
    46  H    1.000798
    47  H    0.984211
    48  H    1.001623
    49  H    1.005597
    50  H    1.015510
    51  H    0.995089
    52  H    1.010927
    53  H    0.988827
    54  H    1.003740
    55  H    1.004765
    56  H    1.001573
    57  H    1.018012
    58  H    1.018595
    59  H    1.015653
    60  H    1.009951
    61  H    1.010065
    62  H    1.010755
    63  H    1.001058
    64  H    0.998007
    65  H    0.991905
    66  H    1.005229
    67  H    1.006842
    68  H    1.005411
    69  H    0.988909
    70  H    0.992745
    71  H    0.994600
    72  H    1.002247
    73  H    0.984701
    74  H    0.978987
    75  H    0.983487
    76  H    0.995365
    77  H    0.992977
    78  H    0.994390
    79  H    0.999826
    80  Mg  11.999902
    81  C    6.001363
    82  C    6.000099
    83  C    5.998664
    84  C    5.999820
    85  N    7.000714
    86  C    5.998604
    87  C    6.000418
    88  C    5.999507
    89  C    6.000925
    90  C    5.999644
    91  C    6.000135
    92  C    5.999761
    93  H    1.000095
    94  N    6.999431
    95  C    6.001424
    96  C    6.000862
    97  C    6.000568
    98  C    6.001406
    99  C    5.999701
   100  C    6.000291
   101  O    8.000979
   102  C    5.999939
   103  N    6.999530
   104  C    6.001324
   105  C    5.999845
   106  C    6.000153
   107  C    5.999250
   108  C    5.999972
   109  C    6.000257
   110  C    5.999937
   111  N    7.000087
   112  C    5.998704
   113  C    5.998864
   114  C    5.999718
   115  C    5.998743
   116  C    6.000072
   117  C    5.999394
   118  O    7.998484
   119  C    5.999766
   120  C    5.999856
   121  O    7.999701
   122  O    8.000109
   123  C    5.999995
   124  H    1.000917
   125  H    0.999844
   126  H    0.999152
   127  H    1.000160
   128  H    1.000611
   129  H    1.000807
   130  H    0.999687
   131  H    1.000523
   132  H    0.999708
   133  H    1.000107
   134  H    1.000677
   135  H    1.000441
   136  H    1.000708
   137  H    1.000800
   138  H    1.000891
   139  H    1.000290
   140  H    1.000415
   141  H    1.000270
   142  H    0.999766
   143  H    0.999883
   144  H    1.000129
   145  H    0.999836
   146  H    0.999855
   147  H    1.000128
   148  H    0.999574
   149  H    0.999916
   150  H    0.999614
   151  H    0.999786
   152  H    0.999095
   153  H    0.999188
   154  H    0.999231
   155  H    1.000041
   156  H    0.999625
   157  H    0.999888
   158  H    1.000423
 Sum of Mulliken charges = 624.00000

 Dipole moment (field-independent basis, Debye):
    X=              3.5098    Y=             -9.2065    Z=             -2.7138  Tot=             10.2198
 Quadrupole moment (field-independent basis, Debye-Ang):
   XX=             79.5870   YY=              0.3944   ZZ=              0.7281
   XY=           -110.4986   XZ=            -29.3915   YZ=              3.7447

 Normal termination of Gaussian 16 at Wed Sep 22 19:41:24 2021.
