 Gaussian 16, Revision A.03,
 Gaussian 16:  ES64L-G16RevA.03 25-Dec-2016

 -----------------------------------
 #p cam-b3lyp/Def2SVP td=(nstates=5)
 -----------------------------------

 --------------------------------
 TDDFT excited states in gaussian
 --------------------------------
 Symbolic Z-matrix:
 Charge =  0 Multiplicity = 1

                         Standard orientation:
 ---------------------------------------------------------------------
 Center     Atomic      Atomic             Coordinates (Angstroms)
 Number     Number       Type             X           Y           Z
 ---------------------------------------------------------------------
      1         12           0       -4.373841   -0.551241    0.847143
      2          6           0       -5.615805    2.179156   -0.852391
      3          6           0       -2.240687    1.753186    2.569689
      4          6           0       -2.870696   -3.066399    2.285094
      5          6           0       -6.246053   -2.689954   -1.124134
      6          7           0       -3.851837    1.742365    0.670054
      7          6           0       -4.656495    2.608406    0.077266
      8          6           0       -4.440720    4.042818    0.637175
      9          6           0       -3.012422    3.871905    1.263035
     10          6           0       -2.976222    2.361789    1.547390
     11          6           0       -1.871526    4.323463    0.283400
     12          6           0       -5.563730    4.271337    1.673243
     13          6           0       -5.665503    5.679963    2.273946
     14          1           0       -4.557550    6.688318    2.044891
     15          7           0       -2.885727   -0.729012    2.287919
     16          6           0       -2.163472    0.358680    2.888931
     17          6           0       -1.384090   -0.228640    3.970167
     18          6           0       -1.653143   -1.633016    3.960731
     19          6           0       -2.482628   -1.891543    2.784658
     20          6           0       -0.479897    0.584353    4.969997
     21          6           0       -1.182334   -2.690490    5.013174
     22          8           0       -1.399551   -3.848882    4.784772
     23          6           0       -0.449798   -2.264447    6.243878
     24          7           0       -4.606739   -2.613330    0.672843
     25          6           0       -3.863149   -3.489448    1.385405
     26          6           0       -4.141556   -4.948701    1.026847
     27          6           0       -5.320919   -4.813378    0.035973
     28          6           0       -5.400238   -3.244490   -0.157235
     29          6           0       -2.924954   -5.747498    0.430393
     30          6           0       -6.604012   -5.523996    0.383899
     31          6           0       -7.219378   -5.425714    1.800668
     32          7           0       -5.667576   -0.391263   -0.693219
     33          6           0       -6.369108   -1.325036   -1.400759
     34          6           0       -7.259727   -0.607001   -2.287931
     35          6           0       -7.051532    0.804723   -2.115844
     36          6           0       -6.038413    0.859226   -1.119789
     37          6           0       -8.219140   -1.268990   -3.227043
     38          6           0       -7.382583    2.117868   -2.557158
     39          8           0       -8.162701    2.550187   -3.433425
     40          6           0       -6.213931    3.033197   -1.896469
     41          6           0       -6.871518    4.356830   -1.502554
     42          8           0       -7.827423    4.471553   -0.835209
     43          8           0       -6.174476    5.366816   -2.102289
     44          6           0       -6.367792    6.714139   -1.606927
     45          1           0       -1.548493    2.452961    3.041628
     46          1           0       -2.367340   -3.943586    2.696998
     47          1           0       -6.849341   -3.309498   -1.789838
     48          1           0       -4.380863    4.790141   -0.153907
     49          1           0       -3.067725    4.459088    2.180008
     50          1           0       -1.482773    5.289526    0.603051
     51          1           0       -2.294882    4.371949   -0.720038
     52          1           0       -1.004990    3.662215    0.290477
     53          1           0       -5.355775    3.621620    2.522980
     54          1           0       -6.527814    3.906893    1.319853
     55          1           0       -6.047221    5.684222    3.295158
     56          1           0       -6.554935    6.103224    1.806812
     57          1           0        0.525514    0.170131    5.050922
     58          1           0       -1.022749    0.589250    5.915053
     59          1           0       -0.451915    1.631167    4.665112
     60          1           0       -0.722126   -3.051608    6.947306
     61          1           0       -0.852141   -1.349601    6.677434
     62          1           0        0.589897   -1.942201    6.187161
     63          1           0       -4.452398   -5.412242    1.962853
     64          1           0       -5.063947   -5.125158   -0.976355
     65          1           0       -3.356040   -6.427778   -0.303621
     66          1           0       -2.551348   -6.282724    1.303597
     67          1           0       -2.150654   -5.061971    0.086133
     68          1           0       -6.248802   -6.553886    0.395179
     69          1           0       -7.446946   -5.408554   -0.298273
     70          1           0       -7.321255   -6.340331    2.383286
     71          1           0       -8.267237   -5.128615    1.758596
     72          1           0       -6.619116   -4.744903    2.404403
     73          1           0       -8.686408   -0.458210   -3.785241
     74          1           0       -9.012040   -1.762554   -2.663477
     75          1           0       -7.798604   -2.067615   -3.837437
     76          1           0       -5.454465    3.116028   -2.674208
     77          1           0       -6.598667    7.075829   -2.609016
     78          1           0       -5.509991    7.110513   -1.063219
     79          1           0       -7.252728    6.842647   -0.983106
     80         12           0        4.256382   -0.910171   -0.950575
     81          6           0        6.624391    1.779763   -0.179738
     82          6           0        1.834606    1.601365   -1.271708
     83          6           0        2.018870   -3.256122   -1.293558
     84          6           0        6.824328   -3.175843   -0.765348
     85          7           0        4.186705    1.365372   -0.549757
     86          6           0        5.294256    2.295607   -0.368384
     87          6           0        4.858085    3.773874   -0.280637
     88          6           0        3.240525    3.580978   -0.444315
     89          6           0        3.022179    2.089404   -0.765402
     90          6           0        2.443651    4.052865    0.756362
     91          6           0        5.592377    4.627973   -1.358067
     92          6           0        5.040587    6.005486   -1.571308
     93          1           0        5.983871    7.180735   -1.700437
     94          7           0        2.169701   -0.870110   -1.225244
     95          6           0        1.344588    0.254236   -1.341951
     96          6           0       -0.031990   -0.169344   -1.591549
     97          6           0       -0.008641   -1.624000   -1.610671
     98          6           0        1.429659   -2.016406   -1.373155
     99          6           0       -1.236454    0.801044   -1.876334
    100          6           0       -1.098285   -2.623438   -1.761628
    101          8           0       -0.938674   -3.836444   -1.791467
    102          6           0       -2.479299   -2.176609   -2.009648
    103          7           0        4.401861   -2.863816   -1.109091
    104          6           0        3.332199   -3.661258   -1.123444
    105          6           0        3.705946   -5.161543   -1.165622
    106          6           0        5.192822   -5.081653   -1.442857
    107          6           0        5.540252   -3.603031   -1.015542
    108          6           0        3.378265   -5.900321    0.126803
    109          6           0        5.792249   -5.390489   -2.790348
    110          6           0        5.351702   -4.456184   -3.896926
    111          7           0        6.278222   -0.794208   -0.464298
    112          6           0        7.226704   -1.830420   -0.535710
    113          6           0        8.524532   -1.298354   -0.200443
    114          6           0        8.278769    0.097670   -0.143177
    115          6           0        6.905241    0.368438   -0.292670
    116          6           0        9.845069   -2.009868   -0.150672
    117          6           0        9.017842    1.388906    0.010415
    118          8           0       10.243070    1.630118    0.057022
    119          6           0        7.947652    2.478182    0.020205
    120          6           0        8.062704    3.313890    1.296790
    121          8           0        7.900603    2.982951    2.508434
    122          8           0        8.243371    4.607991    0.906888
    123          6           0        8.296375    5.606550    1.998642
    124          1           0        1.138347    2.387418   -1.568101
    125          1           0        1.279751   -4.058410   -1.342477
    126          1           0        7.684186   -3.841613   -0.664949
    127          1           0        5.227284    4.120038    0.684701
    128          1           0        2.919780    4.072629   -1.362761
    129          1           0        1.744879    4.822164    0.426487
    130          1           0        3.162767    4.493052    1.446253
    131          1           0        2.046608    3.292618    1.428682
    132          1           0        5.643592    3.995023   -2.244664
    133          1           0        6.634796    4.738141   -1.058940
    134          1           0        4.383225    6.400730   -0.797210
    135          1           0        4.526172    6.038999   -2.531271
    136          1           0       -1.555780    0.552843   -2.888937
    137          1           0       -0.961527    1.855243   -1.845517
    138          1           0       -1.996657    0.565351   -1.131484
    139          1           0       -2.790639   -1.338720   -1.385519
    140          1           0       -3.077109   -3.054593   -1.767507
    141          1           0       -2.439423   -1.764376   -3.017442
    142          1           0        3.126941   -5.610192   -1.972899
    143          1           0        5.763363   -5.770271   -0.819014
    144          1           0        2.977653   -6.880559   -0.128954
    145          1           0        2.631432   -5.363106    0.710417
    146          1           0        4.295062   -6.137809    0.667617
    147          1           0        5.601378   -6.441830   -3.007390
    148          1           0        6.867066   -5.209952   -2.789784
    149          1           0        5.072678   -4.996411   -4.800838
    150          1           0        6.147571   -3.787552   -4.225750
    151          1           0        4.488084   -3.839577   -3.647487
    152          1           0       10.570363   -1.477049   -0.765126
    153          1           0        9.926423   -3.055282   -0.448214
    154          1           0       10.179878   -1.979037    0.886386
    155          1           0        8.162696    3.170386   -0.794366
    156          1           0        7.334057    6.111083    2.082665
    157          1           0        9.139015    6.197629    1.639885
    158          1           0        8.638070    5.176330    2.940928
 ---------------------------------------------------------------------

 SCF Done:  E(RCAM-B3LYP) =  -4069.81854724     A.U. after   19 cycles

 Excitation energies and oscillator strengths:

 Excited State   1:      Singlet-A      1.6531 eV  750.00 nm  f=0.4618  <S**2>=0.000
     309 -> 316        0.16214
     311 -> 313        0.68355
     309 <- 316        0.10400
 This state for optimization and/or second-order correction.
 Total Energy, E(TD-HF/TD-DFT) =  -4069.75779636
 Copying the excited state density for this state as the 1-particle RhoCI density.

 Excited State   2:      Singlet-A      1.7221 eV  719.97 nm  f=0.3329  <S**2>=0.000
     310 -> 315        0.19298
     312 -> 314        0.67492
     310 <- 315        0.11042

 Excited State   3:      Singlet-A      2.1202 eV  584.79 nm  f=0.0006  <S**2>=0.000
     312 -> 313        0.69558

 Excited State   4:      Singlet-A      2.1670 eV  572.14 nm  f=0.0692  <S**2>=0.000
     309 -> 313        0.63365
     310 -> 314       -0.15326
     311 -> 316       -0.24380

 Excited State   5:      Singlet-A      2.2162 eV  559.45 nm  f=0.1169  <S**2>=0.000
     309 -> 313        0.14825
     310 -> 314        0.61450
     312 -> 315       -0.28900

 The electronic state is 1-A.
 Alpha  occ. eigenvalues --  -46.88725 -46.87842 -19.25914 -19.24762 -19.20616
 Alpha  occ. eigenvalues --  -19.19789 -19.19333 -19.19263 -19.19114 -19.18553
 Alpha  occ. eigenvalues --  -14.42612 -14.42238 -14.42214 -14.41994 -14.40039
 Alpha  occ. eigenvalues --  -14.39675 -14.39670 -14.38946 -10.40105 -10.39279
 Alpha  occ. eigenvalues --  -10.35440 -10.35390 -10.34992 -10.34739 -10.32078
 Alpha  occ. eigenvalues --  -10.32075 -10.31826 -10.31637 -10.31448 -10.31184
 Alpha  occ. eigenvalues --  -10.31123 -10.30899 -10.30820 -10.30817 -10.30780
 Alpha  occ. eigenvalues --  -10.30684 -10.30677 -10.30533 -10.29929 -10.29683
 Alpha  occ. eigenvalues --  -10.29332 -10.29326 -10.29141 -10.29129 -10.29118
 Alpha  occ. eigenvalues --  -10.29039 -10.28981 -10.28902 -10.28757 -10.28731
 Alpha  occ. eigenvalues --  -10.28714 -10.28554 -10.28367 -10.28298 -10.28284
 Alpha  occ. eigenvalues --  -10.28081 -10.28046 -10.27933 -10.27811 -10.27638
 Alpha  occ. eigenvalues --  -10.27572 -10.27557 -10.27549 -10.27441 -10.27130
 Alpha  occ. eigenvalues --  -10.27074 -10.27056 -10.27023 -10.26989 -10.26881
 Alpha  occ. eigenvalues --  -10.26764 -10.26660 -10.26443 -10.26293 -10.26067
 Alpha  occ. eigenvalues --  -10.26045 -10.25952 -10.25949 -10.25805 -10.25804
 Alpha  occ. eigenvalues --  -10.25639 -10.25366 -10.25275 -10.25187 -10.24778
 Alpha  occ. eigenvalues --  -10.24616  -3.17365  -3.16582  -1.92279  -1.91831
 Alpha  occ. eigenvalues --   -1.91649  -1.91487  -1.91048  -1.90884  -1.17975
 Alpha  occ. eigenvalues --   -1.16156  -1.11680  -1.10726  -1.10165  -1.08332
 Alpha  occ. eigenvalues --   -1.07893  -1.05918  -1.05484  -1.05123  -1.04527
 Alpha  occ. eigenvalues --   -1.03430  -1.02904  -1.02425  -1.02349  -1.00730
 Alpha  occ. eigenvalues --   -0.93387  -0.92408  -0.89750  -0.89324  -0.89024
 Alpha  occ. eigenvalues --   -0.88940  -0.88910  -0.88853  -0.87642  -0.87434
 Alpha  occ. eigenvalues --   -0.87040  -0.86728  -0.85963  -0.85953  -0.84919
 Alpha  occ. eigenvalues --   -0.84451  -0.84126  -0.83808  -0.83073  -0.82664
 Alpha  occ. eigenvalues --   -0.82381  -0.81949  -0.81727  -0.81542  -0.80593
 Alpha  occ. eigenvalues --   -0.80180  -0.78500  -0.78246  -0.77449  -0.77349
 Alpha  occ. eigenvalues --   -0.77265  -0.76948  -0.76255  -0.76089  -0.75562
 Alpha  occ. eigenvalues --   -0.75487  -0.72960  -0.72842  -0.72282  -0.72088
 Alpha  occ. eigenvalues --   -0.70388  -0.70272  -0.69568  -0.69245  -0.68478
 Alpha  occ. eigenvalues --   -0.67760  -0.67243  -0.66486  -0.65572  -0.65174
 Alpha  occ. eigenvalues --   -0.65064  -0.64761  -0.64635  -0.64468  -0.64403
 Alpha  occ. eigenvalues --   -0.63923  -0.62698  -0.62053  -0.60709  -0.60312
 Alpha  occ. eigenvalues --   -0.59956  -0.59581  -0.59253  -0.59168  -0.59153
 Alpha  occ. eigenvalues --   -0.58472  -0.58460  -0.58116  -0.57842  -0.57528
 Alpha  occ. eigenvalues --   -0.56588  -0.56377  -0.56333  -0.56127  -0.55961
 Alpha  occ. eigenvalues --   -0.55655  -0.55502  -0.55370  -0.54965  -0.54498
 Alpha  occ. eigenvalues --   -0.54424  -0.54053  -0.53911  -0.53527  -0.53294
 Alpha  occ. eigenvalues --   -0.53206  -0.52850  -0.52770  -0.52579  -0.52485
 Alpha  occ. eigenvalues --   -0.52272  -0.52259  -0.52032  -0.51276  -0.51152
 Alpha  occ. eigenvalues --   -0.50999  -0.50939  -0.50812  -0.50528  -0.50368
 Alpha  occ. eigenvalues --   -0.50227  -0.50071  -0.49916  -0.49810  -0.49743
 Alpha  occ. eigenvalues --   -0.49715  -0.49480  -0.49246  -0.49019  -0.48952
 Alpha  occ. eigenvalues --   -0.48905  -0.48663  -0.48541  -0.48518  -0.48379
 Alpha  occ. eigenvalues --   -0.48293  -0.48244  -0.47798  -0.47748  -0.47641
 Alpha  occ. eigenvalues --   -0.47232  -0.47090  -0.47045  -0.46891  -0.46781
 Alpha  occ. eigenvalues --   -0.46576  -0.46234  -0.46194  -0.46099  -0.45946
 Alpha  occ. eigenvalues --   -0.45845  -0.45833  -0.45532  -0.45496  -0.45362
 Alpha  occ. eigenvalues --   -0.45019  -0.44852  -0.44660  -0.44484  -0.44294
 Alpha  occ. eigenvalues --   -0.44259  -0.44053  -0.43649  -0.43562  -0.43496
 Alpha  occ. eigenvalues --   -0.43350  -0.43163  -0.42962  -0.42799  -0.42760
 Alpha  occ. eigenvalues --   -0.42692  -0.42499  -0.42373  -0.42306  -0.42244
 Alpha  occ. eigenvalues --   -0.42127  -0.41932  -0.41866  -0.41784  -0.41678
 Alpha  occ. eigenvalues --   -0.41357  -0.41065  -0.40796  -0.40673  -0.40518
 Alpha  occ. eigenvalues --   -0.40107  -0.39939  -0.39407  -0.39311  -0.39179
 Alpha  occ. eigenvalues --   -0.38971  -0.38542  -0.38336  -0.37864  -0.37466
 Alpha  occ. eigenvalues --   -0.37396  -0.37232  -0.36911  -0.36767  -0.36630
 Alpha  occ. eigenvalues --   -0.36262  -0.36146  -0.35484  -0.34422  -0.34255
 Alpha  occ. eigenvalues --   -0.34222  -0.33695  -0.33147  -0.31829  -0.31640
 Alpha  occ. eigenvalues --   -0.31506  -0.31273  -0.30716  -0.30486  -0.30393
 Alpha  occ. eigenvalues --   -0.30159  -0.29666  -0.29253  -0.24345  -0.24169
 Alpha  occ. eigenvalues --   -0.21559  -0.21412
 Alpha virt. eigenvalues --   -0.09375  -0.08779  -0.02231  -0.01773  -0.00137
 Alpha virt. eigenvalues --    0.00182   0.02048   0.02316   0.02779   0.03262
 Alpha virt. eigenvalues --    0.04362   0.04951   0.04998   0.05517   0.05656

 Mulliken charges:
               1
     1  Mg   0.778237
     2  C   -0.013894
     3  C   -0.065518
     4  C   -0.068953
     5  C   -0.105965
     6  N   -0.237847
     7  C   -0.086551
     8  C   -0.036992
     9  C   -0.040812
    10  C   -0.003137
    11  C    0.078516
    12  C    0.037372
    13  C   -0.033986
    14  H    0.029288
    15  N   -0.391928
    16  C    0.164546
    17  C   -0.169860
    18  C   -0.038662
    19  C    0.170557
    20  C    0.110079
    21  C    0.018203
    22  O   -0.179451
    23  C    0.052323
    24  N   -0.262466
    25  C   -0.015937
    26  C   -0.049404
    27  C    0.000464
    28  C    0.052081
    29  C    0.080338
    30  C    0.039069
    31  C   -0.018321
    32  N   -0.389116
    33  C    0.124598
    34  C   -0.171229
    35  C    0.016476
    36  C    0.145608
    37  C    0.114385
    38  C    0.075601
    39  O   -0.199158
    40  C   -0.076191
    41  C    0.177728
    42  O   -0.153578
    43  O   -0.338862
    44  C    0.149476
    45  H   -0.021955
    46  H   -0.014916
    47  H   -0.031910
    48  H   -0.002819
    49  H   -0.000677
    50  H    0.018495
    51  H    0.023760
    52  H    0.017614
    53  H    0.003285
    54  H    0.043333
    55  H    0.019867
    56  H    0.016359
    57  H    0.040549
    58  H    0.036978
    59  H    0.005488
    60  H    0.033574
    61  H   -0.000146
    62  H    0.049378
    63  H    0.020188
    64  H    0.005114
    65  H    0.021883
    66  H    0.018031
    67  H    0.048535
    68  H    0.006189
    69  H    0.014788
    70  H    0.010830
    71  H    0.009481
    72  H    0.020151
    73  H    0.037164
    74  H    0.020439
    75  H    0.025543
    76  H    0.051326
    77  H    0.051361
    78  H    0.045475
    79  H    0.047307
    80  Mg   0.833741
    81  C   -0.021634
    82  C   -0.082397
    83  C   -0.082484
    84  C   -0.070227
    85  N   -0.301345
    86  C   -0.047945
    87  C   -0.021333
    88  C   -0.060301
    89  C    0.062853
    90  C    0.098825
    91  C    0.032757
    92  C   -0.071352
    93  H    0.012246
    94  N   -0.387344
    95  C    0.146732
    96  C   -0.155077
    97  C   -0.004660
    98  C    0.127226
    99  C    0.117187
   100  C   -0.018924
   101  O   -0.218946
   102  C    0.063068
   103  N   -0.345534
   104  C    0.088130
   105  C   -0.030392
   106  C   -0.026195
   107  C    0.096049
   108  C    0.087180
   109  C    0.059782
   110  C   -0.013238
   111  N   -0.360220
   112  C    0.064610
   113  C   -0.139413
   114  C   -0.053636
   115  C    0.135642
   116  C    0.107533
   117  C    0.083237
   118  O   -0.200532
   119  C    0.008678
   120  C    0.216096
   121  O   -0.258500
   122  O   -0.336181
   123  C    0.163783
   124  H   -0.031018
   125  H   -0.005637
   126  H   -0.025156
   127  H    0.024976
   128  H    0.009741
   129  H    0.024698
   130  H   -0.000847
   131  H    0.024978
   132  H    0.010252
   133  H    0.037122
   134  H    0.029219
   135  H    0.033240
   136  H    0.035937
   137  H    0.012965
   138  H    0.069249
   139  H    0.020965
   140  H    0.047917
   141  H    0.039823
   142  H    0.013294
   143  H   -0.013158
   144  H    0.012556
   145  H    0.029010
   146  H    0.015619
   147  H    0.009174
   148  H    0.004020
   149  H    0.005244
   150  H    0.012577
   151  H    0.021861
   152  H    0.039139
   153  H    0.005220
   154  H    0.032306
   155  H    0.049884
   156  H    0.047874
   157  H    0.043088
   158  H    0.059134
 Sum of Mulliken charges =  -0.00000

 Dipole moment (field-independent basis, Debye):
    X=             -1.1441    Y=              1.2393    Z=              1.0780  Tot=              2.0017
 Quadrupole moment (field-independent basis, Debye-Ang):
   XX=           -610.1438   YY=           -462.8597   ZZ=           -514.6797
   XY=              9.4080   XZ=            -31.8814   YZ=             22.5171

 Normal termination of Gaussian 16 at Wed Sep  1 03:44:43 2021.
