 Gaussian 16, Revision A.03,
 Gaussian 16:  ES64L-G16RevA.03 25-Dec-2016

 ----------------------------------------------------------
 #p cam-b3lyp/Def2SVP td=(nstates=5) density=(transition=1)
 ----------------------------------------------------------

 --------------------------------
 TDDFT excited states in gaussian
 --------------------------------
 Symbolic Z-matrix:
 Charge =  0 Multiplicity = 1

                         Standard orientation:
 ---------------------------------------------------------------------
 Center     Atomic      Atomic             Coordinates (Angstroms)
 Number     Number       Type             X           Y           Z
 ---------------------------------------------------------------------
      1         12           0       19.176281   -0.918237   -0.009107
      2          6           0       21.096574    2.116151    0.144208
      3          6           0       16.952617    0.636509    2.273209
      4          6           0       17.233059   -3.818077    0.096408
      5          6           0       21.534513   -2.418394   -1.839019
      6          7           0       19.203806    1.149239    1.249931
      7          6           0       20.011548    2.207623    1.024808
      8          6           0       19.632920    3.385363    1.993184
      9          6           0       18.436981    2.736342    2.777499
     10          6           0       18.098750    1.435711    2.013367
     11          6           0       18.771765    2.507410    4.292781
     12          6           0       19.235675    4.667801    1.262556
     13          6           0       19.799704    5.939280    1.806445
     14          1           0       19.520022    7.251203    1.059094
     15          7           0       17.285484   -1.457672    0.838270
     16          6           0       16.567137   -0.677855    1.738546
     17          6           0       15.352052   -1.390194    2.080791
     18          6           0       15.340530   -2.603896    1.413585
     19          6           0       16.702967   -2.713607    0.791398
     20          6           0       14.357946   -0.939383    3.112116
     21          6           0       14.290252   -3.788907    1.422385
     22          8           0       14.346808   -4.828672    0.812629
     23          6           0       12.970070   -3.579075    2.131845
     24          7           0       19.389153   -2.843079   -0.600494
     25          6           0       18.517514   -3.894906   -0.489618
     26          6           0       19.147421   -5.227807   -0.957000
     27          6           0       20.405702   -4.740342   -1.793944
     28          6           0       20.425520   -3.212723   -1.405817
     29          6           0       19.461006   -6.202372    0.223020
     30          6           0       20.289553   -4.971288   -3.331409
     31          6           0       19.237787   -4.128931   -4.049765
     32          7           0       20.942831   -0.369798   -0.698641
     33          6           0       21.840596   -1.086073   -1.538439
     34          6           0       23.012003   -0.270634   -1.851625
     35          6           0       22.727764    0.975922   -1.265615
     36          6           0       21.479570    0.892451   -0.593627
     37          6           0       24.155547   -0.681990   -2.657296
     38          6           0       23.295573    2.310297   -1.102107
     39          8           0       24.314665    2.783262   -1.576700
     40          6           0       22.300067    3.101635   -0.094483
     41          6           0       22.026877    4.351091   -0.935268
     42          8           0       21.333980    4.454543   -1.963528
     43          8           0       22.715940    5.360612   -0.432421
     44          6           0       22.409077    6.774144   -0.896840
     45          1           0       16.237519    1.152463    2.916849
     46          1           0       16.696884   -4.770085    0.076342
     47          1           0       22.227328   -2.945109   -2.498140
     48          1           0       20.558103    3.597489    2.527983
     49          1           0       17.535809    3.347894    2.715902
     50          1           0       18.080373    2.953792    5.007496
     51          1           0       19.812595    2.701905    4.552208
     52          1           0       18.659316    1.487167    4.660290
     53          1           0       18.218605    4.806886    1.629486
     54          1           0       19.257027    4.568417    0.176745
     55          1           0       20.861999    6.005183    2.047100
     56          1           0       19.289518    6.039878    2.764471
     57          1           0       14.564535    0.077352    3.445302
     58          1           0       14.298647   -1.564734    4.004273
     59          1           0       13.323171   -0.879105    2.774512
     60          1           0       12.405054   -2.743286    1.719295
     61          1           0       13.298724   -3.446396    3.162662
     62          1           0       12.509067   -4.565998    2.091926
     63          1           0       18.340316   -5.713220   -1.506815
     64          1           0       21.393609   -4.983538   -1.402173
     65          1           0       18.820100   -7.084001    0.221585
     66          1           0       19.500675   -5.793277    1.231951
     67          1           0       20.493672   -6.469569   -0.002002
     68          1           0       20.313904   -6.047748   -3.501526
     69          1           0       21.232626   -4.654911   -3.776753
     70          1           0       18.591179   -3.528152   -3.411220
     71          1           0       18.597310   -4.843629   -4.565980
     72          1           0       19.622172   -3.336355   -4.690740
     73          1           0       24.935566    0.071314   -2.769609
     74          1           0       23.735817   -0.938985   -3.629780
     75          1           0       24.557240   -1.594071   -2.213599
     76          1           0       22.818030    3.480829    0.786422
     77          1           0       22.842803    7.431357   -0.142824
     78          1           0       21.342741    6.997981   -0.898739
     79          1           0       22.765777    6.987678   -1.905116
     80         12           0      -19.756091   -0.550333    0.089070
     81          6           0      -19.149228    2.753001   -1.027282
     82          6           0      -19.223997    0.520943    3.244780
     83          6           0      -20.190642   -3.649769    1.049782
     84          6           0      -19.537463   -1.573949   -3.342003
     85          7           0      -19.131666    1.426424    1.041132
     86          6           0      -19.208934    2.639481    0.377583
     87          6           0      -19.194312    3.703978    1.420869
     88          6           0      -18.660290    3.012726    2.675783
     89          6           0      -19.032527    1.543064    2.356984
     90          6           0      -17.098218    3.177557    2.787450
     91          6           0      -20.598689    4.463664    1.709292
     92          6           0      -20.634710    6.009683    1.910249
     93          1           0      -19.613141    6.608939    2.919580
     94          7           0      -19.692381   -1.422247    1.941840
     95          6           0      -19.481858   -0.815510    3.072604
     96          6           0      -19.496729   -1.823498    4.146861
     97          6           0      -19.991935   -3.037300    3.580999
     98          6           0      -19.954424   -2.753296    2.118267
     99          6           0      -19.108577   -1.652182    5.660597
    100          6           0      -20.441890   -4.349357    4.222802
    101          8           0      -20.742786   -5.375589    3.583687
    102          6           0      -20.321688   -4.488967    5.665895
    103          7           0      -19.675920   -2.408189   -1.050043
    104          6           0      -20.012945   -3.582439   -0.381965
    105          6           0      -20.265443   -4.719912   -1.445286
    106          6           0      -20.182169   -3.967819   -2.796950
    107          6           0      -19.812881   -2.540543   -2.386572
    108          6           0      -19.348231   -5.928528   -1.256759
    109          6           0      -21.411012   -4.101825   -3.731191
    110          6           0      -21.150026   -4.247320   -5.248581
    111          7           0      -19.403419    0.342478   -1.812730
    112          6           0      -19.292398   -0.187890   -3.094167
    113          6           0      -19.204887    0.900380   -4.034364
    114          6           0      -19.088203    2.059025   -3.265032
    115          6           0      -19.225863    1.698687   -1.896153
    116          6           0      -19.248947    0.815088   -5.434741
    117          6           0      -18.974652    3.524586   -3.300167
    118          8           0      -18.920195    4.330439   -4.215599
    119          6           0      -19.036952    4.031732   -1.822228
    120          6           0      -17.779217    4.844243   -1.570890
    121          8           0      -16.647461    4.550774   -1.258467
    122          8           0      -18.247716    6.121709   -1.679290
    123          6           0      -17.390801    7.216623   -1.165145
    124          1           0      -19.141781    0.868881    4.276962
    125          1           0      -20.534002   -4.619708    1.415359
    126          1           0      -19.692379   -1.834144   -4.390732
    127          1           0      -18.541491    4.555284    1.226384
    128          1           0      -19.231702    3.262472    3.569439
    129          1           0      -16.731630    3.229416    3.812089
    130          1           0      -16.735629    4.123826    2.385198
    131          1           0      -16.689639    2.276928    2.330435
    132          1           0      -21.121976    3.956231    2.519044
    133          1           0      -21.289677    4.274494    0.886958
    134          1           0      -21.612473    6.156495    2.370514
    135          1           0      -20.515119    6.365493    0.886894
    136          1           0      -19.937130   -1.717421    6.365460
    137          1           0      -18.633176   -0.675545    5.755795
    138          1           0      -18.468245   -2.434864    6.067480
    139          1           0      -20.839321   -3.678863    6.180273
    140          1           0      -19.274355   -4.502391    5.967847
    141          1           0      -20.907046   -5.364091    5.946354
    142          1           0      -21.316954   -4.990377   -1.347815
    143          1           0      -19.274835   -4.244374   -3.333597
    144          1           0      -18.433792   -5.774239   -1.830503
    145          1           0      -19.744352   -6.864195   -1.650079
    146          1           0      -18.962119   -5.924097   -0.237981
    147          1           0      -22.166607   -3.330175   -3.584581
    148          1           0      -22.014580   -4.968442   -3.458081
    149          1           0      -21.281131   -3.237316   -5.637192
    150          1           0      -21.976195   -4.858684   -5.613014
    151          1           0      -20.148677   -4.640412   -5.422156
    152          1           0      -18.820669    1.610954   -6.043647
    153          1           0      -20.291073    0.639493   -5.703502
    154          1           0      -18.651239   -0.060155   -5.686710
    155          1           0      -19.932812    4.633898   -1.671922
    156          1           0      -18.075895    7.869049   -0.624531
    157          1           0      -16.884975    7.825140   -1.914348
    158          1           0      -16.660803    6.818181   -0.461043
 ---------------------------------------------------------------------

 SCF Done:  E(RCAM-B3LYP) =  -4069.79015200     A.U. after   19 cycles

 Excitation energies and oscillator strengths:

 Excited State   1:      Singlet-A      1.6510 eV  750.97 nm  f=0.3680  <S**2>=0.000
     309 -> 316       -0.18398
     312 -> 313        0.68517
     309 <- 316       -0.11254
 This state for optimization and/or second-order correction.
 Total Energy, E(TD-HF/TD-DFT) =  -4069.72947909
 Copying the excited state density for this state as the 1-particle RhoCI density.

 Excited State   2:      Singlet-A      1.7330 eV  715.44 nm  f=0.3854  <S**2>=0.000
     310 -> 315       -0.19057
     311 -> 314        0.68153
     310 <- 315       -0.10758

 Excited State   3:      Singlet-A      2.2173 eV  559.17 nm  f=0.0907  <S**2>=0.000
     309 -> 313        0.62570
     312 -> 316        0.32049

 Excited State   4:      Singlet-A      2.2617 eV  548.20 nm  f=0.0688  <S**2>=0.000
     310 -> 314        0.62175
     311 -> 315        0.32225

 Excited State   5:      Singlet-A      3.1063 eV  399.13 nm  f=0.0000  <S**2>=0.000
     311 -> 313        0.70710

 The electronic state is 1-A.
 Alpha  occ. eigenvalues --  -46.89380 -46.88270 -19.24918 -19.24370 -19.20041
 Alpha  occ. eigenvalues --  -19.19491 -19.19341 -19.19268 -19.18691 -19.17977
 Alpha  occ. eigenvalues --  -14.42436 -14.41787 -14.41527 -14.41436 -14.40080
 Alpha  occ. eigenvalues --  -14.39868 -14.39655 -14.38965 -10.39243 -10.38442
 Alpha  occ. eigenvalues --  -10.35565 -10.35535 -10.35369 -10.34825 -10.32182
 Alpha  occ. eigenvalues --  -10.31708 -10.31464 -10.31381 -10.31347 -10.31215
 Alpha  occ. eigenvalues --  -10.31064 -10.31016 -10.30824 -10.30760 -10.30605
 Alpha  occ. eigenvalues --  -10.30350 -10.30053 -10.29997 -10.29978 -10.29889
 Alpha  occ. eigenvalues --  -10.29877 -10.29553 -10.29464 -10.28845 -10.28754
 Alpha  occ. eigenvalues --  -10.28719 -10.28575 -10.28392 -10.28388 -10.28344
 Alpha  occ. eigenvalues --  -10.28335 -10.28265 -10.28223 -10.28115 -10.27928
 Alpha  occ. eigenvalues --  -10.27906 -10.27722 -10.27679 -10.27593 -10.27543
 Alpha  occ. eigenvalues --  -10.27509 -10.27492 -10.27365 -10.27324 -10.27262
 Alpha  occ. eigenvalues --  -10.27193 -10.26866 -10.26810 -10.26700 -10.26592
 Alpha  occ. eigenvalues --  -10.26550 -10.26380 -10.26216 -10.26201 -10.26072
 Alpha  occ. eigenvalues --  -10.26061 -10.26048 -10.25996 -10.25811 -10.25725
 Alpha  occ. eigenvalues --  -10.25683 -10.25636 -10.25397 -10.25376 -10.25265
 Alpha  occ. eigenvalues --  -10.24806  -3.17767  -3.16961  -1.92665  -1.92224
 Alpha  occ. eigenvalues --   -1.92059  -1.91846  -1.91433  -1.91266  -1.16126
 Alpha  occ. eigenvalues --   -1.15920  -1.11429  -1.10013  -1.09600  -1.09374
 Alpha  occ. eigenvalues --   -1.07770  -1.05261  -1.05163  -1.03950  -1.03766
 Alpha  occ. eigenvalues --   -1.03104  -1.03064  -1.02193  -1.02079  -1.01679
 Alpha  occ. eigenvalues --   -0.92776  -0.90840  -0.89231  -0.88889  -0.88726
 Alpha  occ. eigenvalues --   -0.88487  -0.87995  -0.87973  -0.87571  -0.87332
 Alpha  occ. eigenvalues --   -0.87137  -0.86931  -0.86894  -0.86425  -0.84242
 Alpha  occ. eigenvalues --   -0.84098  -0.83600  -0.83559  -0.82742  -0.82478
 Alpha  occ. eigenvalues --   -0.82343  -0.81511  -0.81483  -0.81006  -0.80605
 Alpha  occ. eigenvalues --   -0.80142  -0.78397  -0.78110  -0.77459  -0.77281
 Alpha  occ. eigenvalues --   -0.77043  -0.76932  -0.75956  -0.75870  -0.75127
 Alpha  occ. eigenvalues --   -0.75103  -0.72571  -0.72517  -0.71826  -0.71624
 Alpha  occ. eigenvalues --   -0.70044  -0.68906  -0.68761  -0.68729  -0.67707
 Alpha  occ. eigenvalues --   -0.67514  -0.67375  -0.66254  -0.65485  -0.65457
 Alpha  occ. eigenvalues --   -0.65319  -0.65096  -0.65058  -0.64546  -0.64337
 Alpha  occ. eigenvalues --   -0.64034  -0.61948  -0.61756  -0.60491  -0.59614
 Alpha  occ. eigenvalues --   -0.59571  -0.59255  -0.59244  -0.58917  -0.58328
 Alpha  occ. eigenvalues --   -0.57953  -0.57681  -0.57510  -0.57340  -0.56217
 Alpha  occ. eigenvalues --   -0.56162  -0.55907  -0.55620  -0.55468  -0.55212
 Alpha  occ. eigenvalues --   -0.55001  -0.54643  -0.54472  -0.53942  -0.53707
 Alpha  occ. eigenvalues --   -0.53577  -0.53306  -0.53256  -0.53234  -0.53192
 Alpha  occ. eigenvalues --   -0.52958  -0.52871  -0.52696  -0.52438  -0.52402
 Alpha  occ. eigenvalues --   -0.52130  -0.52095  -0.51692  -0.51577  -0.51497
 Alpha  occ. eigenvalues --   -0.51212  -0.50944  -0.50870  -0.50807  -0.50423
 Alpha  occ. eigenvalues --   -0.50089  -0.49986  -0.49776  -0.49618  -0.49583
 Alpha  occ. eigenvalues --   -0.49368  -0.49265  -0.49204  -0.48993  -0.48929
 Alpha  occ. eigenvalues --   -0.48847  -0.48630  -0.48415  -0.48186  -0.48109
 Alpha  occ. eigenvalues --   -0.47669  -0.47499  -0.47428  -0.47400  -0.47140
 Alpha  occ. eigenvalues --   -0.46904  -0.46702  -0.46658  -0.46631  -0.46318
 Alpha  occ. eigenvalues --   -0.46264  -0.46161  -0.45929  -0.45807  -0.45558
 Alpha  occ. eigenvalues --   -0.45480  -0.45215  -0.45041  -0.44937  -0.44889
 Alpha  occ. eigenvalues --   -0.44700  -0.44389  -0.44361  -0.44137  -0.44056
 Alpha  occ. eigenvalues --   -0.43944  -0.43856  -0.43694  -0.43618  -0.43506
 Alpha  occ. eigenvalues --   -0.43133  -0.43027  -0.42976  -0.42967  -0.42945
 Alpha  occ. eigenvalues --   -0.42730  -0.42473  -0.42315  -0.42170  -0.42123
 Alpha  occ. eigenvalues --   -0.41925  -0.41792  -0.41549  -0.41385  -0.41250
 Alpha  occ. eigenvalues --   -0.40888  -0.40875  -0.40562  -0.40342  -0.40256
 Alpha  occ. eigenvalues --   -0.40164  -0.39864  -0.39620  -0.39558  -0.39178
 Alpha  occ. eigenvalues --   -0.38782  -0.38610  -0.38025  -0.37674  -0.37498
 Alpha  occ. eigenvalues --   -0.37403  -0.36600  -0.36534  -0.36459  -0.36033
 Alpha  occ. eigenvalues --   -0.35938  -0.35613  -0.34673  -0.33908  -0.33882
 Alpha  occ. eigenvalues --   -0.33111  -0.33103  -0.32704  -0.31697  -0.31415
 Alpha  occ. eigenvalues --   -0.31180  -0.30961  -0.30775  -0.30569  -0.30472
 Alpha  occ. eigenvalues --   -0.30332  -0.29958  -0.29267  -0.24084  -0.23979
 Alpha  occ. eigenvalues --   -0.20979  -0.20934
 Alpha virt. eigenvalues --   -0.08676  -0.08287  -0.02069  -0.02009  -0.00147
 Alpha virt. eigenvalues --    0.00679   0.01743   0.02310   0.02415   0.03436
 Alpha virt. eigenvalues --    0.05178   0.05185   0.05289   0.05771   0.05959

 Mulliken charges:
               1
     1  Mg  11.999311
     2  C    6.022130
     3  C    5.976502
     4  C    5.971651
     5  C    6.007392
     6  N    7.009227
     7  C    5.970695
     8  C    6.004813
     9  C    5.993773
    10  C    6.033158
    11  C    5.997441
    12  C    6.005765
    13  C    6.001938
    14  H    0.999407
    15  N    6.990150
    16  C    6.051775
    17  C    6.014462
    18  C    6.018591
    19  C    6.043708
    20  C    5.993027
    21  C    6.012219
    22  O    8.026503
    23  C    5.996337
    24  N    6.987765
    25  C    6.042467
    26  C    5.992782
    27  C    6.004146
    28  C    5.966274
    29  C    5.994579
    30  C    6.005540
    31  C    6.006938
    32  N    7.005717
    33  C    5.959009
    34  C    5.971506
    35  C    5.995829
    36  C    5.963834
    37  C    6.002098
    38  C    5.985557
    39  O    7.971773
    40  C    5.997062
    41  C    5.996476
    42  O    7.995046
    43  O    7.999879
    44  C    6.002404
    45  H    1.010224
    46  H    1.006121
    47  H    0.987270
    48  H    1.003629
    49  H    0.998789
    50  H    1.002883
    51  H    1.012988
    52  H    0.997641
    53  H    0.990268
    54  H    1.003676
    55  H    1.003349
    56  H    0.994123
    57  H    1.018410
    58  H    1.020654
    59  H    1.019562
    60  H    1.007737
    61  H    1.004978
    62  H    1.014475
    63  H    0.997506
    64  H    1.002446
    65  H    0.999920
    66  H    0.998778
    67  H    1.013892
    68  H    0.989446
    69  H    1.004106
    70  H    0.988237
    71  H    0.991269
    72  H    1.004208
    73  H    0.984550
    74  H    0.981349
    75  H    0.981242
    76  H    0.991154
    77  H    0.995377
    78  H    0.994690
    79  H    0.998394
    80  Mg  12.000006
    81  C    5.999858
    82  C    5.999969
    83  C    6.000076
    84  C    6.000006
    85  N    7.000010
    86  C    6.000115
    87  C    5.999968
    88  C    6.000027
    89  C    5.999927
    90  C    6.000024
    91  C    5.999951
    92  C    6.000009
    93  H    0.999984
    94  N    7.000004
    95  C    5.999903
    96  C    5.999863
    97  C    6.000007
    98  C    5.999806
    99  C    6.000045
   100  C    5.999960
   101  O    7.999934
   102  C    6.000002
   103  N    6.999993
   104  C    5.999870
   105  C    6.000020
   106  C    6.000003
   107  C    6.000036
   108  C    6.000037
   109  C    5.999942
   110  C    5.999987
   111  N    7.000015
   112  C    6.000083
   113  C    6.000137
   114  C    5.999958
   115  C    6.000157
   116  C    5.999952
   117  C    6.000086
   118  O    8.000146
   119  C    6.000012
   120  C    6.000006
   121  O    7.999934
   122  O    8.000034
   123  C    5.999998
   124  H    0.999983
   125  H    0.999993
   126  H    1.000048
   127  H    1.000005
   128  H    1.000036
   129  H    0.999934
   130  H    0.999934
   131  H    0.999919
   132  H    1.000079
   133  H    1.000042
   134  H    1.000085
   135  H    1.000004
   136  H    0.999967
   137  H    0.999882
   138  H    0.999848
   139  H    1.000022
   140  H    0.999887
   141  H    0.999991
   142  H    1.000051
   143  H    0.999952
   144  H    0.999892
   145  H    1.000014
   146  H    0.999963
   147  H    1.000056
   148  H    1.000081
   149  H    1.000005
   150  H    1.000087
   151  H    0.999964
   152  H    1.000079
   153  H    1.000162
   154  H    1.000030
   155  H    1.000095
   156  H    1.000080
   157  H    1.000030
   158  H    0.999938
 Sum of Mulliken charges = 624.00000

 Dipole moment (field-independent basis, Debye):
    X=             -9.3645    Y=             -2.6434    Z=              4.7841  Tot=             10.8429
 Quadrupole moment (field-independent basis, Debye-Ang):
   XX=           -356.1309   YY=              2.0809   ZZ=              1.0418
   XY=            -42.7377   XZ=             92.3000   YZ=             -4.7056

 Normal termination of Gaussian 16 at Wed Sep 22 11:08:20 2021.
