 Gaussian 16, Revision A.03,
 Gaussian 16:  ES64L-G16RevA.03 25-Dec-2016

 -----------------------------------
 #p cam-b3lyp/Def2SVP td=(nstates=5)
 -----------------------------------

 --------------------------------
 TDDFT excited states in gaussian
 --------------------------------
 Symbolic Z-matrix:
 Charge =  0 Multiplicity = 1

                         Standard orientation:
 ---------------------------------------------------------------------
 Center     Atomic      Atomic             Coordinates (Angstroms)
 Number     Number       Type             X           Y           Z
 ---------------------------------------------------------------------
      1         12           0       16.409589    0.673533   -0.309470
      2          6           0       15.804376   -2.067968    1.832518
      3          6           0       14.128723    2.527608    1.433578
      4          6           0       16.539773    2.904787   -2.733237
      5          6           0       18.373482   -1.493848   -2.317313
      6          7           0       15.206020    0.276274    1.515504
      7          6           0       15.147863   -0.862600    2.177133
      8          6           0       14.490482   -0.599585    3.519919
      9          6           0       13.590879    0.665043    3.238490
     10          6           0       14.333588    1.219279    1.965939
     11          6           0       12.073800    0.268131    3.081385
     12          6           0       15.518992   -0.256460    4.628024
     13          6           0       15.016589   -0.463378    6.124246
     14          1           0       13.595716   -0.935873    6.443664
     15          7           0       15.640835    2.518556   -0.503348
     16          6           0       14.745007    3.197942    0.361558
     17          6           0       14.538098    4.566028   -0.168196
     18          6           0       15.191440    4.641262   -1.450502
     19          6           0       15.852797    3.334349   -1.655880
     20          6           0       13.776946    5.625411    0.547674
     21          6           0       15.321647    5.792271   -2.522485
     22          8           0       16.011811    5.711511   -3.547754
     23          6           0       14.454072    7.007795   -2.369021
     24          7           0       17.245301    0.663948   -2.331884
     25          6           0       17.210044    1.719054   -3.101730
     26          6           0       17.945902    1.587002   -4.405643
     27          6           0       18.550784    0.143332   -4.295011
     28          6           0       18.115303   -0.247155   -2.846898
     29          6           0       17.049937    1.922098   -5.601664
     30          6           0       20.064447    0.072379   -4.452912
     31          6           0       20.631752   -1.140449   -5.274146
     32          7           0       17.090691   -1.386577   -0.282826
     33          6           0       17.927204   -2.102169   -1.161761
     34          6           0       18.220133   -3.368100   -0.582827
     35          6           0       17.290822   -3.500002    0.497812
     36          6           0       16.681838   -2.282101    0.664942
     37          6           0       19.311022   -4.301776   -1.022889
     38          6           0       16.789408   -4.291316    1.647093
     39          8           0       17.058152   -5.423480    1.991246
     40          6           0       15.630663   -3.442066    2.356929
     41          6           0       15.572677   -3.745965    3.818223
     42          8           0       16.440266   -3.564850    4.620815
     43          8           0       14.368117   -4.388835    4.159694
     44          6           0       14.423573   -5.339998    5.290030
     45          1           0       13.283938    3.106597    1.813603
     46          1           0       16.764593    3.622944   -3.523774
     47          1           0       19.044432   -2.109265   -2.920381
     48          1           0       14.052737   -1.566517    3.767733
     49          1           0       13.662763    1.395857    4.044701
     50          1           0       11.953419   -0.809924    3.182802
     51          1           0       11.870540    0.463248    2.028407
     52          1           0       11.403836    0.727109    3.808533
     53          1           0       15.730765    0.802647    4.475653
     54          1           0       16.415015   -0.842643    4.424298
     55          1           0       15.191408    0.500929    6.603797
     56          1           0       15.737676   -1.153364    6.563158
     57          1           0       13.487616    5.462859    1.585301
     58          1           0       12.818616    5.837774    0.074575
     59          1           0       14.453970    6.479939    0.535802
     60          1           0       14.886928    7.786504   -1.741229
     61          1           0       13.566153    6.534780   -1.947748
     62          1           0       14.246692    7.355788   -3.380575
     63          1           0       18.726290    2.339903   -4.295790
     64          1           0       18.132847   -0.567285   -5.007010
     65          1           0       15.986449    1.772554   -5.412777
     66          1           0       17.333935    1.211075   -6.376476
     67          1           0       17.181511    2.945861   -5.952642
     68          1           0       20.559152    0.034164   -3.482540
     69          1           0       20.336755    1.068248   -4.802152
     70          1           0       19.850406   -1.862214   -5.511555
     71          1           0       21.346861   -1.610843   -4.599599
     72          1           0       21.165210   -0.942601   -6.204447
     73          1           0       19.191261   -4.379207   -2.103627
     74          1           0       19.250580   -5.303663   -0.597442
     75          1           0       20.284990   -3.846474   -0.840679
     76          1           0       14.667703   -3.834896    2.032167
     77          1           0       13.796112   -4.943982    6.088644
     78          1           0       15.442704   -5.510762    5.638635
     79          1           0       14.004573   -6.268017    4.901112
     80         12           0      -16.225391    0.428832    0.610321
     81          6           0      -16.492685   -2.676878   -1.158725
     82          6           0      -12.714559    0.014091    0.464998
     83          6           0      -15.897234    3.632510    1.553215
     84          6           0      -19.592227    0.936889    0.044926
     85          7           0      -14.737931   -1.159730   -0.240369
     86          6           0      -15.154393   -2.269308   -0.921232
     87          6           0      -13.964463   -2.925469   -1.603408
     88          6           0      -12.803572   -2.190004   -0.811696
     89          6           0      -13.394562   -1.014570   -0.131181
     90          6           0      -11.991645   -3.039134    0.223193
     91          6           0      -14.069926   -2.751147   -3.152482
     92          6           0      -13.778469   -3.981527   -4.106420
     93          1           0      -12.615057   -3.908464   -5.111658
     94          7           0      -14.634634    1.578260    1.130546
     95          6           0      -13.257507    1.248974    1.025331
     96          6           0      -12.435818    2.334286    1.528400
     97          6           0      -13.385942    3.391319    1.835822
     98          6           0      -14.697954    2.864236    1.510334
     99          6           0      -10.965639    2.271777    1.499552
    100          6           0      -12.960206    4.750908    2.416873
    101          8           0      -11.714624    4.949718    2.521123
    102          6           0      -13.919531    5.869766    2.875285
    103          7           0      -17.491511    2.217959    0.552791
    104          6           0      -17.180772    3.351103    1.152584
    105          6           0      -18.357603    4.268952    1.072206
    106          6           0      -19.529047    3.346562    0.640884
    107          6           0      -18.820692    2.072092    0.298337
    108          6           0      -18.744386    5.174409    2.318733
    109          6           0      -20.430272    3.900530   -0.579708
    110          6           0      -21.916649    4.237743   -0.306908
    111          7           0      -17.767207   -0.667929   -0.150105
    112          6           0      -19.061964   -0.349605   -0.317022
    113          6           0      -19.787839   -1.413229   -0.908370
    114          6           0      -18.811264   -2.365176   -1.210292
    115          6           0      -17.565935   -1.852495   -0.766923
    116          6           0      -21.229762   -1.568431   -1.182271
    117          6           0      -18.671385   -3.640686   -1.842411
    118          8           0      -19.520215   -4.306736   -2.391420
    119          6           0      -17.033137   -3.890049   -1.871790
    120          6           0      -16.703681   -5.124913   -1.150110
    121          8           0      -17.187314   -5.475600   -0.066304
    122          8           0      -15.746649   -5.776203   -1.898729
    123          6           0      -15.263794   -7.050361   -1.368943
    124          1           0      -11.625865   -0.057226    0.455147
    125          1           0      -15.841642    4.704226    1.753419
    126          1           0      -20.684276    0.951353    0.051532
    127          1           0      -13.946285   -3.958765   -1.255945
    128          1           0      -12.254675   -1.811374   -1.674734
    129          1           0      -12.071185   -2.536601    1.188224
    130          1           0      -10.927007   -3.113631    0.002715
    131          1           0      -12.372751   -4.043299    0.411461
    132          1           0      -13.306961   -1.985972   -3.293892
    133          1           0      -14.998059   -2.314799   -3.520945
    134          1           0      -14.718809   -4.151020   -4.630629
    135          1           0      -13.725833   -4.879286   -3.491247
    136          1           0      -10.691153    2.017045    0.475627
    137          1           0      -10.616674    1.443401    2.115739
    138          1           0      -10.410484    3.119747    1.901470
    139          1           0      -14.365314    6.314636    1.985487
    140          1           0      -13.347246    6.418558    3.622505
    141          1           0      -14.681433    5.318156    3.427074
    142          1           0      -18.128475    4.998317    0.296257
    143          1           0      -20.017334    3.149507    1.595350
    144          1           0      -19.222923    6.048780    1.876909
    145          1           0      -17.834301    5.408419    2.870858
    146          1           0      -19.466233    4.602656    2.902205
    147          1           0      -20.338913    3.121796   -1.336714
    148          1           0      -19.895588    4.740264   -1.023430
    149          1           0      -22.591235    3.794242   -1.038047
    150          1           0      -22.031414    5.322009   -0.306985
    151          1           0      -22.252794    3.959409    0.692084
    152          1           0      -21.501182   -2.612000   -1.338446
    153          1           0      -21.265317   -0.977824   -2.097889
    154          1           0      -21.773432   -0.919203   -0.496073
    155          1           0      -16.639961   -3.818326   -2.885244
    156          1           0      -16.085833   -7.723190   -1.123651
    157          1           0      -14.639874   -6.872045   -0.491902
    158          1           0      -14.663616   -7.540631   -2.135481
 ---------------------------------------------------------------------

 SCF Done:  E(RCAM-B3LYP) =  -4069.78166170     A.U. after   19 cycles

 Excitation energies and oscillator strengths:

 Excited State   1:      Singlet-A      1.6989 eV  729.80 nm  f=0.3886  <S**2>=0.000
     309 -> 316       -0.18528
     311 -> 313        0.68533
     309 <- 316       -0.11147
 This state for optimization and/or second-order correction.
 Total Energy, E(TD-HF/TD-DFT) =  -4069.71922872
 Copying the excited state density for this state as the 1-particle RhoCI density.

 Excited State   2:      Singlet-A      1.7951 eV  690.68 nm  f=0.3739  <S**2>=0.000
     310 -> 315       -0.18884
     312 -> 314        0.68026
     310 <- 315       -0.10303

 Excited State   3:      Singlet-A      2.1694 eV  571.52 nm  f=0.0990  <S**2>=0.000
     310 -> 314        0.64307
     312 -> 315        0.27289

 Excited State   4:      Singlet-A      2.2522 eV  550.51 nm  f=0.1328  <S**2>=0.000
     309 -> 313        0.64095
     311 -> 316        0.28915

 Excited State   5:      Singlet-A      3.0752 eV  403.17 nm  f=0.0000  <S**2>=0.000
     312 -> 313        0.70709

 The electronic state is 1-A.
 Alpha  occ. eigenvalues --  -46.88941 -46.88527 -19.26304 -19.23255 -19.20589
 Alpha  occ. eigenvalues --  -19.20292 -19.19773 -19.19565 -19.18354 -19.18173
 Alpha  occ. eigenvalues --  -14.41968 -14.41954 -14.41728 -14.41435 -14.39968
 Alpha  occ. eigenvalues --  -14.39860 -14.39731 -14.37992 -10.40126 -10.38537
 Alpha  occ. eigenvalues --  -10.36782 -10.35480 -10.35286 -10.34802 -10.32479
 Alpha  occ. eigenvalues --  -10.32201 -10.31536 -10.31225 -10.30873 -10.30809
 Alpha  occ. eigenvalues --  -10.30803 -10.30671 -10.30622 -10.30599 -10.30433
 Alpha  occ. eigenvalues --  -10.30361 -10.30344 -10.30083 -10.29792 -10.29720
 Alpha  occ. eigenvalues --  -10.29194 -10.29116 -10.28979 -10.28764 -10.28596
 Alpha  occ. eigenvalues --  -10.28195 -10.28174 -10.28137 -10.28079 -10.27963
 Alpha  occ. eigenvalues --  -10.27879 -10.27843 -10.27811 -10.27684 -10.27659
 Alpha  occ. eigenvalues --  -10.27626 -10.27620 -10.27615 -10.27580 -10.27554
 Alpha  occ. eigenvalues --  -10.27521 -10.27505 -10.27487 -10.27375 -10.27265
 Alpha  occ. eigenvalues --  -10.27232 -10.27033 -10.26882 -10.26820 -10.26717
 Alpha  occ. eigenvalues --  -10.26684 -10.26470 -10.26438 -10.26266 -10.26211
 Alpha  occ. eigenvalues --  -10.26144 -10.26106 -10.26068 -10.25964 -10.25864
 Alpha  occ. eigenvalues --  -10.25849 -10.25607 -10.25435 -10.25089 -10.24596
 Alpha  occ. eigenvalues --  -10.24412  -3.17495  -3.16988  -1.92385  -1.91939
 Alpha  occ. eigenvalues --   -1.91900  -1.91812  -1.91445  -1.91284  -1.16574
 Alpha  occ. eigenvalues --   -1.15190  -1.10853  -1.10470  -1.09531  -1.08199
 Alpha  occ. eigenvalues --   -1.07283  -1.06987  -1.05487  -1.05095  -1.04760
 Alpha  occ. eigenvalues --   -1.04507  -1.03777  -1.02374  -1.01682  -1.00957
 Alpha  occ. eigenvalues --   -0.93215  -0.91805  -0.89361  -0.89272  -0.88890
 Alpha  occ. eigenvalues --   -0.88318  -0.88166  -0.88006  -0.87732  -0.87581
 Alpha  occ. eigenvalues --   -0.87509  -0.87223  -0.86043  -0.85429  -0.84670
 Alpha  occ. eigenvalues --   -0.83970  -0.83893  -0.83677  -0.82853  -0.82761
 Alpha  occ. eigenvalues --   -0.82054  -0.81684  -0.81401  -0.80661  -0.80520
 Alpha  occ. eigenvalues --   -0.79854  -0.78586  -0.78258  -0.77680  -0.77178
 Alpha  occ. eigenvalues --   -0.76914  -0.76366  -0.76332  -0.75388  -0.75380
 Alpha  occ. eigenvalues --   -0.75136  -0.73231  -0.72495  -0.72248  -0.71684
 Alpha  occ. eigenvalues --   -0.69846  -0.69817  -0.69421  -0.68608  -0.68516
 Alpha  occ. eigenvalues --   -0.67240  -0.66785  -0.66618  -0.66189  -0.66033
 Alpha  occ. eigenvalues --   -0.65668  -0.65181  -0.65153  -0.64801  -0.64512
 Alpha  occ. eigenvalues --   -0.63453  -0.62991  -0.61037  -0.60190  -0.60179
 Alpha  occ. eigenvalues --   -0.59939  -0.59581  -0.59090  -0.58951  -0.58589
 Alpha  occ. eigenvalues --   -0.58465  -0.58044  -0.57629  -0.57529  -0.56819
 Alpha  occ. eigenvalues --   -0.56444  -0.56272  -0.56017  -0.55681  -0.55424
 Alpha  occ. eigenvalues --   -0.55068  -0.54896  -0.54538  -0.54255  -0.53728
 Alpha  occ. eigenvalues --   -0.53665  -0.53326  -0.53189  -0.53105  -0.52972
 Alpha  occ. eigenvalues --   -0.52811  -0.52673  -0.52166  -0.52129  -0.52008
 Alpha  occ. eigenvalues --   -0.51799  -0.51720  -0.51450  -0.51351  -0.51262
 Alpha  occ. eigenvalues --   -0.51186  -0.50896  -0.50615  -0.50496  -0.50371
 Alpha  occ. eigenvalues --   -0.50164  -0.50065  -0.50020  -0.50006  -0.49600
 Alpha  occ. eigenvalues --   -0.49443  -0.49270  -0.48928  -0.48822  -0.48637
 Alpha  occ. eigenvalues --   -0.48498  -0.48321  -0.48012  -0.47970  -0.47824
 Alpha  occ. eigenvalues --   -0.47777  -0.47692  -0.47628  -0.47508  -0.47484
 Alpha  occ. eigenvalues --   -0.47304  -0.47067  -0.47008  -0.46681  -0.46546
 Alpha  occ. eigenvalues --   -0.46487  -0.46480  -0.46158  -0.46139  -0.45971
 Alpha  occ. eigenvalues --   -0.45656  -0.45549  -0.45436  -0.45407  -0.45030
 Alpha  occ. eigenvalues --   -0.45017  -0.44866  -0.44572  -0.44241  -0.43929
 Alpha  occ. eigenvalues --   -0.43808  -0.43709  -0.43690  -0.43591  -0.43314
 Alpha  occ. eigenvalues --   -0.43310  -0.43119  -0.43062  -0.42978  -0.42842
 Alpha  occ. eigenvalues --   -0.42725  -0.42589  -0.42357  -0.42243  -0.42000
 Alpha  occ. eigenvalues --   -0.41678  -0.41561  -0.41542  -0.41344  -0.41262
 Alpha  occ. eigenvalues --   -0.41140  -0.41137  -0.40964  -0.40888  -0.40367
 Alpha  occ. eigenvalues --   -0.40261  -0.40125  -0.39989  -0.39046  -0.38959
 Alpha  occ. eigenvalues --   -0.38778  -0.38772  -0.38281  -0.37752  -0.37711
 Alpha  occ. eigenvalues --   -0.37671  -0.37547  -0.36479  -0.36365  -0.35885
 Alpha  occ. eigenvalues --   -0.35742  -0.35393  -0.35218  -0.34161  -0.34146
 Alpha  occ. eigenvalues --   -0.33783  -0.33088  -0.33051  -0.31888  -0.31364
 Alpha  occ. eigenvalues --   -0.31176  -0.31157  -0.30464  -0.30373  -0.30143
 Alpha  occ. eigenvalues --   -0.29910  -0.29406  -0.28289  -0.24204  -0.23715
 Alpha  occ. eigenvalues --   -0.21346  -0.21317
 Alpha virt. eigenvalues --   -0.08962  -0.08476  -0.02013  -0.01765  -0.00111
 Alpha virt. eigenvalues --    0.00248   0.02267   0.02391   0.02731   0.03020
 Alpha virt. eigenvalues --    0.04219   0.04833   0.04977   0.05779   0.05797

 Mulliken charges:
               1
     1  Mg   0.811738
     2  C    0.065952
     3  C   -0.080718
     4  C   -0.049834
     5  C   -0.080359
     6  N   -0.243698
     7  C   -0.044145
     8  C   -0.078522
     9  C   -0.052586
    10  C    0.070641
    11  C    0.081535
    12  C    0.031095
    13  C   -0.039731
    14  H    0.027247
    15  N   -0.472450
    16  C    0.156189
    17  C   -0.129835
    18  C   -0.044011
    19  C    0.185476
    20  C    0.083018
    21  C    0.032478
    22  O   -0.206821
    23  C    0.049072
    24  N   -0.232703
    25  C   -0.065508
    26  C    0.007708
    27  C   -0.051188
    28  C    0.034425
    29  C    0.080387
    30  C    0.038156
    31  C   -0.000209
    32  N   -0.356288
    33  C    0.124438
    34  C   -0.178873
    35  C    0.006946
    36  C    0.040653
    37  C    0.124968
    38  C    0.058941
    39  O   -0.165444
    40  C   -0.025074
    41  C    0.157055
    42  O   -0.178242
    43  O   -0.379233
    44  C    0.174378
    45  H   -0.025409
    46  H   -0.012909
    47  H   -0.046879
    48  H    0.010035
    49  H    0.010034
    50  H    0.016338
    51  H    0.011417
    52  H    0.026256
    53  H    0.000557
    54  H    0.030954
    55  H    0.019296
    56  H    0.041681
    57  H    0.019287
    58  H    0.042716
    59  H    0.038272
    60  H    0.056942
    61  H    0.022365
    62  H    0.039045
    63  H    0.015466
    64  H    0.015263
    65  H    0.024423
    66  H    0.009830
    67  H    0.034417
    68  H    0.006797
    69  H   -0.002342
    70  H    0.016784
    71  H    0.017332
    72  H    0.022470
    73  H    0.015581
    74  H    0.033842
    75  H    0.028230
    76  H    0.049775
    77  H    0.034589
    78  H    0.052970
    79  H    0.037554
    80  Mg   0.845495
    81  C   -0.112928
    82  C   -0.073121
    83  C   -0.090992
    84  C   -0.092579
    85  N   -0.247128
    86  C   -0.075127
    87  C   -0.009296
    88  C   -0.029571
    89  C    0.035774
    90  C    0.076715
    91  C    0.033467
    92  C   -0.045970
    93  H    0.033776
    94  N   -0.393807
    95  C    0.113867
    96  C   -0.127960
    97  C   -0.056977
    98  C    0.207447
    99  C    0.128647
   100  C   -0.019461
   101  O   -0.249056
   102  C    0.082577
   103  N   -0.275368
   104  C   -0.016098
   105  C   -0.039375
   106  C   -0.051982
   107  C    0.065274
   108  C    0.078743
   109  C    0.053593
   110  C    0.008843
   111  N   -0.340887
   112  C    0.092010
   113  C   -0.194184
   114  C   -0.020881
   115  C    0.159325
   116  C    0.167691
   117  C    0.065301
   118  O   -0.152004
   119  C    0.021589
   120  C    0.224372
   121  O   -0.224357
   122  O   -0.341404
   123  C    0.178485
   124  H   -0.025653
   125  H   -0.057514
   126  H   -0.022529
   127  H   -0.004096
   128  H    0.003319
   129  H    0.016645
   130  H    0.023069
   131  H    0.015205
   132  H    0.006876
   133  H    0.030308
   134  H    0.025837
   135  H    0.020630
   136  H    0.025825
   137  H    0.010129
   138  H    0.043694
   139  H    0.062281
   140  H    0.038704
   141  H    0.023448
   142  H    0.011739
   143  H    0.009080
   144  H    0.018285
   145  H    0.020250
   146  H    0.011108
   147  H    0.009914
   148  H    0.000800
   149  H    0.024661
   150  H    0.014033
   151  H    0.012640
   152  H    0.057026
   153  H    0.022595
   154  H    0.007172
   155  H    0.030658
   156  H    0.047816
   157  H    0.034993
   158  H    0.038575
 Sum of Mulliken charges =  -0.00000

 Dipole moment (field-independent basis, Debye):
    X=             -2.7416    Y=              6.3741    Z=             -1.6007  Tot=              7.1209
 Quadrupole moment (field-independent basis, Debye-Ang):
   XX=           -555.6440   YY=           -514.5510   ZZ=           -511.6399
   XY=              9.2289   XZ=            -50.2748   YZ=             14.3169

 Normal termination of Gaussian 16 at Wed Sep 15 01:24:56 2021.
