 Gaussian 16, Revision A.03,
 Gaussian 16:  ES64L-G16RevA.03 25-Dec-2016

 -----------------------------------
 #p cam-b3lyp/Def2SVP td=(nstates=5)
 -----------------------------------

 --------------------------------
 TDDFT excited states in gaussian
 --------------------------------
 Symbolic Z-matrix:
 Charge =  0 Multiplicity = 1

                         Standard orientation:
 ---------------------------------------------------------------------
 Center     Atomic      Atomic             Coordinates (Angstroms)
 Number     Number       Type             X           Y           Z
 ---------------------------------------------------------------------
      1         12           0       19.563954   -0.810331   -0.003246
      2          6           0       21.758284    2.016056   -0.096356
      3          6           0       18.069197    0.627226    2.706403
      4          6           0       17.919380   -3.494930    0.377443
      5          6           0       21.907366   -2.507474   -1.945870
      6          7           0       19.953101    1.084355    1.073497
      7          6           0       20.784291    2.107271    0.900471
      8          6           0       20.474497    3.319036    1.829462
      9          6           0       19.709678    2.550836    2.998615
     10          6           0       19.181644    1.367493    2.206906
     11          6           0       20.635172    2.034302    4.095500
     12          6           0       19.549785    4.376871    1.138358
     13          6           0       19.465066    5.732340    1.846087
     14          1           0       19.350451    6.937736    1.039098
     15          7           0       17.903578   -1.163287    1.007409
     16          6           0       17.440631   -0.466737    2.073141
     17          6           0       16.173532   -1.119255    2.467299
     18          6           0       16.034424   -2.365580    1.663919
     19          6           0       17.309354   -2.405236    0.994323
     20          6           0       15.223899   -0.535474    3.467872
     21          6           0       14.932146   -3.368190    1.530173
     22          8           0       15.106098   -4.497944    0.957486
     23          6           0       13.650773   -3.025466    2.173341
     24          7           0       19.959370   -2.799887   -0.496142
     25          6           0       19.053696   -3.758834   -0.274422
     26          6           0       19.434926   -5.038481   -0.957873
     27          6           0       20.674981   -4.684327   -1.899463
     28          6           0       20.850850   -3.196252   -1.508345
     29          6           0       19.812613   -6.204169   -0.033463
     30          6           0       20.542195   -5.041517   -3.401196
     31          6           0       19.479407   -4.177411   -4.042211
     32          7           0       21.409586   -0.305726   -1.027972
     33          6           0       22.233199   -1.174611   -1.758295
     34          6           0       23.419153   -0.401400   -2.170273
     35          6           0       23.209530    0.867329   -1.633401
     36          6           0       21.983727    0.878235   -0.908433
     37          6           0       24.533711   -0.907998   -2.895222
     38          6           0       23.747871    2.209479   -1.482806
     39          8           0       24.710593    2.815699   -1.955202
     40          6           0       22.889669    2.972722   -0.379730
     41          6           0       22.542541    4.328485   -0.931744
     42          8           0       21.774292    4.444023   -1.908376
     43          8           0       22.973481    5.276616   -0.085647
     44          6           0       22.634765    6.645076   -0.559718
     45          1           0       17.678987    0.865443    3.697831
     46          1           0       17.330756   -4.414588    0.391169
     47          1           0       22.639883   -2.947119   -2.625270
     48          1           0       21.355171    3.822484    2.228683
     49          1           0       18.883401    3.138024    3.398864
     50          1           0       21.683294    2.167164    3.827716
     51          1           0       20.400189    0.974849    4.199593
     52          1           0       20.391235    2.491007    5.055027
     53          1           0       18.511258    4.057349    1.224538
     54          1           0       19.847465    4.530063    0.100453
     55          1           0       20.255013    5.843957    2.589346
     56          1           0       18.542220    5.757934    2.425657
     57          1           0       15.673363    0.296461    4.008622
     58          1           0       15.056980   -1.296353    4.230046
     59          1           0       14.273048   -0.253628    3.015347
     60          1           0       13.812936   -2.874492    3.240796
     61          1           0       12.954802   -3.817000    1.897753
     62          1           0       13.301568   -2.071029    1.778304
     63          1           0       18.616392   -5.413226   -1.571057
     64          1           0       21.586162   -5.193527   -1.584600
     65          1           0       19.211003   -7.099850   -0.190070
     66          1           0       19.735421   -5.856339    0.996269
     67          1           0       20.858521   -6.505989   -0.082422
     68          1           0       20.226583   -6.077707   -3.518011
     69          1           0       21.470504   -4.912805   -3.957905
     70          1           0       18.558204   -4.708371   -3.804935
     71          1           0       19.632323   -4.123582   -5.120603
     72          1           0       19.422632   -3.197940   -3.566922
     73          1           0       24.775749   -0.156661   -3.646808
     74          1           0       24.303308   -1.868645   -3.355302
     75          1           0       25.271534   -0.993268   -2.097599
     76          1           0       23.513457    3.040828    0.510984
     77          1           0       23.567171    7.207571   -0.609223
     78          1           0       21.853447    7.017979    0.102770
     79          1           0       22.290364    6.726375   -1.591279
     80         12           0      -20.328878   -0.506997    0.068009
     81          6           0      -19.632398    2.655282   -1.258474
     82          6           0      -20.068369    0.768855    3.227906
     83          6           0      -20.652145   -3.583001    1.240564
     84          6           0      -20.383011   -1.744441   -3.284934
     85          7           0      -19.846254    1.503301    0.866481
     86          6           0      -19.660963    2.682617    0.179767
     87          6           0      -19.692878    3.863351    1.132555
     88          6           0      -19.548630    3.179856    2.549560
     89          6           0      -19.941484    1.711970    2.167818
     90          6           0      -18.143709    3.270797    3.131494
     91          6           0      -20.942594    4.766879    0.826412
     92          6           0      -21.174979    5.879366    1.886172
     93          1           0      -19.945464    6.416844    2.588562
     94          7           0      -20.372037   -1.266252    1.908162
     95          6           0      -20.142560   -0.610723    3.111262
     96          6           0      -20.168704   -1.541424    4.253320
     97          6           0      -20.382568   -2.816103    3.644107
     98          6           0      -20.467578   -2.582636    2.204864
     99          6           0      -20.045307   -1.100971    5.663817
    100          6           0      -20.481404   -4.137546    4.361733
    101          8           0      -20.717910   -5.214964    3.748105
    102          6           0      -20.381650   -4.221963    5.860732
    103          7           0      -20.552034   -2.404736   -0.907896
    104          6           0      -20.666063   -3.495726   -0.150090
    105          6           0      -20.672071   -4.802789   -1.058756
    106          6           0      -20.540671   -4.197171   -2.565708
    107          6           0      -20.472607   -2.702960   -2.247235
    108          6           0      -19.468844   -5.730690   -0.612503
    109          6           0      -21.790250   -4.487640   -3.502367
    110          6           0      -21.767877   -5.846436   -4.259612
    111          7           0      -20.012258    0.206669   -1.858378
    112          6           0      -20.175628   -0.360638   -3.149776
    113          6           0      -19.970761    0.719234   -4.211458
    114          6           0      -19.684052    1.896771   -3.528297
    115          6           0      -19.803217    1.541802   -2.091055
    116          6           0      -20.096982    0.581199   -5.696356
    117          6           0      -19.411256    3.310703   -3.638123
    118          8           0      -19.269111    4.053995   -4.614190
    119          6           0      -19.545682    3.915428   -2.153408
    120          6           0      -18.400832    4.832873   -1.789488
    121          8           0      -17.360623    4.457226   -1.320306
    122          8           0      -18.796096    6.188489   -1.846692
    123          6           0      -17.976191    7.160943   -1.108578
    124          1           0      -19.907427    1.313035    4.161258
    125          1           0      -20.742862   -4.597956    1.633505
    126          1           0      -20.282729   -2.069402   -4.322717
    127          1           0      -18.817826    4.476605    0.921161
    128          1           0      -20.260626    3.510382    3.306502
    129          1           0      -18.259085    3.756177    4.100497
    130          1           0      -17.504119    3.778411    2.409811
    131          1           0      -17.752500    2.302691    3.443359
    132          1           0      -21.695011    4.014908    0.590743
    133          1           0      -20.727307    5.235685   -0.133195
    134          1           0      -21.859299    5.406534    2.590670
    135          1           0      -21.661316    6.719315    1.390330
    136          1           0      -19.110708   -1.569107    5.972325
    137          1           0      -20.902756   -1.376040    6.277418
    138          1           0      -19.903757   -0.042294    5.884972
    139          1           0      -21.219069   -3.682444    6.301036
    140          1           0      -19.397170   -3.767560    5.978934
    141          1           0      -20.313289   -5.222402    6.287092
    142          1           0      -21.674785   -5.174403   -0.844081
    143          1           0      -19.581352   -4.310630   -3.072406
    144          1           0      -18.853862   -5.320410    0.188292
    145          1           0      -18.804538   -5.907130   -1.458899
    146          1           0      -19.932332   -6.623802   -0.194461
    147          1           0      -22.046623   -3.632851   -4.127582
    148          1           0      -22.646854   -4.556023   -2.832589
    149          1           0      -22.691934   -6.362291   -4.001036
    150          1           0      -20.852059   -6.374649   -3.994023
    151          1           0      -21.764047   -5.711978   -5.341543
    152          1           0      -21.024224    1.085839   -5.968637
    153          1           0      -20.108758   -0.472421   -5.977976
    154          1           0      -19.337431    1.054941   -6.317900
    155          1           0      -20.500017    4.440743   -2.129953
    156          1           0      -17.105764    7.326892   -1.742779
    157          1           0      -17.795663    6.819942   -0.088952
    158          1           0      -18.588524    8.056602   -1.007449
 ---------------------------------------------------------------------

 SCF Done:  E(RCAM-B3LYP) =  -4069.82645475     A.U. after   18 cycles

 Excitation energies and oscillator strengths:

 Excited State   1:      Singlet-A      1.6799 eV  738.06 nm  f=0.3841  <S**2>=0.000
     309 -> 316        0.17554
     311 -> 313        0.68567
     309 <- 316        0.10513
 This state for optimization and/or second-order correction.
 Total Energy, E(TD-HF/TD-DFT) =  -4069.76472053
 Copying the excited state density for this state as the 1-particle RhoCI density.

 Excited State   2:      Singlet-A      1.7141 eV  723.32 nm  f=0.3876  <S**2>=0.000
     310 -> 315        0.19945
     312 -> 314        0.68034
     310 <- 315        0.11163

 Excited State   3:      Singlet-A      2.1926 eV  565.48 nm  f=0.0983  <S**2>=0.000
     309 -> 313        0.64072
     311 -> 316       -0.27827

 Excited State   4:      Singlet-A      2.2903 eV  541.35 nm  f=0.0345  <S**2>=0.000
     310 -> 314        0.58797
     312 -> 315       -0.38617

 Excited State   5:      Singlet-A      2.9462 eV  420.83 nm  f=0.0000  <S**2>=0.000
     312 -> 313        0.70710

 The electronic state is 1-A.
 Alpha  occ. eigenvalues --  -46.88078 -46.87764 -19.26252 -19.23985 -19.20308
 Alpha  occ. eigenvalues --  -19.19190 -19.18987 -19.18781 -19.18399 -19.18138
 Alpha  occ. eigenvalues --  -14.42417 -14.42157 -14.41566 -14.41417 -14.39958
 Alpha  occ. eigenvalues --  -14.39884 -14.39370 -14.38554 -10.39428 -10.39047
 Alpha  occ. eigenvalues --  -10.35541 -10.35414 -10.35254 -10.34358 -10.31768
 Alpha  occ. eigenvalues --  -10.31647 -10.31373 -10.30923 -10.30876 -10.30762
 Alpha  occ. eigenvalues --  -10.30618 -10.30537 -10.30475 -10.30372 -10.30364
 Alpha  occ. eigenvalues --  -10.30321 -10.30174 -10.30120 -10.29889 -10.29629
 Alpha  occ. eigenvalues --  -10.29598 -10.29484 -10.29233 -10.29222 -10.29111
 Alpha  occ. eigenvalues --  -10.28717 -10.28549 -10.28505 -10.28332 -10.28303
 Alpha  occ. eigenvalues --  -10.28197 -10.28147 -10.28085 -10.27761 -10.27747
 Alpha  occ. eigenvalues --  -10.27716 -10.27695 -10.27620 -10.27583 -10.27551
 Alpha  occ. eigenvalues --  -10.27469 -10.27448 -10.27418 -10.27371 -10.27170
 Alpha  occ. eigenvalues --  -10.27126 -10.26912 -10.26671 -10.26626 -10.26446
 Alpha  occ. eigenvalues --  -10.26444 -10.26375 -10.26226 -10.26205 -10.26151
 Alpha  occ. eigenvalues --  -10.25993 -10.25987 -10.25813 -10.25775 -10.25574
 Alpha  occ. eigenvalues --  -10.25405 -10.25402 -10.25157 -10.24800 -10.24755
 Alpha  occ. eigenvalues --  -10.24652  -3.16760  -3.16507  -1.91665  -1.91388
 Alpha  occ. eigenvalues --   -1.91201  -1.91090  -1.90975  -1.90817  -1.16601
 Alpha  occ. eigenvalues --   -1.15484  -1.09122  -1.08595  -1.07813  -1.07783
 Alpha  occ. eigenvalues --   -1.07182  -1.06610  -1.04548  -1.04336  -1.03728
 Alpha  occ. eigenvalues --   -1.03474  -1.03201  -1.02805  -1.02379  -1.01383
 Alpha  occ. eigenvalues --   -0.91940  -0.91613  -0.89487  -0.89156  -0.88921
 Alpha  occ. eigenvalues --   -0.88585  -0.88254  -0.87838  -0.87835  -0.87640
 Alpha  occ. eigenvalues --   -0.87571  -0.87241  -0.86732  -0.86328  -0.84950
 Alpha  occ. eigenvalues --   -0.84255  -0.83904  -0.82944  -0.82933  -0.82616
 Alpha  occ. eigenvalues --   -0.82200  -0.81937  -0.81553  -0.80763  -0.80564
 Alpha  occ. eigenvalues --   -0.80009  -0.78970  -0.78764  -0.77424  -0.77186
 Alpha  occ. eigenvalues --   -0.76984  -0.76902  -0.75891  -0.75770  -0.74866
 Alpha  occ. eigenvalues --   -0.74551  -0.72742  -0.72074  -0.71640  -0.71477
 Alpha  occ. eigenvalues --   -0.69874  -0.69419  -0.68840  -0.68620  -0.68282
 Alpha  occ. eigenvalues --   -0.67608  -0.67186  -0.67072  -0.65517  -0.65254
 Alpha  occ. eigenvalues --   -0.65136  -0.64821  -0.64588  -0.64237  -0.63951
 Alpha  occ. eigenvalues --   -0.63771  -0.62265  -0.61272  -0.60644  -0.60409
 Alpha  occ. eigenvalues --   -0.59772  -0.59501  -0.58955  -0.58703  -0.58471
 Alpha  occ. eigenvalues --   -0.57803  -0.57552  -0.57519  -0.57276  -0.56779
 Alpha  occ. eigenvalues --   -0.56277  -0.56158  -0.55955  -0.55946  -0.55487
 Alpha  occ. eigenvalues --   -0.55307  -0.54528  -0.54491  -0.54246  -0.53960
 Alpha  occ. eigenvalues --   -0.53863  -0.53689  -0.53266  -0.53251  -0.53189
 Alpha  occ. eigenvalues --   -0.52882  -0.52723  -0.52517  -0.52405  -0.52215
 Alpha  occ. eigenvalues --   -0.51907  -0.51883  -0.51753  -0.51584  -0.51445
 Alpha  occ. eigenvalues --   -0.51164  -0.51162  -0.50838  -0.50538  -0.50488
 Alpha  occ. eigenvalues --   -0.50070  -0.49999  -0.49885  -0.49541  -0.49482
 Alpha  occ. eigenvalues --   -0.49434  -0.49327  -0.49182  -0.49064  -0.49010
 Alpha  occ. eigenvalues --   -0.48887  -0.48561  -0.48510  -0.48429  -0.48412
 Alpha  occ. eigenvalues --   -0.48113  -0.48061  -0.47662  -0.47392  -0.47264
 Alpha  occ. eigenvalues --   -0.46882  -0.46765  -0.46523  -0.46327  -0.46186
 Alpha  occ. eigenvalues --   -0.46130  -0.46081  -0.45790  -0.45737  -0.45600
 Alpha  occ. eigenvalues --   -0.45211  -0.45169  -0.45165  -0.44860  -0.44655
 Alpha  occ. eigenvalues --   -0.44546  -0.44474  -0.44183  -0.44112  -0.44056
 Alpha  occ. eigenvalues --   -0.43997  -0.43987  -0.43472  -0.43462  -0.43353
 Alpha  occ. eigenvalues --   -0.43128  -0.43076  -0.42995  -0.42900  -0.42666
 Alpha  occ. eigenvalues --   -0.42622  -0.42556  -0.42345  -0.42105  -0.41977
 Alpha  occ. eigenvalues --   -0.41672  -0.41520  -0.41501  -0.41290  -0.41109
 Alpha  occ. eigenvalues --   -0.40915  -0.40836  -0.40789  -0.40539  -0.40335
 Alpha  occ. eigenvalues --   -0.40201  -0.40191  -0.39408  -0.39231  -0.39078
 Alpha  occ. eigenvalues --   -0.38505  -0.38437  -0.38224  -0.37991  -0.37715
 Alpha  occ. eigenvalues --   -0.37288  -0.37231  -0.36681  -0.36656  -0.36279
 Alpha  occ. eigenvalues --   -0.36160  -0.35898  -0.34541  -0.34253  -0.34148
 Alpha  occ. eigenvalues --   -0.33738  -0.33181  -0.33154  -0.31319  -0.31311
 Alpha  occ. eigenvalues --   -0.31003  -0.30935  -0.30518  -0.30493  -0.30034
 Alpha  occ. eigenvalues --   -0.29997  -0.29416  -0.29289  -0.24048  -0.23989
 Alpha  occ. eigenvalues --   -0.21095  -0.20432
 Alpha virt. eigenvalues --   -0.08742  -0.07891  -0.02142  -0.01717  -0.00215
 Alpha virt. eigenvalues --   -0.00025   0.02165   0.02233   0.03158   0.03258
 Alpha virt. eigenvalues --    0.04485   0.04750   0.04950   0.05131   0.05874

 Mulliken charges:
               1
     1  Mg   0.838833
     2  C   -0.002938
     3  C   -0.094153
     4  C   -0.045871
     5  C   -0.063966
     6  N   -0.256811
     7  C   -0.052455
     8  C   -0.014019
     9  C   -0.087013
    10  C    0.046372
    11  C    0.104820
    12  C    0.053458
    13  C   -0.071812
    14  H    0.036171
    15  N   -0.433172
    16  C    0.168478
    17  C   -0.177150
    18  C   -0.003995
    19  C    0.148723
    20  C    0.110184
    21  C    0.012300
    22  O   -0.249613
    23  C    0.062466
    24  N   -0.341155
    25  C    0.041224
    26  C   -0.028176
    27  C   -0.023973
    28  C    0.074849
    29  C    0.076186
    30  C    0.035131
    31  C   -0.004505
    32  N   -0.310473
    33  C    0.080416
    34  C   -0.169725
    35  C    0.008352
    36  C    0.082999
    37  C    0.127310
    38  C    0.046114
    39  O   -0.188471
    40  C   -0.005353
    41  C    0.212866
    42  O   -0.257065
    43  O   -0.304812
    44  C    0.157688
    45  H   -0.017623
    46  H   -0.016833
    47  H   -0.041511
    48  H    0.000911
    49  H   -0.004023
    50  H    0.025454
    51  H    0.016432
    52  H    0.016631
    53  H    0.011244
    54  H    0.044148
    55  H    0.017829
    56  H    0.017959
    57  H    0.005861
    58  H    0.026796
    59  H    0.039612
    60  H    0.037310
    61  H    0.035685
    62  H    0.031563
    63  H    0.016583
    64  H    0.009426
    65  H    0.023210
    66  H    0.012524
    67  H    0.004721
    68  H    0.006353
    69  H    0.004711
    70  H    0.008804
    71  H    0.018166
    72  H    0.028996
    73  H    0.047568
    74  H    0.009107
    75  H    0.045968
    76  H    0.035117
    77  H    0.042917
    78  H    0.046406
    79  H    0.053716
    80  Mg   0.842115
    81  C   -0.020564
    82  C   -0.090100
    83  C   -0.079615
    84  C   -0.078325
    85  N   -0.250689
    86  C   -0.044727
    87  C   -0.012985
    88  C   -0.082140
    89  C   -0.014505
    90  C    0.091565
    91  C    0.015931
    92  C   -0.044484
    93  H    0.032129
    94  N   -0.411451
    95  C    0.200963
    96  C   -0.144024
    97  C   -0.033944
    98  C    0.153093
    99  C    0.122211
   100  C   -0.007232
   101  O   -0.241918
   102  C    0.080575
   103  N   -0.275391
   104  C    0.019545
   105  C   -0.035728
   106  C    0.002842
   107  C    0.012043
   108  C    0.060816
   109  C    0.002605
   110  C    0.023784
   111  N   -0.368219
   112  C    0.111822
   113  C   -0.177353
   114  C    0.032699
   115  C    0.112083
   116  C    0.110959
   117  C    0.072033
   118  O   -0.179418
   119  C   -0.071625
   120  C    0.225339
   121  O   -0.190700
   122  O   -0.375621
   123  C    0.183825
   124  H   -0.034886
   125  H   -0.005885
   126  H   -0.023939
   127  H    0.008519
   128  H    0.003671
   129  H    0.006417
   130  H    0.036696
   131  H    0.014625
   132  H    0.016688
   133  H    0.015049
   134  H    0.036677
   135  H    0.035936
   136  H    0.032131
   137  H    0.035689
   138  H    0.012005
   139  H    0.044596
   140  H    0.019910
   141  H    0.028097
   142  H    0.024704
   143  H    0.018546
   144  H    0.031712
   145  H    0.016270
   146  H    0.027676
   147  H    0.011368
   148  H   -0.004935
   149  H    0.019984
   150  H    0.018635
   151  H    0.014682
   152  H    0.037894
   153  H    0.005639
   154  H    0.037483
   155  H    0.063019
   156  H    0.049876
   157  H    0.033251
   158  H    0.033979
 Sum of Mulliken charges =  -0.00000

 Dipole moment (field-independent basis, Debye):
    X=             -4.0175    Y=              0.4779    Z=              8.2000  Tot=              9.1438
 Quadrupole moment (field-independent basis, Debye-Ang):
   XX=           -538.9978   YY=           -505.1203   ZZ=           -488.9221
   XY=            -38.9334   XZ=              3.9416   YZ=             57.3316

 Normal termination of Gaussian 16 at Wed Sep 15 09:44:37 2021.
