 Gaussian 16, Revision A.03,
 Gaussian 16:  ES64L-G16RevA.03 25-Dec-2016

 -----------------------------------
 #p cam-b3lyp/Def2SVP td=(nstates=5)
 -----------------------------------

 --------------------------------
 TDDFT excited states in gaussian
 --------------------------------
 Symbolic Z-matrix:
 Charge =  0 Multiplicity = 1

                         Standard orientation:
 ---------------------------------------------------------------------
 Center     Atomic      Atomic             Coordinates (Angstroms)
 Number     Number       Type             X           Y           Z
 ---------------------------------------------------------------------
      1         12           0      -24.234303   -0.809268   -0.123138
      2          6           0      -25.764664    2.219204    0.638287
      3          6           0      -22.400459    0.779460   -2.543019
      4          6           0      -23.009787   -3.856017   -1.035339
      5          6           0      -26.421819   -2.280035    2.261174
      6          7           0      -24.122851    1.242905   -0.887674
      7          6           0      -24.762518    2.314540   -0.322689
      8          6           0      -24.259461    3.557637   -1.060681
      9          6           0      -23.446672    3.040134   -2.234068
     10          6           0      -23.281366    1.577647   -1.836854
     11          6           0      -23.954048    3.227700   -3.638659
     12          6           0      -23.502118    4.639920   -0.153301
     13          6           0      -22.795043    5.800937   -0.923842
     14          1           0      -23.590287    7.105362   -1.192410
     15          7           0      -22.786948   -1.400560   -1.487823
     16          6           0      -22.173967   -0.616192   -2.408999
     17          6           0      -21.329934   -1.481653   -3.191082
     18          6           0      -21.518823   -2.824338   -2.749804
     19          6           0      -22.477686   -2.757778   -1.740596
     20          6           0      -20.462011   -0.917943   -4.273542
     21          6           0      -20.906557   -4.101732   -3.394829
     22          8           0      -21.372593   -5.208853   -3.193185
     23          6           0      -19.826919   -4.072907   -4.368187
     24          7           0      -24.643546   -2.659730    0.501076
     25          6           0      -23.989271   -3.796006    0.026175
     26          6           0      -24.443786   -5.080048    0.741623
     27          6           0      -25.282071   -4.498393    1.930388
     28          6           0      -25.417761   -3.031593    1.556288
     29          6           0      -24.998562   -6.148515   -0.106614
     30          6           0      -24.774517   -4.738967    3.458341
     31          6           0      -25.661902   -5.472543    4.468421
     32          7           0      -25.872059   -0.183113    1.198877
     33          6           0      -26.637903   -0.911234    2.065570
     34          6           0      -27.576493   -0.083174    2.744934
     35          6           0      -27.219951    1.232968    2.260053
     36          6           0      -26.228252    1.084460    1.250279
     37          6           0      -28.536202   -0.569342    3.763101
     38          6           0      -27.477613    2.642388    2.446484
     39          8           0      -28.172893    3.280935    3.211959
     40          6           0      -26.499255    3.352885    1.338418
     41          6           0      -27.246011    4.318214    0.492075
     42          8           0      -28.105816    3.995380   -0.298016
     43          8           0      -26.852279    5.588588    0.689473
     44          6           0      -27.352178    6.628260   -0.289986
     45          1           0      -21.774670    1.289296   -3.278859
     46          1           0      -22.606484   -4.820021   -1.351806
     47          1           0      -26.978486   -2.908922    2.959345
     48          1           0      -25.211317    3.977380   -1.385790
     49          1           0      -22.484652    3.551415   -2.258307
     50          1           0      -24.254641    2.202124   -3.850781
     51          1           0      -23.198461    3.641071   -4.306882
     52          1           0      -24.877830    3.805602   -3.673575
     53          1           0      -22.762083    4.018899    0.351901
     54          1           0      -24.199243    5.074848    0.561939
     55          1           0      -22.481315    5.490445   -1.919683
     56          1           0      -21.889254    6.060411   -0.375843
     57          1           0      -20.423533    0.165180   -4.393699
     58          1           0      -20.892882   -1.276295   -5.207854
     59          1           0      -19.444675   -1.309234   -4.253321
     60          1           0      -19.877026   -3.394416   -5.219177
     61          1           0      -19.534489   -5.041716   -4.772938
     62          1           0      -18.971723   -3.813654   -3.744417
     63          1           0      -23.466874   -5.382912    1.119463
     64          1           0      -26.244096   -4.952831    1.694086
     65          1           0      -24.442394   -7.085343   -0.149761
     66          1           0      -25.071462   -5.754793   -1.120741
     67          1           0      -25.990128   -6.486159    0.194611
     68          1           0      -24.569984   -3.759204    3.889581
     69          1           0      -23.826977   -5.261105    3.596480
     70          1           0      -26.156397   -4.829813    5.197223
     71          1           0      -25.201577   -6.342799    4.935383
     72          1           0      -26.520265   -5.861585    3.920563
     73          1           0      -29.003711   -1.479911    3.389147
     74          1           0      -29.267124    0.187141    4.047471
     75          1           0      -27.951458   -0.982581    4.585564
     76          1           0      -25.786098    3.937424    1.918740
     77          1           0      -27.217828    7.551028    0.273965
     78          1           0      -28.396662    6.417343   -0.518593
     79          1           0      -26.674024    6.603387   -1.143100
     80         12           0       25.037332   -0.536259    0.087260
     81          6           0       23.735120    2.651997    0.903231
     82          6           0       25.400599    0.532359   -3.093204
     83          6           0       26.104878   -3.544958   -0.638262
     84          6           0       23.874645   -1.649193    3.293096
     85          7           0       24.519141    1.375366   -1.044582
     86          6           0       24.244441    2.575252   -0.410086
     87          6           0       24.434757    3.652510   -1.422562
     88          6           0       24.403970    2.930880   -2.770197
     89          6           0       24.824331    1.507187   -2.326916
     90          6           0       22.947411    2.918099   -3.368510
     91          6           0       25.761457    4.573786   -1.268595
     92          6           0       25.680255    6.117603   -1.473270
     93          1           0       24.964296    6.616808   -2.761547
     94          7           0       25.657942   -1.371075   -1.677669
     95          6           0       25.743712   -0.769077   -2.827155
     96          6           0       26.210269   -1.746213   -3.826066
     97          6           0       26.639705   -2.906836   -3.113827
     98          6           0       26.113546   -2.659426   -1.741386
     99          6           0       26.298683   -1.589061   -5.387761
    100          6           0       27.416004   -4.145151   -3.560816
    101          8           0       27.617720   -5.143241   -2.842982
    102          6           0       27.770705   -4.267608   -4.966394
    103          7           0       24.819035   -2.414328    1.173922
    104          6           0       25.481232   -3.528155    0.664348
    105          6           0       25.517290   -4.651078    1.771593
    106          6           0       24.928852   -3.941690    3.016617
    107          6           0       24.544834   -2.557857    2.487999
    108          6           0       24.850913   -5.952566    1.324777
    109          6           0       25.810128   -3.953519    4.290993
    110          6           0       25.105660   -4.159407    5.652276
    111          7           0       24.006443    0.270631    1.767893
    112          6           0       23.561575   -0.295451    2.958414
    113          6           0       23.059277    0.755889    3.805963
    114          6           0       23.056742    1.909284    3.020076
    115          6           0       23.656711    1.595574    1.769377
    116          6           0       22.672083    0.647142    5.150778
    117          6           0       22.769872    3.351165    2.993993
    118          8           0       22.339022    4.126305    3.832985
    119          6           0       23.233025    3.892687    1.602007
    120          6           0       22.032491    4.560926    0.955929
    121          8           0       21.097248    4.146385    0.309337
    122          8           0       22.293034    5.881096    1.184904
    123          6           0       21.520120    6.881160    0.410333
    124          1           0       25.606262    0.889955   -4.104663
    125          1           0       26.654778   -4.461416   -0.861960
    126          1           0       23.722226   -1.911662    4.341625
    127          1           0       23.660381    4.419269   -1.456375
    128          1           0       25.193728    3.262894   -3.443662
    129          1           0       22.916744    2.948918   -4.457120
    130          1           0       22.370626    3.808085   -3.115632
    131          1           0       22.522873    1.967326   -3.047993
    132          1           0       26.566794    4.146513   -1.865157
    133          1           0       26.177103    4.447923   -0.268157
    134          1           0       26.729206    6.384899   -1.606202
    135          1           0       25.206048    6.436058   -0.544899
    136          1           0       27.308004   -1.544377   -5.796250
    137          1           0       25.767840   -0.671498   -5.643050
    138          1           0       25.912635   -2.431279   -5.962049
    139          1           0       28.326438   -3.393071   -5.305721
    140          1           0       26.879508   -4.394560   -5.581139
    141          1           0       28.511154   -5.063961   -5.034968
    142          1           0       26.570214   -4.797317    2.013028
    143          1           0       23.937319   -4.331372    3.246259
    144          1           0       23.791433   -5.915914    1.580402
    145          1           0       25.208938   -6.844703    1.837608
    146          1           0       24.805469   -5.971210    0.236384
    147          1           0       26.479440   -3.097572    4.376062
    148          1           0       26.564461   -4.739490    4.234967
    149          1           0       24.991204   -3.149324    6.045906
    150          1           0       25.840775   -4.679616    6.267194
    151          1           0       24.152627   -4.668059    5.509622
    152          1           0       21.985982    1.375937    5.581727
    153          1           0       23.590540    0.586452    5.735454
    154          1           0       22.130546   -0.295809    5.216917
    155          1           0       24.055245    4.596434    1.730289
    156          1           0       22.260096    7.618804    0.101150
    157          1           0       20.738561    7.412087    0.953233
    158          1           0       21.098362    6.416480   -0.480512
 ---------------------------------------------------------------------

 SCF Done:  E(RCAM-B3LYP) =  -4069.80840439     A.U. after   18 cycles

 Excitation energies and oscillator strengths:

 Excited State   1:      Singlet-A      1.6981 eV  730.13 nm  f=0.3973  <S**2>=0.000
     309 -> 316        0.17921
     311 -> 313        0.68579
     309 <- 316        0.10835
 This state for optimization and/or second-order correction.
 Total Energy, E(TD-HF/TD-DFT) =  -4069.74599980
 Copying the excited state density for this state as the 1-particle RhoCI density.

 Excited State   2:      Singlet-A      1.7330 eV  715.43 nm  f=0.3859  <S**2>=0.000
     310 -> 315        0.19057
     312 -> 314        0.68153
     310 <- 315        0.10758

 Excited State   3:      Singlet-A      2.2224 eV  557.87 nm  f=0.0941  <S**2>=0.000
     309 -> 313        0.63226
     311 -> 316       -0.30141

 Excited State   4:      Singlet-A      2.2617 eV  548.19 nm  f=0.0688  <S**2>=0.000
     310 -> 314        0.62175
     312 -> 315       -0.32226

 Excited State   5:      Singlet-A      3.1324 eV  395.82 nm  f=0.0000  <S**2>=0.000
     312 -> 313        0.70710

 The electronic state is 1-A.
 Alpha  occ. eigenvalues --  -46.89391 -46.87862 -19.24404 -19.24382 -19.20054
 Alpha  occ. eigenvalues --  -19.19278 -19.19064 -19.18703 -19.18645 -19.18243
 Alpha  occ. eigenvalues --  -14.42698 -14.42027 -14.41799 -14.41447 -14.39879
 Alpha  occ. eigenvalues --  -14.39033 -14.38977 -14.38423 -10.39255 -10.37951
 Alpha  occ. eigenvalues --  -10.35569 -10.35544 -10.34837 -10.34632 -10.32092
 Alpha  occ. eigenvalues --  -10.31720 -10.31583 -10.31476 -10.31111 -10.31098
 Alpha  occ. eigenvalues --  -10.30835 -10.30772 -10.30427 -10.30362 -10.30064
 Alpha  occ. eigenvalues --  -10.30008 -10.29887 -10.29790 -10.29682 -10.29593
 Alpha  occ. eigenvalues --  -10.29565 -10.29475 -10.28978 -10.28280 -10.28234
 Alpha  occ. eigenvalues --  -10.28122 -10.28096 -10.28057 -10.27940 -10.27918
 Alpha  occ. eigenvalues --  -10.27733 -10.27688 -10.27604 -10.27554 -10.27518
 Alpha  occ. eigenvalues --  -10.27515 -10.27507 -10.27503 -10.27375 -10.27336
 Alpha  occ. eigenvalues --  -10.27246 -10.27204 -10.27199 -10.27124 -10.27042
 Alpha  occ. eigenvalues --  -10.27017 -10.26936 -10.26927 -10.26848 -10.26842
 Alpha  occ. eigenvalues --  -10.26711 -10.26561 -10.26392 -10.26237 -10.26227
 Alpha  occ. eigenvalues --  -10.26139 -10.26070 -10.25824 -10.25735 -10.25733
 Alpha  occ. eigenvalues --  -10.25648 -10.25575 -10.25476 -10.25278 -10.25225
 Alpha  occ. eigenvalues --  -10.24817  -3.17778  -3.16522  -1.92676  -1.92236
 Alpha  occ. eigenvalues --   -1.92071  -1.91437  -1.90979  -1.90824  -1.16138
 Alpha  occ. eigenvalues --   -1.15831  -1.10967  -1.09612  -1.09474  -1.09384
 Alpha  occ. eigenvalues --   -1.07783  -1.06717  -1.05225  -1.05174  -1.04095
 Alpha  occ. eigenvalues --   -1.03961  -1.03300  -1.03076  -1.02337  -1.02090
 Alpha  occ. eigenvalues --   -0.92788  -0.92418  -0.89199  -0.88901  -0.88695
 Alpha  occ. eigenvalues --   -0.88498  -0.88317  -0.88006  -0.87583  -0.87556
 Alpha  occ. eigenvalues --   -0.87147  -0.86959  -0.86905  -0.86688  -0.84626
 Alpha  occ. eigenvalues --   -0.84253  -0.83691  -0.83612  -0.82753  -0.82626
 Alpha  occ. eigenvalues --   -0.82487  -0.82456  -0.81523  -0.81396  -0.80727
 Alpha  occ. eigenvalues --   -0.80616  -0.78778  -0.78407  -0.77780  -0.77471
 Alpha  occ. eigenvalues --   -0.77267  -0.77054  -0.75882  -0.75878  -0.75138
 Alpha  occ. eigenvalues --   -0.75134  -0.72764  -0.72529  -0.71838  -0.71801
 Alpha  occ. eigenvalues --   -0.69373  -0.68931  -0.68917  -0.68773  -0.68212
 Alpha  occ. eigenvalues --   -0.67718  -0.67386  -0.66902  -0.65533  -0.65497
 Alpha  occ. eigenvalues --   -0.65409  -0.65330  -0.65068  -0.64663  -0.64348
 Alpha  occ. eigenvalues --   -0.64189  -0.61959  -0.61410  -0.60515  -0.60502
 Alpha  occ. eigenvalues --   -0.59739  -0.59625  -0.59255  -0.58939  -0.58814
 Alpha  occ. eigenvalues --   -0.58340  -0.57965  -0.57943  -0.57521  -0.57285
 Alpha  occ. eigenvalues --   -0.56347  -0.56173  -0.55918  -0.55738  -0.55394
 Alpha  occ. eigenvalues --   -0.55224  -0.54768  -0.54560  -0.54484  -0.53790
 Alpha  occ. eigenvalues --   -0.53719  -0.53587  -0.53266  -0.53244  -0.53142
 Alpha  occ. eigenvalues --   -0.52969  -0.52951  -0.52577  -0.52449  -0.52330
 Alpha  occ. eigenvalues --   -0.52141  -0.52061  -0.51705  -0.51589  -0.51299
 Alpha  occ. eigenvalues --   -0.51224  -0.50976  -0.50827  -0.50819  -0.50477
 Alpha  occ. eigenvalues --   -0.50434  -0.50287  -0.49997  -0.49916  -0.49628
 Alpha  occ. eigenvalues --   -0.49422  -0.49379  -0.49330  -0.49124  -0.49004
 Alpha  occ. eigenvalues --   -0.48976  -0.48857  -0.48609  -0.48214  -0.48197
 Alpha  occ. eigenvalues --   -0.47706  -0.47681  -0.47434  -0.47411  -0.47152
 Alpha  occ. eigenvalues --   -0.47088  -0.46914  -0.46822  -0.46669  -0.46575
 Alpha  occ. eigenvalues --   -0.46522  -0.46275  -0.46236  -0.46050  -0.45940
 Alpha  occ. eigenvalues --   -0.45570  -0.45136  -0.45097  -0.45053  -0.44948
 Alpha  occ. eigenvalues --   -0.44784  -0.44712  -0.44391  -0.44372  -0.44225
 Alpha  occ. eigenvalues --   -0.44067  -0.43995  -0.43868  -0.43704  -0.43667
 Alpha  occ. eigenvalues --   -0.43355  -0.43039  -0.42987  -0.42794  -0.42741
 Alpha  occ. eigenvalues --   -0.42687  -0.42325  -0.42182  -0.41941  -0.41935
 Alpha  occ. eigenvalues --   -0.41810  -0.41561  -0.41494  -0.41267  -0.41260
 Alpha  occ. eigenvalues --   -0.40948  -0.40887  -0.40573  -0.40364  -0.40268
 Alpha  occ. eigenvalues --   -0.40183  -0.39875  -0.39632  -0.39489  -0.39261
 Alpha  occ. eigenvalues --   -0.38794  -0.38772  -0.37756  -0.37685  -0.37414
 Alpha  occ. eigenvalues --   -0.37245  -0.36869  -0.36545  -0.36471  -0.36273
 Alpha  occ. eigenvalues --   -0.36038  -0.35950  -0.34685  -0.34052  -0.33968
 Alpha  occ. eigenvalues --   -0.33920  -0.33123  -0.32969  -0.31707  -0.31292
 Alpha  occ. eigenvalues --   -0.31191  -0.30952  -0.30579  -0.30484  -0.30193
 Alpha  occ. eigenvalues --   -0.29703  -0.29279  -0.29032  -0.24189  -0.23990
 Alpha  occ. eigenvalues --   -0.21111  -0.20991
 Alpha virt. eigenvalues --   -0.08781  -0.08298  -0.02080  -0.01859  -0.00157
 Alpha virt. eigenvalues --    0.00632   0.01732   0.02299   0.02747   0.03393
 Alpha virt. eigenvalues --    0.04716   0.05175   0.05259   0.05759   0.05947

 Mulliken charges:
               1
     1  Mg   0.828830
     2  C    0.048397
     3  C   -0.079062
     4  C   -0.067473
     5  C   -0.103373
     6  N   -0.255711
     7  C   -0.051992
     8  C   -0.000620
     9  C   -0.103486
    10  C    0.035588
    11  C    0.099465
    12  C    0.042564
    13  C   -0.062449
    14  H    0.013864
    15  N   -0.403934
    16  C    0.147244
    17  C   -0.142789
    18  C   -0.017878
    19  C    0.106305
    20  C    0.100436
    21  C    0.025243
    22  O   -0.202190
    23  C    0.059498
    24  N   -0.343343
    25  C    0.041665
    26  C   -0.041103
    27  C   -0.002484
    28  C    0.022973
    29  C    0.094421
    30  C    0.043901
    31  C   -0.014162
    32  N   -0.286887
    33  C    0.153001
    34  C   -0.160753
    35  C   -0.026718
    36  C    0.074290
    37  C    0.149300
    38  C    0.065578
    39  O   -0.154850
    40  C   -0.074515
    41  C    0.174468
    42  O   -0.224090
    43  O   -0.340810
    44  C    0.172987
    45  H   -0.041505
    46  H    0.001675
    47  H   -0.024261
    48  H    0.009380
    49  H   -0.002343
    50  H    0.017500
    51  H    0.021537
    52  H    0.015310
    53  H    0.009138
    54  H    0.039089
    55  H    0.023330
    56  H    0.035835
    57  H    0.015670
    58  H    0.027295
    59  H    0.025124
    60  H    0.036028
    61  H    0.023048
    62  H    0.027310
    63  H    0.010718
    64  H    0.008004
    65  H    0.017740
    66  H    0.025442
    67  H    0.006132
    68  H    0.012088
    69  H    0.010607
    70  H    0.018373
    71  H    0.023292
    72  H   -0.001776
    73  H    0.012716
    74  H    0.047922
    75  H    0.021407
    76  H    0.037243
    77  H    0.044536
    78  H    0.065027
    79  H    0.042022
    80  Mg   0.808045
    81  C   -0.037974
    82  C   -0.089808
    83  C   -0.052985
    84  C   -0.086837
    85  N   -0.255078
    86  C    0.011418
    87  C   -0.052129
    88  C   -0.029244
    89  C   -0.033307
    90  C    0.087635
    91  C    0.015885
    92  C   -0.056954
    93  H    0.015473
    94  N   -0.338747
    95  C    0.178103
    96  C   -0.150807
    97  C   -0.029497
    98  C    0.090543
    99  C    0.102826
   100  C    0.020451
   101  O   -0.219856
   102  C    0.059537
   103  N   -0.286778
   104  C    0.009218
   105  C   -0.007517
   106  C   -0.009768
   107  C    0.041944
   108  C    0.096744
   109  C    0.007917
   110  C    0.017126
   111  N   -0.353016
   112  C    0.116913
   113  C   -0.178614
   114  C    0.026943
   115  C    0.138502
   116  C    0.109217
   117  C    0.030098
   118  O   -0.162861
   119  C   -0.011604
   120  C    0.215719
   121  O   -0.195441
   122  O   -0.342968
   123  C    0.168206
   124  H   -0.039311
   125  H   -0.000863
   126  H   -0.036915
   127  H    0.001980
   128  H   -0.005745
   129  H    0.006469
   130  H    0.024706
   131  H    0.035941
   132  H   -0.001557
   133  H   -0.000253
   134  H    0.042196
   135  H    0.049208
   136  H    0.022013
   137  H    0.018322
   138  H    0.019677
   139  H    0.017032
   140  H    0.053755
   141  H    0.028172
   142  H    0.011558
   143  H    0.009113
   144  H   -0.005894
   145  H    0.023821
   146  H    0.026158
   147  H   -0.000008
   148  H   -0.001177
   149  H    0.023407
   150  H    0.015954
   151  H    0.024074
   152  H    0.034994
   153  H    0.030461
   154  H    0.016852
   155  H    0.051190
   156  H    0.029876
   157  H    0.045923
   158  H    0.042199
 Sum of Mulliken charges =  -0.00000

 Dipole moment (field-independent basis, Debye):
    X=              8.5484    Y=             -0.7922    Z=             -4.3172  Tot=              9.6094
 Quadrupole moment (field-independent basis, Debye-Ang):
   XX=           -598.5445   YY=           -501.1817   ZZ=           -486.6552
   XY=             53.2632   XZ=            -20.9196   YZ=            -56.4408

 Normal termination of Gaussian 16 at Thu Sep 16 00:31:59 2021.
