 Gaussian 16, Revision A.03,
 Gaussian 16:  ES64L-G16RevA.03 25-Dec-2016

 ----------------------------------------------------------
 #p cam-b3lyp/Def2SVP td=(nstates=5) density=(transition=1)
 ----------------------------------------------------------

 --------------------------------
 TDDFT excited states in gaussian
 --------------------------------
 Symbolic Z-matrix:
 Charge =  0 Multiplicity = 1

                         Standard orientation:
 ---------------------------------------------------------------------
 Center     Atomic      Atomic             Coordinates (Angstroms)
 Number     Number       Type             X           Y           Z
 ---------------------------------------------------------------------
      1         12           0       25.538635   -0.885812    0.181984
      2          6           0       26.474194    2.429631   -0.790016
      3          6           0       25.809439    0.147916    3.422530
      4          6           0       25.160901   -3.908464    1.063750
      5          6           0       26.440241   -1.920642   -3.021435
      6          7           0       26.078790    1.066243    1.075496
      7          6           0       26.357181    2.273214    0.592911
      8          6           0       26.438635    3.374372    1.692088
      9          6           0       26.779383    2.452317    2.947358
     10          6           0       26.155085    1.152707    2.470713
     11          6           0       28.274544    2.232307    3.153735
     12          6           0       25.077529    4.124077    1.884608
     13          6           0       25.154598    5.420056    2.696920
     14          1           0       24.289519    6.530358    2.327848
     15          7           0       25.020175   -1.656541    1.925552
     16          6           0       25.190017   -1.089714    3.144218
     17          6           0       24.643287   -2.054654    4.122308
     18          6           0       24.314983   -3.308883    3.389355
     19          6           0       24.850146   -3.013532    2.084844
     20          6           0       24.435701   -1.730614    5.569946
     21          6           0       23.637313   -4.577075    3.802373
     22          8           0       23.660729   -5.628649    3.075587
     23          6           0       23.012397   -4.583291    5.137470
     24          7           0       25.970770   -2.702069   -0.751881
     25          6           0       25.653243   -3.866793   -0.176052
     26          6           0       25.794807   -5.008348   -1.138730
     27          6           0       26.043999   -4.349735   -2.571869
     28          6           0       26.085550   -2.861997   -2.143875
     29          6           0       26.920448   -6.006050   -0.832899
     30          6           0       25.080226   -4.762419   -3.712593
     31          6           0       23.691681   -4.235640   -3.427035
     32          7           0       26.151775    0.081045   -1.662004
     33          6           0       26.500111   -0.545684   -2.867220
     34          6           0       26.948085    0.512781   -3.790820
     35          6           0       26.844268    1.687488   -3.048437
     36          6           0       26.386975    1.379115   -1.735395
     37          6           0       27.434433    0.314048   -5.113093
     38          6           0       27.036746    3.128599   -3.051231
     39          8           0       27.318364    3.964177   -3.911460
     40          6           0       26.921217    3.652448   -1.551877
     41          6           0       26.009928    4.849455   -1.557588
     42          8           0       24.797787    4.729385   -1.828998
     43          8           0       26.649314    5.897529   -1.016044
     44          6           0       25.790492    7.110752   -0.964386
     45          1           0       26.089897    0.292179    4.467744
     46          1           0       24.939261   -4.953379    1.290613
     47          1           0       26.656151   -2.158314   -4.064674
     48          1           0       27.231243    4.107799    1.542819
     49          1           0       26.284738    2.800168    3.854026
     50          1           0       28.855200    2.640441    2.326579
     51          1           0       28.404232    1.151498    3.213112
     52          1           0       28.594407    2.625944    4.118885
     53          1           0       24.431738    3.535066    2.535823
     54          1           0       24.610778    4.329962    0.920719
     55          1           0       26.184716    5.759403    2.809214
     56          1           0       24.827675    5.205356    3.714381
     57          1           0       24.922790   -0.795922    5.844972
     58          1           0       24.963046   -2.491270    6.145289
     59          1           0       23.380322   -1.729123    5.842905
     60          1           0       23.771052   -4.370427    5.890916
     61          1           0       22.499898   -5.540635    5.225142
     62          1           0       22.288878   -3.769384    5.192458
     63          1           0       24.884658   -5.605713   -1.173519
     64          1           0       27.034460   -4.583731   -2.962902
     65          1           0       26.576496   -7.035182   -0.726650
     66          1           0       27.433024   -5.670049    0.068023
     67          1           0       27.735236   -6.011779   -1.556435
     68          1           0       25.005629   -5.847712   -3.771919
     69          1           0       25.390819   -4.397323   -4.691618
     70          1           0       23.275919   -4.992650   -2.763025
     71          1           0       23.114212   -4.165736   -4.349453
     72          1           0       23.727931   -3.298734   -2.870816
     73          1           0       26.971753    1.086271   -5.727558
     74          1           0       27.190015   -0.682845   -5.479246
     75          1           0       28.504415    0.450997   -4.957406
     76          1           0       27.930461    3.907804   -1.230407
     77          1           0       26.325705    7.905265   -1.484511
     78          1           0       25.542700    7.270539    0.085125
     79          1           0       24.866591    7.072294   -1.542544
     80         12           0      -26.009707   -0.558124   -0.120790
     81          6           0      -23.866549    2.100758   -0.593211
     82          6           0      -26.976560    1.033730    2.938473
     83          6           0      -27.827402   -3.164675    0.624221
     84          6           0      -24.740884   -2.140411   -2.922872
     85          7           0      -25.281203    1.302179    1.133415
     86          6           0      -24.586599    2.290908    0.595976
     87          6           0      -24.792135    3.611943    1.389837
     88          6           0      -25.307863    3.026758    2.750913
     89          6           0      -25.915849    1.687883    2.303271
     90          6           0      -24.152906    2.838792    3.797804
     91          6           0      -25.849284    4.421885    0.606742
     92          6           0      -26.129005    5.846075    1.105609
     93          1           0      -25.582109    6.307017    2.441739
     94          7           0      -27.312647   -1.031207    1.428553
     95          6           0      -27.589024   -0.209338    2.574890
     96          6           0      -28.698242   -0.850444    3.267763
     97          6           0      -29.025282   -2.028925    2.526833
     98          6           0      -28.016315   -2.155177    1.476084
     99          6           0      -29.406240   -0.278154    4.552055
    100          6           0      -30.238957   -2.986716    2.765955
    101          8           0      -30.294109   -3.998690    2.122458
    102          6           0      -31.272586   -2.662054    3.795013
    103          7           0      -26.319413   -2.377322   -1.085899
    104          6           0      -27.138082   -3.331522   -0.588369
    105          6           0      -27.139224   -4.616776   -1.415177
    106          6           0      -26.254417   -4.220814   -2.619906
    107          6           0      -25.725788   -2.796457   -2.176298
    108          6           0      -26.626942   -5.904993   -0.672199
    109          6           0      -26.866536   -4.324282   -3.993573
    110          6           0      -28.276050   -3.758214   -4.290909
    111          7           0      -24.596373   -0.191643   -1.513714
    112          6           0      -24.180526   -0.899643   -2.604815
    113          6           0      -23.240799   -0.064138   -3.322238
    114          6           0      -23.075561    1.172063   -2.607796
    115          6           0      -23.938368    1.012361   -1.489062
    116          6           0      -22.563244   -0.467706   -4.594513
    117          6           0      -22.385717    2.415562   -2.526996
    118          8           0      -21.509959    2.951305   -3.240688
    119          6           0      -22.717725    2.922785   -1.019488
    120          6           0      -22.866072    4.443164   -1.097165
    121          8           0      -23.575339    5.022877   -1.827329
    122          8           0      -21.996299    4.996241   -0.200939
    123          6           0      -22.195682    6.380898    0.174567
    124          1           0      -27.216477    1.491552    3.899922
    125          1           0      -28.376260   -4.081361    0.849900
    126          1           0      -24.286969   -2.592184   -3.806510
    127          1           0      -23.852814    4.132816    1.574912
    128          1           0      -26.072746    3.740503    3.057841
    129          1           0      -24.213445    3.626906    4.547335
    130          1           0      -23.206473    2.868878    3.257592
    131          1           0      -24.227815    1.911906    4.366532
    132          1           0      -26.799542    3.899143    0.712472
    133          1           0      -25.674726    4.392129   -0.468342
    134          1           0      -27.154148    6.170214    0.925007
    135          1           0      -25.662381    6.485459    0.356007
    136          1           0      -29.485384   -1.019743    5.347519
    137          1           0      -30.371951    0.094075    4.210457
    138          1           0      -28.875336    0.611341    4.893372
    139          1           0      -32.154965   -3.154331    3.385541
    140          1           0      -31.526967   -1.602982    3.816234
    141          1           0      -31.051506   -2.770066    4.856843
    142          1           0      -28.179052   -4.759812   -1.708263
    143          1           0      -25.317500   -4.776329   -2.660418
    144          1           0      -26.104545   -6.488694   -1.429686
    145          1           0      -27.559513   -6.381854   -0.369794
    146          1           0      -26.070189   -5.632145    0.224229
    147          1           0      -27.073826   -5.393416   -4.024520
    148          1           0      -26.255257   -4.019733   -4.843757
    149          1           0      -29.053948   -4.451559   -4.607918
    150          1           0      -28.264481   -3.100522   -5.160020
    151          1           0      -28.656478   -3.260253   -3.398932
    152          1           0      -21.883826    0.349664   -4.834483
    153          1           0      -23.291979   -0.520930   -5.404462
    154          1           0      -22.109735   -1.458422   -4.587710
    155          1           0      -21.875285    2.577757   -0.419672
    156          1           0      -21.163540    6.623794   -0.078394
    157          1           0      -22.557573    6.512634    1.194486
    158          1           0      -22.853186    6.938911   -0.492584
 ---------------------------------------------------------------------

 SCF Done:  E(RCAM-B3LYP) =  -4069.80851713     A.U. after   19 cycles

 Excitation energies and oscillator strengths:

 Excited State   1:      Singlet-A      1.6799 eV  738.06 nm  f=0.3863  <S**2>=0.000
     309 -> 316       -0.17553
     311 -> 313        0.68570
     309 <- 316       -0.10513
 This state for optimization and/or second-order correction.
 Total Energy, E(TD-HF/TD-DFT) =  -4069.74678356
 Copying the excited state density for this state as the 1-particle RhoCI density.

 Excited State   2:      Singlet-A      1.7338 eV  715.10 nm  f=0.3763  <S**2>=0.000
     310 -> 315       -0.19618
     312 -> 314        0.68088
     310 <- 315       -0.11070

 Excited State   3:      Singlet-A      2.1925 eV  565.48 nm  f=0.0982  <S**2>=0.000
     309 -> 313        0.64073
     311 -> 316        0.27825

 Excited State   4:      Singlet-A      2.2194 eV  558.65 nm  f=0.0922  <S**2>=0.000
     310 -> 314        0.63508
     312 -> 315        0.29919

 Excited State   5:      Singlet-A      3.1811 eV  389.75 nm  f=0.0000  <S**2>=0.000
     312 -> 313        0.70711

 The electronic state is 1-A.
 Alpha  occ. eigenvalues --  -46.88266 -46.87766 -19.26253 -19.24383 -19.20258
 Alpha  occ. eigenvalues --  -19.19094 -19.19014 -19.18988 -19.18784 -19.18139
 Alpha  occ. eigenvalues --  -14.42419 -14.41731 -14.41728 -14.41419 -14.39372
 Alpha  occ. eigenvalues --  -14.39304 -14.39272 -14.38556 -10.39048 -10.38913
 Alpha  occ. eigenvalues --  -10.35418 -10.35273 -10.35055 -10.34359 -10.31647
 Alpha  occ. eigenvalues --  -10.31460 -10.31374 -10.30878 -10.30709 -10.30617
 Alpha  occ. eigenvalues --  -10.30589 -10.30539 -10.30477 -10.30426 -10.30281
 Alpha  occ. eigenvalues --  -10.30177 -10.29890 -10.29622 -10.29600 -10.29311
 Alpha  occ. eigenvalues --  -10.29224 -10.29005 -10.28769 -10.28718 -10.28597
 Alpha  occ. eigenvalues --  -10.28506 -10.28455 -10.28334 -10.28086 -10.28074
 Alpha  occ. eigenvalues --  -10.27799 -10.27779 -10.27762 -10.27697 -10.27694
 Alpha  occ. eigenvalues --  -10.27653 -10.27620 -10.27580 -10.27580 -10.27554
 Alpha  occ. eigenvalues --  -10.27471 -10.27451 -10.27420 -10.27373 -10.27127
 Alpha  occ. eigenvalues --  -10.26739 -10.26673 -10.26556 -10.26464 -10.26460
 Alpha  occ. eigenvalues --  -10.26379 -10.26275 -10.26265 -10.26206 -10.26205
 Alpha  occ. eigenvalues --  -10.26153 -10.25989 -10.25814 -10.25788 -10.25742
 Alpha  occ. eigenvalues --  -10.25407 -10.25268 -10.24944 -10.24802 -10.24757
 Alpha  occ. eigenvalues --  -10.24655  -3.16903  -3.16508  -1.91803  -1.91390
 Alpha  occ. eigenvalues --   -1.91375  -1.91193  -1.90977  -1.90819  -1.17609
 Alpha  occ. eigenvalues --   -1.16601  -1.11522  -1.09798  -1.08597  -1.08006
 Alpha  occ. eigenvalues --   -1.07185  -1.06610  -1.05234  -1.04550  -1.04079
 Alpha  occ. eigenvalues --   -1.03730  -1.03203  -1.03050  -1.02381  -1.02074
 Alpha  occ. eigenvalues --   -0.93018  -0.91941  -0.89489  -0.89378  -0.89157
 Alpha  occ. eigenvalues --   -0.88667  -0.88536  -0.88257  -0.87840  -0.87642
 Alpha  occ. eigenvalues --   -0.87306  -0.87243  -0.86432  -0.85679  -0.84951
 Alpha  occ. eigenvalues --   -0.84066  -0.83906  -0.83734  -0.82936  -0.82618
 Alpha  occ. eigenvalues --   -0.82428  -0.81763  -0.81555  -0.81423  -0.80565
 Alpha  occ. eigenvalues --   -0.80279  -0.78767  -0.77994  -0.77358  -0.77188
 Alpha  occ. eigenvalues --   -0.76903  -0.76820  -0.75893  -0.75871  -0.75511
 Alpha  occ. eigenvalues --   -0.74868  -0.72744  -0.72683  -0.72005  -0.71642
 Alpha  occ. eigenvalues --   -0.70270  -0.69877  -0.68882  -0.68842  -0.68106
 Alpha  occ. eigenvalues --   -0.67611  -0.67188  -0.66202  -0.65255  -0.65188
 Alpha  occ. eigenvalues --   -0.64922  -0.64823  -0.64590  -0.64299  -0.64239
 Alpha  occ. eigenvalues --   -0.64155  -0.62371  -0.62266  -0.60507  -0.60411
 Alpha  occ. eigenvalues --   -0.59774  -0.59650  -0.59163  -0.58957  -0.58822
 Alpha  occ. eigenvalues --   -0.58473  -0.58144  -0.57919  -0.57554  -0.57278
 Alpha  occ. eigenvalues --   -0.56279  -0.56225  -0.56139  -0.55947  -0.55652
 Alpha  occ. eigenvalues --   -0.55490  -0.55351  -0.55309  -0.54493  -0.54227
 Alpha  occ. eigenvalues --   -0.53864  -0.53637  -0.53520  -0.53268  -0.53191
 Alpha  occ. eigenvalues --   -0.52965  -0.52884  -0.52725  -0.52407  -0.52393
 Alpha  occ. eigenvalues --   -0.52309  -0.52084  -0.51885  -0.51810  -0.51585
 Alpha  occ. eigenvalues --   -0.51165  -0.50763  -0.50719  -0.50542  -0.50149
 Alpha  occ. eigenvalues --   -0.50001  -0.49989  -0.49888  -0.49693  -0.49562
 Alpha  occ. eigenvalues --   -0.49484  -0.49326  -0.49312  -0.49184  -0.49066
 Alpha  occ. eigenvalues --   -0.48775  -0.48562  -0.48431  -0.48415  -0.48234
 Alpha  occ. eigenvalues --   -0.48141  -0.47978  -0.47664  -0.47639  -0.47266
 Alpha  occ. eigenvalues --   -0.46850  -0.46766  -0.46624  -0.46547  -0.46524
 Alpha  occ. eigenvalues --   -0.46328  -0.46132  -0.45960  -0.45837  -0.45791
 Alpha  occ. eigenvalues --   -0.45586  -0.45208  -0.45171  -0.45013  -0.44742
 Alpha  occ. eigenvalues --   -0.44547  -0.44476  -0.44114  -0.44058  -0.43989
 Alpha  occ. eigenvalues --   -0.43860  -0.43464  -0.43360  -0.43355  -0.43264
 Alpha  occ. eigenvalues --   -0.42997  -0.42981  -0.42860  -0.42696  -0.42668
 Alpha  occ. eigenvalues --   -0.42624  -0.42307  -0.42089  -0.41991  -0.41979
 Alpha  occ. eigenvalues --   -0.41879  -0.41673  -0.41571  -0.41503  -0.41433
 Alpha  occ. eigenvalues --   -0.41111  -0.40992  -0.40838  -0.40792  -0.40541
 Alpha  occ. eigenvalues --   -0.40224  -0.40202  -0.39554  -0.39443  -0.39410
 Alpha  occ. eigenvalues --   -0.38439  -0.38401  -0.37953  -0.37717  -0.37511
 Alpha  occ. eigenvalues --   -0.37290  -0.37232  -0.37131  -0.36682  -0.36388
 Alpha  occ. eigenvalues --   -0.36162  -0.35852  -0.35135  -0.34255  -0.33961
 Alpha  occ. eigenvalues --   -0.33739  -0.33345  -0.33156  -0.31582  -0.31314
 Alpha  occ. eigenvalues --   -0.31012  -0.31005  -0.30419  -0.29998  -0.29822
 Alpha  occ. eigenvalues --   -0.29418  -0.29363  -0.29291  -0.24050  -0.23810
 Alpha  occ. eigenvalues --   -0.21097  -0.21096
 Alpha virt. eigenvalues --   -0.08744  -0.08436  -0.01888  -0.01719  -0.00027
 Alpha virt. eigenvalues --    0.00189   0.02231   0.02610   0.03025   0.03154
 Alpha virt. eigenvalues --    0.04748   0.05130   0.05337   0.05852   0.06067

 Mulliken charges:
               1
     1  Mg  11.999650
     2  C    6.019734
     3  C    5.980862
     4  C    5.983052
     5  C    6.022113
     6  N    7.007992
     7  C    5.965081
     8  C    6.008592
     9  C    5.990979
    10  C    6.029644
    11  C    5.998821
    12  C    6.004385
    13  C    6.001317
    14  H    1.000233
    15  N    6.992430
    16  C    6.045013
    17  C    6.027867
    18  C    6.017817
    19  C    6.027033
    20  C    5.992672
    21  C    6.013978
    22  O    8.031024
    23  C    5.994463
    24  N    6.999869
    25  C    6.030012
    26  C    5.987079
    27  C    6.014046
    28  C    5.964382
    29  C    6.000177
    30  C    6.003877
    31  C    6.001493
    32  N    7.007409
    33  C    5.945546
    34  C    5.979124
    35  C    5.990570
    36  C    5.966243
    37  C    6.005463
    38  C    5.986009
    39  O    7.967642
    40  C    5.997300
    41  C    5.996678
    42  O    7.995691
    43  O    7.998142
    44  C    6.001794
    45  H    1.007539
    46  H    1.006338
    47  H    0.990945
    48  H    1.000433
    49  H    0.999855
    50  H    1.017242
    51  H    0.995188
    52  H    1.003654
    53  H    0.985006
    54  H    1.005966
    55  H    0.999121
    56  H    0.992711
    57  H    1.021979
    58  H    1.022056
    59  H    1.022964
    60  H    1.005348
    61  H    1.015673
    62  H    1.007393
    63  H    0.999706
    64  H    0.995411
    65  H    1.000575
    66  H    0.994527
    67  H    1.010979
    68  H    0.989930
    69  H    1.003088
    70  H    0.987405
    71  H    0.998502
    72  H    1.003332
    73  H    0.982407
    74  H    0.981256
    75  H    0.979751
    76  H    0.992067
    77  H    0.996939
    78  H    0.993668
    79  H    0.997751
    80  Mg  12.000002
    81  C    6.000017
    82  C    6.000022
    83  C    6.000005
    84  C    6.000020
    85  N    7.000022
    86  C    6.000041
    87  C    5.999995
    88  C    6.000024
    89  C    5.999942
    90  C    6.000010
    91  C    5.999981
    92  C    6.000003
    93  H    0.999998
    94  N    7.000018
    95  C    5.999887
    96  C    5.999981
    97  C    5.999961
    98  C    5.999947
    99  C    6.000012
   100  C    5.999965
   101  O    7.999950
   102  C    6.000005
   103  N    6.999976
   104  C    5.999964
   105  C    6.000042
   106  C    5.999972
   107  C    6.000046
   108  C    5.999988
   109  C    5.999978
   110  C    5.999991
   111  N    6.999999
   112  C    6.000046
   113  C    6.000077
   114  C    5.999966
   115  C    6.000026
   116  C    5.999990
   117  C    6.000087
   118  O    8.000077
   119  C    5.999978
   120  C    6.000019
   121  O    8.000026
   122  O    7.999993
   123  C    5.999991
   124  H    0.999980
   125  H    0.999983
   126  H    1.000009
   127  H    0.999989
   128  H    1.000002
   129  H    0.999980
   130  H    0.999957
   131  H    0.999983
   132  H    1.000034
   133  H    0.999999
   134  H    1.000024
   135  H    1.000007
   136  H    0.999945
   137  H    0.999975
   138  H    0.999951
   139  H    0.999972
   140  H    0.999993
   141  H    0.999961
   142  H    1.000010
   143  H    0.999982
   144  H    0.999971
   145  H    1.000005
   146  H    0.999980
   147  H    1.000020
   148  H    1.000002
   149  H    1.000020
   150  H    1.000014
   151  H    1.000019
   152  H    1.000041
   153  H    1.000079
   154  H    1.000040
   155  H    0.999993
   156  H    1.000006
   157  H    1.000003
   158  H    1.000031
 Sum of Mulliken charges = 624.00000

 Dipole moment (field-independent basis, Debye):
    X=             -2.6371    Y=             -4.9990    Z=              9.4522  Tot=             11.0131
 Quadrupole moment (field-independent basis, Debye-Ang):
   XX=           -136.0080   YY=              4.1112   ZZ=              4.9935
   XY=           -125.2143   XZ=            242.9283   YZ=            -10.2974

 Normal termination of Gaussian 16 at Wed Sep 22 10:07:57 2021.
