 Gaussian 16, Revision A.03,
 Gaussian 16:  ES64L-G16RevA.03 25-Dec-2016

 -----------------------------------
 #p cam-b3lyp/Def2SVP td=(nstates=5)
 -----------------------------------

 --------------------------------
 TDDFT excited states in gaussian
 --------------------------------
 Symbolic Z-matrix:
 Charge =  0 Multiplicity = 1

                         Standard orientation:
 ---------------------------------------------------------------------
 Center     Atomic      Atomic             Coordinates (Angstroms)
 Number     Number       Type             X           Y           Z
 ---------------------------------------------------------------------
      1         12           0       16.789226    0.615100   -0.138975
      2          6           0       14.944120   -2.312181    1.217537
      3          6           0       14.260120    2.413156    1.200627
      4          6           0       18.290556    3.003983   -1.583576
      5          6           0       18.684505   -1.749444   -2.007334
      6          7           0       14.831947    0.073616    1.010085
      7          6           0       14.425051   -1.120983    1.579769
      8          6           0       13.279105   -0.989154    2.589447
      9          6           0       12.795773    0.444636    2.210000
     10          6           0       14.014419    1.052871    1.413783
     11          6           0       11.532233    0.500905    1.410496
     12          6           0       13.625549   -1.216718    4.099116
     13          6           0       12.563199   -1.772328    4.987615
     14          1           0       12.539403   -1.210900    6.405728
     15          7           0       16.368239    2.524552   -0.160108
     16          6           0       15.288245    3.134605    0.511657
     17          6           0       15.462871    4.555258    0.416183
     18          6           0       16.743924    4.704151   -0.273310
     19          6           0       17.152501    3.406681   -0.675138
     20          6           0       14.539243    5.628569    1.102303
     21          6           0       17.455479    6.002218   -0.503592
     22          8           0       18.523998    6.069118   -1.158722
     23          6           0       16.991415    7.295678    0.059615
     24          7           0       18.154649    0.685654   -1.694825
     25          6           0       18.671648    1.836580   -2.129602
     26          6           0       19.780239    1.662831   -3.216756
     27          6           0       20.142685    0.154816   -2.947522
     28          6           0       18.889610   -0.373037   -2.196720
     29          6           0       19.228218    1.874110   -4.663281
     30          6           0       21.430189   -0.001978   -2.034034
     31          6           0       22.739169    0.707075   -2.440494
     32          7           0       16.865460   -1.572141   -0.340431
     33          6           0       17.742427   -2.344911   -1.093084
     34          6           0       17.424439   -3.743400   -0.923287
     35          6           0       16.368269   -3.775321   -0.003782
     36          6           0       15.991311   -2.431456    0.268081
     37          6           0       18.172059   -4.906267   -1.483766
     38          6           0       15.490445   -4.670249    0.738801
     39          8           0       15.414508   -5.886686    0.850472
     40          6           0       14.594078   -3.666220    1.633145
     41          6           0       13.215976   -4.066391    1.406400
     42          8           0       12.598097   -4.034583    0.330532
     43          8           0       12.846227   -4.882417    2.436888
     44          6           0       11.546964   -5.474304    2.429967
     45          1           0       13.497241    2.937652    1.780047
     46          1           0       18.836935    3.795826   -2.099848
     47          1           0       19.309516   -2.426136   -2.594421
     48          1           0       12.512770   -1.707875    2.298374
     49          1           0       12.736546    1.075267    3.096579
     50          1           0       11.813802    0.762713    0.390537
     51          1           0       10.901751    1.310784    1.777216
     52          1           0       10.929753   -0.405980    1.362599
     53          1           0       13.866404   -0.239383    4.516362
     54          1           0       14.535755   -1.814736    4.134911
     55          1           0       12.799318   -2.835413    5.029994
     56          1           0       11.588973   -1.814782    4.500409
     57          1           0       14.962455    6.123353    1.975976
     58          1           0       13.557122    5.217485    1.334323
     59          1           0       14.399477    6.338481    0.286132
     60          1           0       16.133223    7.632734   -0.522325
     61          1           0       17.828792    7.983781   -0.059372
     62          1           0       16.804535    7.121619    1.118754
     63          1           0       20.551832    2.393719   -2.972451
     64          1           0       20.278262   -0.463911   -3.834075
     65          1           0       19.693519    2.785737   -5.038986
     66          1           0       18.143360    1.902370   -4.759891
     67          1           0       19.644040    1.008790   -5.181384
     68          1           0       21.707010   -1.055672   -2.008863
     69          1           0       21.112242    0.248660   -1.022166
     70          1           0       22.974789    1.353628   -1.595315
     71          1           0       22.454250    1.316051   -3.298919
     72          1           0       23.558162    0.009203   -2.613992
     73          1           0       19.106848   -4.475692   -1.843492
     74          1           0       17.570514   -5.277763   -2.313318
     75          1           0       18.303795   -5.730691   -0.783023
     76          1           0       14.863059   -3.775824    2.683576
     77          1           0       10.962429   -5.157288    1.566020
     78          1           0       11.056929   -5.087645    3.323621
     79          1           0       11.602835   -6.553309    2.566719
     80         12           0      -16.351715    0.504080    0.415119
     81          6           0      -15.621859   -2.603200   -0.759584
     82          6           0      -12.978187    0.825706    1.427224
     83          6           0      -16.805852    3.810097    0.550017
     84          6           0      -19.609431    0.298012   -1.130015
     85          7           0      -14.585061   -0.763031    0.344876
     86          6           0      -14.452244   -1.947356   -0.153577
     87          6           0      -13.090572   -2.631510    0.224462
     88          6           0      -12.379739   -1.600799    1.181814
     89          6           0      -13.373412   -0.396912    1.038525
     90          6           0      -12.005394   -2.111841    2.573768
     91          6           0      -12.232640   -3.080236   -1.102002
     92          6           0      -12.505271   -2.374513   -2.420482
     93          1           0      -11.478498   -2.417537   -3.552187
     94          7           0      -15.054222    2.090486    0.913258
     95          6           0      -13.756296    2.029900    1.360589
     96          6           0      -13.271957    3.323815    1.576436
     97          6           0      -14.349133    4.249446    1.292981
     98          6           0      -15.483224    3.395202    0.852124
     99          6           0      -11.905034    3.550444    2.195765
    100          6           0      -14.234050    5.778402    1.430346
    101          8           0      -13.137662    6.248462    1.808993
    102          6           0      -15.277784    6.724143    1.158982
    103          7           0      -17.970811    1.928036   -0.368645
    104          6           0      -17.918607    3.166728    0.031563
    105          6           0      -19.233735    3.950493   -0.242163
    106          6           0      -20.160481    2.817285   -0.734059
    107          6           0      -19.237857    1.532146   -0.754770
    108          6           0      -19.799867    4.641321    0.945675
    109          6           0      -20.844413    3.141863   -2.144856
    110          6           0      -22.407794    3.395541   -2.120489
    111          7           0      -17.503295   -0.859080   -0.617066
    112          6           0      -18.796182   -0.857759   -1.155431
    113          6           0      -19.072662   -2.209029   -1.735090
    114          6           0      -17.840087   -2.868029   -1.623822
    115          6           0      -16.902791   -2.011862   -0.973172
    116          6           0      -20.289190   -2.716183   -2.340873
    117          6           0      -17.229494   -4.065105   -1.982214
    118          8           0      -17.627147   -5.097623   -2.541514
    119          6           0      -15.803660   -3.996817   -1.365104
    120          6           0      -15.628504   -5.211848   -0.423350
    121          8           0      -14.737861   -6.044260   -0.443140
    122          8           0      -16.630975   -5.288425    0.519247
    123          6           0      -16.602309   -6.421308    1.451985
    124          1           0      -11.911636    0.845691    1.660052
    125          1           0      -17.067340    4.855740    0.724094
    126          1           0      -20.651611    0.193612   -1.438555
    127          1           0      -13.342952   -3.463296    0.882678
    128          1           0      -11.459532   -1.205995    0.750054
    129          1           0      -12.588014   -1.582154    3.327232
    130          1           0      -10.954553   -1.937908    2.808124
    131          1           0      -12.106823   -3.186360    2.726420
    132          1           0      -12.426602   -4.152879   -1.123796
    133          1           0      -11.156723   -2.916658   -1.037143
    134          1           0      -12.662085   -1.340647   -2.113967
    135          1           0      -13.473508   -2.752464   -2.749259
    136          1           0      -11.814392    4.133082    3.112877
    137          1           0      -11.238099    3.944904    1.428791
    138          1           0      -11.465490    2.584082    2.442088
    139          1           0      -16.187340    6.664099    1.756384
    140          1           0      -15.696194    6.552086    0.167812
    141          1           0      -14.932017    7.756327    1.112371
    142          1           0      -19.217341    4.760132   -0.971646
    143          1           0      -20.923863    2.539424   -0.007227
    144          1           0      -19.660594    5.722168    0.960846
    145          1           0      -19.243079    4.377026    1.845406
    146          1           0      -20.862281    4.417247    1.040023
    147          1           0      -20.735264    2.261963   -2.780314
    148          1           0      -20.480817    4.050192   -2.623402
    149          1           0      -22.643374    4.280007   -2.711039
    150          1           0      -22.684933    3.670728   -1.102779
    151          1           0      -22.838665    2.524034   -2.613712
    152          1           0      -21.088672   -2.190000   -1.818753
    153          1           0      -20.386775   -3.788598   -2.168276
    154          1           0      -20.184216   -2.555571   -3.413444
    155          1           0      -15.018653   -4.282241   -2.065009
    156          1           0      -17.616405   -6.592030    1.813821
    157          1           0      -16.019477   -6.319957    2.367339
    158          1           0      -16.169744   -7.328701    1.029504
 ---------------------------------------------------------------------

 SCF Done:  E(RCAM-B3LYP) =  -4069.77549860     A.U. after   19 cycles

 Excitation energies and oscillator strengths:

 Excited State   1:      Singlet-A      1.6589 eV  747.38 nm  f=0.3710  <S**2>=0.000
     310 -> 316       -0.15615
     311 -> 313        0.69141
     310 <- 316       -0.10432
 This state for optimization and/or second-order correction.
 Total Energy, E(TD-HF/TD-DFT) =  -4069.71453446
 Copying the excited state density for this state as the 1-particle RhoCI density.

 Excited State   2:      Singlet-A      1.7061 eV  726.71 nm  f=0.4482  <S**2>=0.000
     309 -> 315        0.16079
     312 -> 314        0.68854
     309 <- 315        0.10267

 Excited State   3:      Singlet-A      2.1782 eV  569.21 nm  f=0.2168  <S**2>=0.000
     310 -> 313        0.66758
     311 -> 316        0.21693

 Excited State   4:      Singlet-A      2.2509 eV  550.83 nm  f=0.1198  <S**2>=0.000
     309 -> 314        0.64223
     312 -> 315       -0.27229

 Excited State   5:      Singlet-A      2.9928 eV  414.28 nm  f=0.0000  <S**2>=0.000
     312 -> 313        0.70710

 The electronic state is 1-A.
 Alpha  occ. eigenvalues --  -46.90347 -46.88875 -19.24926 -19.24787 -19.20142
 Alpha  occ. eigenvalues --  -19.19870 -19.19395 -19.19000 -19.17458 -19.17413
 Alpha  occ. eigenvalues --  -14.43233 -14.42287 -14.41957 -14.41409 -14.40573
 Alpha  occ. eigenvalues --  -14.39856 -14.39683 -14.39549 -10.39750 -10.39120
 Alpha  occ. eigenvalues --  -10.35956 -10.34747 -10.34295 -10.33970 -10.33036
 Alpha  occ. eigenvalues --  -10.31807 -10.31535 -10.31386 -10.31302 -10.31099
 Alpha  occ. eigenvalues --  -10.30785 -10.30781 -10.30773 -10.30711 -10.30680
 Alpha  occ. eigenvalues --  -10.30677 -10.30430 -10.30411 -10.30342 -10.29830
 Alpha  occ. eigenvalues --  -10.29668 -10.29335 -10.29299 -10.29059 -10.29051
 Alpha  occ. eigenvalues --  -10.29036 -10.28936 -10.28837 -10.28502 -10.28450
 Alpha  occ. eigenvalues --  -10.28329 -10.28288 -10.28100 -10.28094 -10.28089
 Alpha  occ. eigenvalues --  -10.27991 -10.27979 -10.27902 -10.27755 -10.27744
 Alpha  occ. eigenvalues --  -10.27595 -10.27401 -10.27363 -10.27206 -10.27126
 Alpha  occ. eigenvalues --  -10.27103 -10.27074 -10.27030 -10.26936 -10.26865
 Alpha  occ. eigenvalues --  -10.26741 -10.26693 -10.26440 -10.26370 -10.26186
 Alpha  occ. eigenvalues --  -10.26172 -10.26040 -10.25922 -10.25706 -10.25687
 Alpha  occ. eigenvalues --  -10.25645 -10.25601 -10.25575 -10.25519 -10.25513
 Alpha  occ. eigenvalues --  -10.24950  -3.18755  -3.17537  -1.93633  -1.93243
 Alpha  occ. eigenvalues --   -1.93021  -1.92406  -1.91989  -1.91859  -1.16514
 Alpha  occ. eigenvalues --   -1.16170  -1.10204  -1.09086  -1.07653  -1.07446
 Alpha  occ. eigenvalues --   -1.07382  -1.06996  -1.05068  -1.04892  -1.04544
 Alpha  occ. eigenvalues --   -1.04013  -1.03675  -1.03640  -1.02512  -1.02283
 Alpha  occ. eigenvalues --   -0.93682  -0.93032  -0.89705  -0.89532  -0.89463
 Alpha  occ. eigenvalues --   -0.89022  -0.88777  -0.88357  -0.88026  -0.87834
 Alpha  occ. eigenvalues --   -0.87441  -0.86817  -0.86220  -0.85331  -0.84722
 Alpha  occ. eigenvalues --   -0.84682  -0.84226  -0.84019  -0.83126  -0.82985
 Alpha  occ. eigenvalues --   -0.82546  -0.82053  -0.81494  -0.81044  -0.80831
 Alpha  occ. eigenvalues --   -0.80303  -0.78545  -0.78515  -0.77467  -0.77428
 Alpha  occ. eigenvalues --   -0.77267  -0.77002  -0.76389  -0.76205  -0.75425
 Alpha  occ. eigenvalues --   -0.75317  -0.73434  -0.73337  -0.71988  -0.70924
 Alpha  occ. eigenvalues --   -0.69599  -0.69271  -0.68955  -0.68626  -0.68443
 Alpha  occ. eigenvalues --   -0.68153  -0.66921  -0.66874  -0.66068  -0.65689
 Alpha  occ. eigenvalues --   -0.65680  -0.65115  -0.64904  -0.64883  -0.64579
 Alpha  occ. eigenvalues --   -0.64459  -0.63367  -0.62036  -0.60935  -0.60731
 Alpha  occ. eigenvalues --   -0.59992  -0.59760  -0.59503  -0.58980  -0.58842
 Alpha  occ. eigenvalues --   -0.58557  -0.58378  -0.58059  -0.57661  -0.57286
 Alpha  occ. eigenvalues --   -0.56365  -0.55887  -0.55651  -0.55634  -0.55612
 Alpha  occ. eigenvalues --   -0.54866  -0.54848  -0.54605  -0.54578  -0.54180
 Alpha  occ. eigenvalues --   -0.53898  -0.53678  -0.53538  -0.53284  -0.53212
 Alpha  occ. eigenvalues --   -0.52910  -0.52854  -0.52629  -0.52541  -0.52396
 Alpha  occ. eigenvalues --   -0.52261  -0.51739  -0.51524  -0.51400  -0.51281
 Alpha  occ. eigenvalues --   -0.51207  -0.51002  -0.50971  -0.50719  -0.50298
 Alpha  occ. eigenvalues --   -0.50281  -0.49934  -0.49885  -0.49828  -0.49698
 Alpha  occ. eigenvalues --   -0.49600  -0.49476  -0.49257  -0.49189  -0.49029
 Alpha  occ. eigenvalues --   -0.48854  -0.48715  -0.48589  -0.48327  -0.48310
 Alpha  occ. eigenvalues --   -0.48132  -0.47839  -0.47688  -0.47551  -0.47439
 Alpha  occ. eigenvalues --   -0.47244  -0.47216  -0.46869  -0.46784  -0.46507
 Alpha  occ. eigenvalues --   -0.46365  -0.46221  -0.46178  -0.45930  -0.45916
 Alpha  occ. eigenvalues --   -0.45756  -0.45377  -0.45282  -0.45097  -0.45043
 Alpha  occ. eigenvalues --   -0.44958  -0.44897  -0.44819  -0.44629  -0.44484
 Alpha  occ. eigenvalues --   -0.44345  -0.43931  -0.43853  -0.43686  -0.43621
 Alpha  occ. eigenvalues --   -0.43253  -0.43072  -0.42825  -0.42725  -0.42698
 Alpha  occ. eigenvalues --   -0.42664  -0.42285  -0.42101  -0.42093  -0.42034
 Alpha  occ. eigenvalues --   -0.41992  -0.41613  -0.41517  -0.41319  -0.40982
 Alpha  occ. eigenvalues --   -0.40881  -0.40746  -0.40666  -0.40614  -0.40019
 Alpha  occ. eigenvalues --   -0.39864  -0.39795  -0.39468  -0.39248  -0.39098
 Alpha  occ. eigenvalues --   -0.38747  -0.38560  -0.38222  -0.38066  -0.37875
 Alpha  occ. eigenvalues --   -0.37743  -0.37164  -0.36888  -0.36553  -0.36422
 Alpha  occ. eigenvalues --   -0.36383  -0.35803  -0.34838  -0.34594  -0.34326
 Alpha  occ. eigenvalues --   -0.34292  -0.34069  -0.33115  -0.31636  -0.31547
 Alpha  occ. eigenvalues --   -0.31377  -0.31106  -0.30946  -0.30206  -0.30112
 Alpha  occ. eigenvalues --   -0.29871  -0.29787  -0.29050  -0.24967  -0.24250
 Alpha  occ. eigenvalues --   -0.21708  -0.21694
 Alpha virt. eigenvalues --   -0.09637  -0.09552  -0.01923  -0.00756  -0.00054
 Alpha virt. eigenvalues --    0.00311   0.00599   0.01760   0.02184   0.02275
 Alpha virt. eigenvalues --    0.03948   0.04985   0.04994   0.05234   0.05413

 Mulliken charges:
               1
     1  Mg   0.846852
     2  C    0.005389
     3  C   -0.055050
     4  C   -0.031329
     5  C   -0.072655
     6  N   -0.231483
     7  C   -0.075649
     8  C   -0.050073
     9  C   -0.049645
    10  C   -0.041737
    11  C    0.095443
    12  C    0.083148
    13  C   -0.058003
    14  H    0.037210
    15  N   -0.406884
    16  C    0.180159
    17  C   -0.159244
    18  C   -0.027508
    19  C    0.117530
    20  C    0.116947
    21  C   -0.040707
    22  O   -0.244796
    23  C    0.073572
    24  N   -0.320025
    25  C    0.020755
    26  C   -0.057403
    27  C   -0.052478
    28  C    0.068240
    29  C    0.098085
    30  C    0.007924
    31  C    0.024829
    32  N   -0.315192
    33  C    0.105943
    34  C   -0.190316
    35  C    0.005578
    36  C    0.086719
    37  C    0.131697
    38  C    0.079939
    39  O   -0.155742
    40  C    0.008088
    41  C    0.184148
    42  O   -0.240370
    43  O   -0.318935
    44  C    0.170254
    45  H   -0.033422
    46  H   -0.013450
    47  H   -0.020875
    48  H    0.010348
    49  H   -0.000320
    50  H    0.022637
    51  H    0.011749
    52  H    0.026560
    53  H    0.008148
    54  H    0.007366
    55  H    0.024534
    56  H    0.021047
    57  H    0.046328
    58  H    0.017115
    59  H    0.022032
    60  H    0.041855
    61  H    0.028549
    62  H    0.025065
    63  H    0.021964
    64  H   -0.000196
    65  H    0.023661
    66  H    0.038055
    67  H    0.007164
    68  H   -0.000310
    69  H    0.009444
    70  H    0.020151
    71  H    0.016603
    72  H    0.025498
    73  H    0.010470
    74  H    0.036159
    75  H    0.041361
    76  H    0.041926
    77  H    0.049510
    78  H    0.016006
    79  H    0.044036
    80  Mg   0.825794
    81  C    0.014982
    82  C   -0.064111
    83  C   -0.034150
    84  C   -0.085233
    85  N   -0.280163
    86  C   -0.033748
    87  C   -0.003271
    88  C   -0.057048
    89  C    0.024085
    90  C    0.073126
    91  C    0.009617
    92  C   -0.045426
    93  H    0.044713
    94  N   -0.376595
    95  C    0.139147
    96  C   -0.133942
    97  C   -0.051347
    98  C    0.178984
    99  C    0.140084
   100  C    0.018687
   101  O   -0.238863
   102  C    0.063177
   103  N   -0.229456
   104  C   -0.016334
   105  C   -0.028432
   106  C    0.002421
   107  C    0.021005
   108  C    0.047848
   109  C    0.001325
   110  C   -0.010165
   111  N   -0.376992
   112  C    0.118829
   113  C   -0.164069
   114  C    0.035792
   115  C    0.123899
   116  C    0.127106
   117  C    0.044622
   118  O   -0.184259
   119  C   -0.043177
   120  C    0.174908
   121  O   -0.212557
   122  O   -0.339389
   123  C    0.178543
   124  H   -0.011572
   125  H   -0.063614
   126  H   -0.026466
   127  H    0.025718
   128  H    0.012369
   129  H    0.017755
   130  H    0.012500
   131  H    0.020267
   132  H    0.032860
   133  H    0.016812
   134  H    0.030156
   135  H    0.016178
   136  H    0.036895
   137  H    0.022584
   138  H   -0.021642
   139  H    0.042197
   140  H    0.019927
   141  H    0.027674
   142  H    0.019236
   143  H    0.008140
   144  H    0.006263
   145  H    0.010253
   146  H    0.018336
   147  H    0.012650
   148  H    0.017238
   149  H    0.010738
   150  H    0.016204
   151  H    0.026540
   152  H    0.022316
   153  H    0.042613
   154  H    0.050643
   155  H    0.029824
   156  H    0.033956
   157  H    0.019711
   158  H    0.044775
 Sum of Mulliken charges =  -0.00000

 Dipole moment (field-independent basis, Debye):
    X=             -4.6711    Y=              3.7047    Z=              4.9102  Tot=              7.7236
 Quadrupole moment (field-independent basis, Debye-Ang):
   XX=           -353.9570   YY=           -572.7669   ZZ=           -503.6043
   XY=            -40.1765   XZ=            -14.4086   YZ=            -22.1625

 Normal termination of Gaussian 16 at Tue Sep 14 19:48:46 2021.
