 Gaussian 16, Revision A.03,
 Gaussian 16:  ES64L-G16RevA.03 25-Dec-2016

 ----------------------------------------------------------
 #p cam-b3lyp/Def2SVP td=(nstates=5) density=(transition=1)
 ----------------------------------------------------------

 --------------------------------
 TDDFT excited states in gaussian
 --------------------------------
 Symbolic Z-matrix:
 Charge =  0 Multiplicity = 1

                         Standard orientation:
 ---------------------------------------------------------------------
 Center     Atomic      Atomic             Coordinates (Angstroms)
 Number     Number       Type             X           Y           Z
 ---------------------------------------------------------------------
      1         12           0      -20.643414   -0.537434    0.314054
      2          6           0      -19.951490    2.507719   -1.348079
      3          6           0      -19.880531    0.983421    3.120866
      4          6           0      -20.284329   -3.574006    1.571956
      5          6           0      -20.708184   -2.002662   -2.922810
      6          7           0      -20.152280    1.629078    0.757320
      7          6           0      -20.010120    2.665026    0.013750
      8          6           0      -19.946378    3.949315    0.865825
      9          6           0      -19.440148    3.407868    2.298339
     10          6           0      -19.767767    1.876599    2.051240
     11          6           0      -17.923171    3.666612    2.656135
     12          6           0      -21.416024    4.604602    1.025903
     13          6           0      -21.585124    6.154432    1.137979
     14          1           0      -20.381603    6.940178    1.777505
     15          7           0      -20.354711   -1.208893    2.152185
     16          6           0      -20.106512   -0.364016    3.223507
     17          6           0      -19.958348   -1.205649    4.462842
     18          6           0      -20.119492   -2.572746    3.984358
     19          6           0      -20.259910   -2.582309    2.525717
     20          6           0      -19.651411   -0.576851    5.808880
     21          6           0      -20.144609   -3.832452    4.821769
     22          8           0      -20.241716   -4.979842    4.364749
     23          6           0      -20.087356   -3.707455    6.290299
     24          7           0      -20.616997   -2.585827   -0.577876
     25          6           0      -20.404908   -3.630133    0.202400
     26          6           0      -20.740170   -4.975369   -0.582709
     27          6           0      -20.850759   -4.397559   -2.096311
     28          6           0      -20.756382   -2.894147   -1.850312
     29          6           0      -19.690428   -6.114771   -0.365017
     30          6           0      -22.120061   -4.766036   -2.932460
     31          6           0      -21.921093   -5.687142   -4.108644
     32          7           0      -20.603673    0.101264   -1.774493
     33          6           0      -20.643616   -0.646347   -2.934610
     34          6           0      -20.426294    0.180297   -4.047536
     35          6           0      -20.109149    1.420931   -3.462698
     36          6           0      -20.186187    1.355939   -2.091586
     37          6           0      -20.432296   -0.180490   -5.447178
     38          6           0      -19.824257    2.752750   -3.833194
     39          8           0      -19.767807    3.398887   -4.914629
     40          6           0      -19.438688    3.457294   -2.455523
     41          6           0      -20.014510    4.824543   -2.397159
     42          8           0      -21.201343    5.144777   -2.397040
     43          8           0      -18.923150    5.732564   -2.221045
     44          6           0      -19.247917    7.162621   -2.144607
     45          1           0      -19.755293    1.562612    4.038559
     46          1           0      -20.225189   -4.570698    2.012719
     47          1           0      -20.808369   -2.449747   -3.914709
     48          1           0      -19.092984    4.525226    0.508793
     49          1           0      -19.970474    3.957244    3.075427
     50          1           0      -17.348800    3.987856    1.787494
     51          1           0      -17.428257    2.755105    2.990814
     52          1           0      -17.928797    4.447432    3.416573
     53          1           0      -21.954625    4.151363    1.858267
     54          1           0      -22.023978    4.271397    0.184559
     55          1           0      -22.458605    6.460006    1.714858
     56          1           0      -21.540683    6.544969    0.120555
     57          1           0      -20.266989   -0.993227    6.607058
     58          1           0      -19.771183    0.506560    5.813811
     59          1           0      -18.579413   -0.634232    5.996016
     60          1           0      -19.184543   -3.183674    6.605704
     61          1           0      -20.114918   -4.697091    6.746426
     62          1           0      -20.928889   -3.191768    6.752894
     63          1           0      -21.728419   -5.367094   -0.342117
     64          1           0      -19.937602   -4.567998   -2.668472
     65          1           0      -18.845856   -5.746404    0.217588
     66          1           0      -19.516773   -6.426657   -1.395105
     67          1           0      -20.224488   -6.949448    0.087223
     68          1           0      -22.526523   -3.835348   -3.328940
     69          1           0      -22.879156   -5.185797   -2.272098
     70          1           0      -20.891353   -6.021857   -3.990559
     71          1           0      -21.978297   -5.083568   -5.015215
     72          1           0      -22.569359   -6.562312   -4.088684
     73          1           0      -21.367629   -0.708901   -5.629725
     74          1           0      -19.740883   -0.970614   -5.740158
     75          1           0      -20.393815    0.721541   -6.058166
     76          1           0      -18.351070    3.506746   -2.394179
     77          1           0      -18.338864    7.762988   -2.100266
     78          1           0      -19.703335    7.361103   -1.174223
     79          1           0      -19.791352    7.454265   -3.042722
     80         12           0       19.778453   -0.735307   -0.227298
     81          6           0       21.751956    2.220604    0.207746
     82          6           0       17.426297    0.579059    1.901952
     83          6           0       18.080284   -3.654820   -0.205200
     84          6           0       22.663954   -2.271955   -1.551670
     85          7           0       19.631805    1.180043    0.893729
     86          6           0       20.496763    2.285663    0.888708
     87          6           0       19.882442    3.395932    1.702097
     88          6           0       18.821874    2.618524    2.590300
     89          6           0       18.639162    1.310258    1.766106
     90          6           0       19.466363    2.364274    3.999501
     91          6           0       19.353998    4.602074    0.848104
     92          6           0       19.733907    5.857068    1.456340
     93          1           0       19.567630    7.149664    0.509623
     94          7           0       17.900725   -1.299180    0.616391
     95          6           0       17.084585   -0.606731    1.419962
     96          6           0       15.888485   -1.359738    1.641624
     97          6           0       16.045459   -2.601672    1.062978
     98          6           0       17.414540   -2.572045    0.368227
     99          6           0       14.755445   -0.859563    2.593017
    100          6           0       15.042834   -3.771352    0.985530
    101          8           0       15.383644   -4.800256    0.459065
    102          6           0       13.623836   -3.607139    1.476625
    103          7           0       20.428443   -2.748472   -0.558579
    104          6           0       19.458614   -3.743843   -0.606248
    105          6           0       19.990254   -4.970882   -1.272700
    106          6           0       21.464154   -4.526623   -1.731211
    107          6           0       21.520921   -3.074239   -1.319932
    108          6           0       19.914417   -6.185917   -0.411185
    109          6           0       21.862111   -4.746409   -3.292736
    110          6           0       22.994923   -5.642957   -3.603028
    111          7           0       21.797905   -0.188061   -0.665205
    112          6           0       22.817327   -0.947437   -1.193750
    113          6           0       24.030370   -0.037083   -1.374366
    114          6           0       23.623535    1.242067   -0.944838
    115          6           0       22.273123    1.084843   -0.473421
    116          6           0       25.396210   -0.501550   -1.898087
    117          6           0       24.132623    2.553940   -0.681610
    118          8           0       25.260025    3.047252   -0.910553
    119          6           0       23.011100    3.203857    0.228375
    120          6           0       22.814311    4.646278   -0.327505
    121          8           0       21.850903    4.917014   -1.067635
    122          8           0       23.756471    5.471713    0.190914
    123          6           0       23.673827    6.798153   -0.511815
    124          1           0       16.579220    1.067356    2.389002
    125          1           0       17.542636   -4.605724   -0.227739
    126          1           0       23.572515   -2.628852   -2.040889
    127          1           0       20.661902    3.722549    2.390103
    128          1           0       17.905841    3.193440    2.721437
    129          1           0       20.228310    1.585226    3.996586
    130          1           0       18.672936    2.144875    4.712687
    131          1           0       19.930238    3.288950    4.343645
    132          1           0       18.268857    4.595952    0.953459
    133          1           0       19.626786    4.509278   -0.203390
    134          1           0       20.807791    5.895935    1.639787
    135          1           0       19.132684    5.977531    2.357854
    136          1           0       13.872205   -0.893958    1.955266
    137          1           0       14.871279    0.164846    2.946631
    138          1           0       14.705021   -1.497215    3.475503
    139          1           0       13.087737   -4.554650    1.421435
    140          1           0       13.319594   -2.877808    0.725946
    141          1           0       13.661088   -3.217978    2.494065
    142          1           0       19.339036   -5.067267   -2.141651
    143          1           0       22.162835   -5.119153   -1.141098
    144          1           0       19.144415   -6.799080   -0.877689
    145          1           0       19.526879   -5.977888    0.586015
    146          1           0       20.848140   -6.735398   -0.289290
    147          1           0       22.187256   -3.747407   -3.583083
    148          1           0       20.947884   -4.983151   -3.835381
    149          1           0       23.808375   -5.098898   -4.082322
    150          1           0       22.485155   -6.220734   -4.373252
    151          1           0       23.262309   -6.302199   -2.776065
    152          1           0       25.983348   -0.740570   -1.012092
    153          1           0       25.906292    0.268982   -2.476107
    154          1           0       25.248211   -1.346061   -2.571182
    155          1           0       23.466204    3.198739    1.217864
    156          1           0       24.066080    6.804025   -1.528641
    157          1           0       24.145387    7.625250    0.017891
    158          1           0       22.616780    7.064783   -0.503758
 ---------------------------------------------------------------------

 SCF Done:  E(RCAM-B3LYP) =  -4069.74750595     A.U. after   19 cycles

 Excitation energies and oscillator strengths:

 Excited State   1:      Singlet-A      1.7187 eV  721.40 nm  f=0.3548  <S**2>=0.000
     309 -> 316       -0.18755
     312 -> 314        0.68234
     309 <- 316       -0.10715
 This state for optimization and/or second-order correction.
 Total Energy, E(TD-HF/TD-DFT) =  -4069.68434593
 Copying the excited state density for this state as the 1-particle RhoCI density.

 Excited State   2:      Singlet-A      1.7997 eV  688.92 nm  f=0.3655  <S**2>=0.000
     310 -> 315        0.21221
     311 -> 313        0.67496
     310 <- 315        0.10955

 Excited State   3:      Singlet-A      2.2245 eV  557.36 nm  f=0.0805  <S**2>=0.000
     310 -> 313        0.62929
     311 -> 315       -0.30802

 Excited State   4:      Singlet-A      2.2688 eV  546.47 nm  f=0.0058  <S**2>=0.000
     309 -> 314        0.54883
     312 -> 316        0.43683

 Excited State   5:      Singlet-A      2.9119 eV  425.78 nm  f=0.0000  <S**2>=0.000
     312 -> 313        0.70710

 The electronic state is 1-A.
 Alpha  occ. eigenvalues --  -46.89436 -46.89427 -19.26154 -19.23986 -19.20262
 Alpha  occ. eigenvalues --  -19.19752 -19.19485 -19.19041 -19.18743 -19.18496
 Alpha  occ. eigenvalues --  -14.42264 -14.42196 -14.41910 -14.41766 -14.40016
 Alpha  occ. eigenvalues --  -14.39362 -14.39149 -14.38611 -10.39715 -10.39336
 Alpha  occ. eigenvalues --  -10.35674 -10.35169 -10.34902 -10.34532 -10.31567
 Alpha  occ. eigenvalues --  -10.31529 -10.31369 -10.31303 -10.31202 -10.31132
 Alpha  occ. eigenvalues --  -10.31009 -10.30924 -10.30795 -10.30752 -10.30663
 Alpha  occ. eigenvalues --  -10.30477 -10.30352 -10.30292 -10.29374 -10.29170
 Alpha  occ. eigenvalues --  -10.29000 -10.28964 -10.28765 -10.28706 -10.28690
 Alpha  occ. eigenvalues --  -10.28658 -10.28615 -10.28613 -10.28436 -10.28429
 Alpha  occ. eigenvalues --  -10.28350 -10.28150 -10.28109 -10.28102 -10.28056
 Alpha  occ. eigenvalues --  -10.28040 -10.27882 -10.27802 -10.27638 -10.27584
 Alpha  occ. eigenvalues --  -10.27533 -10.27512 -10.27365 -10.27347 -10.27019
 Alpha  occ. eigenvalues --  -10.27011 -10.26933 -10.26425 -10.26422 -10.26417
 Alpha  occ. eigenvalues --  -10.26383 -10.26288 -10.26270 -10.26247 -10.26071
 Alpha  occ. eigenvalues --  -10.25952 -10.25947 -10.25874 -10.25870 -10.25855
 Alpha  occ. eigenvalues --  -10.25446 -10.25356 -10.25098 -10.25020 -10.24926
 Alpha  occ. eigenvalues --  -10.24685  -3.17889  -3.17764  -1.92793  -1.92661
 Alpha  occ. eigenvalues --   -1.92355  -1.92207  -1.92175  -1.92066  -1.16038
 Alpha  occ. eigenvalues --   -1.14010  -1.11735  -1.09465  -1.07843  -1.07331
 Alpha  occ. eigenvalues --   -1.07122  -1.06770  -1.05826  -1.05255  -1.04078
 Alpha  occ. eigenvalues --   -1.03532  -1.03027  -1.02697  -1.01513  -1.01429
 Alpha  occ. eigenvalues --   -0.93001  -0.91214  -0.89541  -0.88931  -0.88683
 Alpha  occ. eigenvalues --   -0.88654  -0.88184  -0.87942  -0.87596  -0.87500
 Alpha  occ. eigenvalues --   -0.87420  -0.87243  -0.86953  -0.85466  -0.84405
 Alpha  occ. eigenvalues --   -0.84317  -0.84016  -0.83778  -0.82767  -0.82605
 Alpha  occ. eigenvalues --   -0.82509  -0.82103  -0.81554  -0.80712  -0.80670
 Alpha  occ. eigenvalues --   -0.80450  -0.79012  -0.78210  -0.77756  -0.77535
 Alpha  occ. eigenvalues --   -0.77013  -0.76530  -0.75933  -0.75464  -0.75280
 Alpha  occ. eigenvalues --   -0.74918  -0.73267  -0.72300  -0.72163  -0.71431
 Alpha  occ. eigenvalues --   -0.68975  -0.68793  -0.68637  -0.67969  -0.67858
 Alpha  occ. eigenvalues --   -0.67407  -0.67270  -0.66365  -0.65968  -0.65704
 Alpha  occ. eigenvalues --   -0.65639  -0.65101  -0.64953  -0.64644  -0.64426
 Alpha  occ. eigenvalues --   -0.64290  -0.62031  -0.61300  -0.60580  -0.60190
 Alpha  occ. eigenvalues --   -0.59914  -0.59332  -0.59107  -0.58426  -0.58391
 Alpha  occ. eigenvalues --   -0.58229  -0.57785  -0.57411  -0.57382  -0.57087
 Alpha  occ. eigenvalues --   -0.57039  -0.55975  -0.55811  -0.55548  -0.55523
 Alpha  occ. eigenvalues --   -0.55051  -0.54491  -0.54314  -0.54001  -0.53968
 Alpha  occ. eigenvalues --   -0.53838  -0.53576  -0.53542  -0.53263  -0.53008
 Alpha  occ. eigenvalues --   -0.52960  -0.52735  -0.52650  -0.52583  -0.52516
 Alpha  occ. eigenvalues --   -0.52446  -0.52285  -0.51904  -0.51598  -0.51247
 Alpha  occ. eigenvalues --   -0.51154  -0.50961  -0.50593  -0.50545  -0.50410
 Alpha  occ. eigenvalues --   -0.50390  -0.50207  -0.50117  -0.49910  -0.49604
 Alpha  occ. eigenvalues --   -0.49506  -0.49245  -0.49108  -0.48926  -0.48831
 Alpha  occ. eigenvalues --   -0.48710  -0.48641  -0.48424  -0.48192  -0.48089
 Alpha  occ. eigenvalues --   -0.47991  -0.47853  -0.47837  -0.47659  -0.47423
 Alpha  occ. eigenvalues --   -0.47357  -0.47075  -0.46836  -0.46609  -0.46537
 Alpha  occ. eigenvalues --   -0.46344  -0.46224  -0.46147  -0.46084  -0.45841
 Alpha  occ. eigenvalues --   -0.45630  -0.45384  -0.45376  -0.44956  -0.44626
 Alpha  occ. eigenvalues --   -0.44533  -0.44343  -0.44271  -0.44079  -0.43972
 Alpha  occ. eigenvalues --   -0.43955  -0.43739  -0.43602  -0.43449  -0.43380
 Alpha  occ. eigenvalues --   -0.43150  -0.43032  -0.43019  -0.42833  -0.42651
 Alpha  occ. eigenvalues --   -0.42357  -0.41993  -0.41980  -0.41908  -0.41732
 Alpha  occ. eigenvalues --   -0.41624  -0.41458  -0.41216  -0.41121  -0.41101
 Alpha  occ. eigenvalues --   -0.40797  -0.40773  -0.40690  -0.40332  -0.40217
 Alpha  occ. eigenvalues --   -0.40097  -0.39834  -0.39073  -0.38836  -0.38543
 Alpha  occ. eigenvalues --   -0.38531  -0.37874  -0.37861  -0.37443  -0.37260
 Alpha  occ. eigenvalues --   -0.37077  -0.36948  -0.36491  -0.36150  -0.36140
 Alpha  occ. eigenvalues --   -0.35681  -0.34780  -0.34520  -0.33988  -0.33945
 Alpha  occ. eigenvalues --   -0.33817  -0.33593  -0.33091  -0.31838  -0.31728
 Alpha  occ. eigenvalues --   -0.31395  -0.31338  -0.30622  -0.30547  -0.30290
 Alpha  occ. eigenvalues --   -0.30072  -0.29337  -0.29327  -0.24248  -0.24204
 Alpha  occ. eigenvalues --   -0.21715  -0.20198
 Alpha virt. eigenvalues --   -0.08656  -0.07569  -0.02692  -0.02505  -0.00279
 Alpha virt. eigenvalues --    0.00011   0.01820   0.02215   0.02282   0.02404
 Alpha virt. eigenvalues --    0.04537   0.04868   0.05461   0.05466   0.05565

 Mulliken charges:
               1
     1  Mg  12.000019
     2  C    5.999927
     3  C    6.000060
     4  C    6.000081
     5  C    5.999942
     6  N    6.999971
     7  C    6.000104
     8  C    5.999982
     9  C    6.000062
    10  C    5.999839
    11  C    6.000008
    12  C    5.999972
    13  C    6.000008
    14  H    0.999980
    15  N    7.000057
    16  C    5.999859
    17  C    5.999908
    18  C    5.999967
    19  C    5.999857
    20  C    6.000019
    21  C    5.999943
    22  O    7.999908
    23  C    6.000028
    24  N    6.999988
    25  C    5.999851
    26  C    6.000055
    27  C    5.999988
    28  C    6.000102
    29  C    5.999989
    30  C    5.999968
    31  C    6.000001
    32  N    6.999982
    33  C    6.000142
    34  C    6.000135
    35  C    5.999975
    36  C    6.000122
    37  C    5.999969
    38  C    6.000055
    39  O    8.000157
    40  C    5.999976
    41  C    6.000021
    42  O    8.000093
    43  O    7.999968
    44  C    5.999982
    45  H    0.999961
    46  H    0.999966
    47  H    1.000060
    48  H    0.999966
    49  H    1.000016
    50  H    0.999904
    51  H    0.999928
    52  H    0.999989
    53  H    1.000071
    54  H    1.000021
    55  H    1.000073
    56  H    1.000014
    57  H    0.999974
    58  H    0.999959
    59  H    0.999830
    60  H    0.999908
    61  H    0.999950
    62  H    1.000033
    63  H    1.000039
    64  H    0.999940
    65  H    0.999926
    66  H    0.999962
    67  H    1.000030
    68  H    1.000026
    69  H    1.000085
    70  H    0.999959
    71  H    1.000016
    72  H    1.000070
    73  H    1.000130
    74  H    1.000055
    75  H    1.000083
    76  H    0.999958
    77  H    0.999983
    78  H    1.000033
    79  H    1.000061
    80  Mg  11.996689
    81  C    6.024734
    82  C    5.987578
    83  C    5.968155
    84  C    6.016432
    85  N    7.014413
    86  C    5.964485
    87  C    6.006596
    88  C    5.985704
    89  C    6.036520
    90  C    5.995398
    91  C    6.005449
    92  C    5.999542
    93  H    1.000273
    94  N    6.981585
    95  C    6.037403
    96  C    6.017275
    97  C    6.013333
    98  C    6.047866
    99  C    5.998669
   100  C    6.010864
   101  O    8.023786
   102  C    5.998436
   103  N    6.994969
   104  C    6.045910
   105  C    5.985326
   106  C    6.016154
   107  C    5.965323
   108  C    5.998510
   109  C    6.001867
   110  C    6.002422
   111  N    7.006492
   112  C    5.956356
   113  C    5.965118
   114  C    6.001394
   115  C    5.963639
   116  C    6.001970
   117  C    5.984285
   118  O    7.972444
   119  C    6.001499
   120  C    5.996028
   121  O    7.991413
   122  O    8.000764
   123  C    6.002661
   124  H    1.010862
   125  H    1.004492
   126  H    0.991873
   127  H    1.003560
   128  H    1.004326
   129  H    1.009204
   130  H    0.999138
   131  H    1.013369
   132  H    0.987884
   133  H    1.004174
   134  H    1.004845
   135  H    0.993876
   136  H    1.013975
   137  H    1.016351
   138  H    1.016485
   139  H    1.013741
   140  H    1.005398
   141  H    1.005200
   142  H    1.000675
   143  H    0.994100
   144  H    1.000360
   145  H    0.996014
   146  H    1.011704
   147  H    1.006121
   148  H    0.989292
   149  H    1.002923
   150  H    0.994200
   151  H    0.995868
   152  H    0.979262
   153  H    0.982134
   154  H    0.981529
   155  H    0.992219
   156  H    0.999283
   157  H    0.994959
   158  H    0.994871
 Sum of Mulliken charges = 624.00000

 Dipole moment (field-independent basis, Debye):
    X=             -9.4281    Y=             -2.7485    Z=              3.5268  Tot=             10.4346
 Quadrupole moment (field-independent basis, Debye-Ang):
   XX=           -376.3947   YY=              1.5982   ZZ=              1.3769
   XY=            -47.9973   XZ=             71.8215   YZ=             -2.3031

 Normal termination of Gaussian 16 at Wed Sep 22 03:17:13 2021.
