 Gaussian 16, Revision A.03,
 Gaussian 16:  ES64L-G16RevA.03 25-Dec-2016

 -----------------------------------
 #p cam-b3lyp/Def2SVP td=(nstates=5)
 -----------------------------------

 --------------------------------
 TDDFT excited states in gaussian
 --------------------------------
 Symbolic Z-matrix:
 Charge =  0 Multiplicity = 1

                         Standard orientation:
 ---------------------------------------------------------------------
 Center     Atomic      Atomic             Coordinates (Angstroms)
 Number     Number       Type             X           Y           Z
 ---------------------------------------------------------------------
      1         12           0       19.895711    0.364312    0.251349
      2          6           0       17.466742   -1.576699   -1.186757
      3          6           0       20.508929    1.811542   -2.703115
      4          6           0       22.414718    2.021271    1.758746
      5          6           0       19.537965   -1.605633    3.286247
      6          7           0       19.223320   -0.082317   -1.812700
      7          6           0       18.159059   -0.818307   -2.155085
      8          6           0       17.837795   -0.657950   -3.728860
      9          6           0       18.875434    0.465673   -4.102705
     10          6           0       19.647774    0.755132   -2.799825
     11          6           0       19.743063    0.124328   -5.329756
     12          6           0       16.362759   -0.269871   -4.032135
     13          6           0       16.014600    0.261919   -5.460736
     14          1           0       15.294627   -0.726744   -6.454453
     15          7           0       21.316687    1.707043   -0.406574
     16          6           0       21.348578    2.253800   -1.604076
     17          6           0       22.418053    3.239897   -1.636011
     18          6           0       23.091130    3.268111   -0.377662
     19          6           0       22.271482    2.308877    0.394872
     20          6           0       22.877883    4.003316   -2.867026
     21          6           0       24.338747    4.023702    0.067997
     22          8           0       24.940791    3.705328    1.089374
     23          6           0       24.822437    5.159775   -0.763577
     24          7           0       20.869167    0.186683    2.237596
     25          6           0       21.837970    1.015228    2.608745
     26          6           0       22.183669    0.869164    4.099939
     27          6           0       21.110061   -0.119811    4.546484
     28          6           0       20.497824   -0.557435    3.268445
     29          6           0       23.618311    0.465957    4.471810
     30          6           0       20.233130    0.385408    5.664114
     31          6           0       20.308325   -0.407594    7.017451
     32          7           0       18.750987   -1.180583    0.945935
     33          6           0       18.636952   -1.837617    2.216875
     34          6           0       17.535152   -2.774659    2.223638
     35          6           0       17.071025   -2.651333    0.884468
     36          6           0       17.832256   -1.708232    0.182567
     37          6           0       16.900320   -3.546027    3.326491
     38          6           0       15.942234   -3.063335    0.088854
     39          8           0       14.887080   -3.667913    0.331732
     40          6           0       16.163831   -2.532286   -1.305327
     41          6           0       16.537920   -3.716418   -2.223899
     42          8           0       17.308182   -4.655850   -1.972520
     43          8           0       15.867693   -3.551595   -3.399558
     44          6           0       16.038993   -4.602598   -4.452172
     45          1           0       20.721148    2.441917   -3.569180
     46          1           0       23.324118    2.355807    2.262271
     47          1           0       19.397764   -2.058088    4.269587
     48          1           0       18.123806   -1.621328   -4.149437
     49          1           0       18.310902    1.374169   -4.312443
     50          1           0       19.799215    1.027013   -5.937147
     51          1           0       19.284071   -0.643032   -5.953218
     52          1           0       20.739054   -0.197237   -5.025050
     53          1           0       16.171069    0.609560   -3.417374
     54          1           0       15.708736   -1.122778   -3.851095
     55          1           0       16.962836    0.448394   -5.965943
     56          1           0       15.363636    1.129694   -5.360112
     57          1           0       22.277391    3.748599   -3.740284
     58          1           0       23.918301    3.759321   -3.080353
     59          1           0       22.823489    5.081243   -2.720038
     60          1           0       23.941176    5.776959   -0.940631
     61          1           0       25.291044    5.025558   -1.738036
     62          1           0       25.582721    5.756945   -0.261286
     63          1           0       22.005110    1.833725    4.573936
     64          1           0       21.624854   -0.984983    4.963918
     65          1           0       23.839031    1.066529    5.353902
     66          1           0       24.290760    0.616016    3.627308
     67          1           0       23.755031   -0.601331    4.645605
     68          1           0       19.223162    0.210638    5.294640
     69          1           0       20.408116    1.430231    5.919054
     70          1           0       20.995010   -1.248725    6.918591
     71          1           0       19.312070   -0.805496    7.212888
     72          1           0       20.530580    0.192351    7.900046
     73          1           0       17.299485   -3.223671    4.287824
     74          1           0       17.260523   -4.566665    3.202707
     75          1           0       15.832102   -3.350446    3.222345
     76          1           0       15.204144   -2.092577   -1.577572
     77          1           0       17.068310   -4.911167   -4.636535
     78          1           0       15.573616   -4.362631   -5.407604
     79          1           0       15.559459   -5.494049   -4.048227
     80         12           0      -19.747576   -0.587592   -0.347861
     81          6           0      -19.704148    2.949916    0.250776
     82          6           0      -16.325734   -0.519151    0.674975
     83          6           0      -19.755358   -3.907246    0.170497
     84          6           0      -23.157268   -0.436717   -0.565906
     85          7           0      -18.267029    1.028870    0.396122
     86          6           0      -18.459907    2.372910    0.529677
     87          6           0      -17.161133    3.103783    1.019109
     88          6           0      -16.052896    1.981403    0.731244
     89          6           0      -16.935554    0.744760    0.674404
     90          6           0      -15.300246    2.154259   -0.568101
     91          6           0      -17.277857    3.667606    2.425561
     92          6           0      -16.733399    5.098814    2.670979
     93          1           0      -15.303624    5.328934    3.349689
     94          7           0      -18.189077   -2.090796    0.249974
     95          6           0      -16.832814   -1.822064    0.529048
     96          6           0      -16.140140   -3.094711    0.765007
     97          6           0      -17.154578   -4.112437    0.567771
     98          6           0      -18.414625   -3.418786    0.408849
     99          6           0      -14.724643   -3.282871    1.162984
    100          6           0      -16.896129   -5.597905    0.535145
    101          8           0      -15.746643   -5.977050    0.522535
    102          6           0      -17.978088   -6.652624    0.503762
    103          7           0      -21.241970   -1.873186   -0.110522
    104          6           0      -20.963638   -3.236441   -0.067446
    105          6           0      -22.303596   -3.975785   -0.054104
    106          6           0      -23.344910   -2.885728   -0.501743
    107          6           0      -22.515647   -1.648027   -0.431796
    108          6           0      -22.406290   -5.343965   -0.823087
    109          6           0      -24.700242   -2.805344    0.265640
    110          6           0      -25.961982   -2.893029   -0.529528
    111          7           0      -21.162110    0.895310   -0.320655
    112          6           0      -22.532905    0.830676   -0.499935
    113          6           0      -23.101591    2.180730   -0.677721
    114          6           0      -21.987500    3.032907   -0.314759
    115          6           0      -20.888925    2.193041   -0.107852
    116          6           0      -24.499602    2.608426   -1.039371
    117          6           0      -21.595031    4.464088   -0.154449
    118          8           0      -22.255143    5.462860   -0.198715
    119          6           0      -20.147621    4.413827    0.323943
    120          6           0      -19.330017    5.264126   -0.601931
    121          8           0      -19.206037    4.918124   -1.757157
    122          8           0      -18.671208    6.382228   -0.007911
    123          6           0      -17.692724    7.114176   -0.868206
    124          1           0      -15.264349   -0.535491    0.931818
    125          1           0      -19.927995   -4.978461    0.287061
    126          1           0      -24.215800   -0.429569   -0.832965
    127          1           0      -16.864530    3.901449    0.338644
    128          1           0      -15.387548    1.850726    1.584587
    129          1           0      -15.919209    1.767038   -1.377121
    130          1           0      -14.346365    1.639119   -0.455626
    131          1           0      -15.054245    3.162227   -0.903762
    132          1           0      -16.683059    3.011937    3.060749
    133          1           0      -18.299646    3.501136    2.766538
    134          1           0      -17.501051    5.545774    3.303130
    135          1           0      -16.685394    5.704155    1.765712
    136          1           0      -14.180656   -3.512503    0.247269
    137          1           0      -14.640374   -4.188323    1.764024
    138          1           0      -14.194936   -2.496403    1.701887
    139          1           0      -17.629895   -7.681039    0.597793
    140          1           0      -18.453923   -6.549997   -0.471584
    141          1           0      -18.815780   -6.579236    1.196304
    142          1           0      -22.369842   -4.280854    0.990638
    143          1           0      -23.491681   -2.981638   -1.577135
    144          1           0      -21.610578   -5.429393   -1.563604
    145          1           0      -23.397315   -5.461836   -1.260976
    146          1           0      -22.331568   -6.174934   -0.121995
    147          1           0      -24.722861   -1.878672    0.839016
    148          1           0      -24.668875   -3.565362    1.046226
    149          1           0      -26.423968   -1.906990   -0.573755
    150          1           0      -26.660938   -3.565160   -0.031916
    151          1           0      -25.885598   -3.234414   -1.561639
    152          1           0      -24.507059    3.620374   -1.443829
    153          1           0      -25.088061    2.540625   -0.123944
    154          1           0      -24.917027    1.851264   -1.703369
    155          1           0      -20.142663    4.700447    1.375681
    156          1           0      -18.236348    7.775444   -1.543179
    157          1           0      -17.140434    6.422563   -1.504052
    158          1           0      -16.978747    7.667013   -0.258010
 ---------------------------------------------------------------------

 SCF Done:  E(RCAM-B3LYP) =  -4069.81172211     A.U. after   19 cycles

 Excitation energies and oscillator strengths:

 Excited State   1:      Singlet-A      1.6714 eV  741.80 nm  f=0.4005  <S**2>=0.000
     309 -> 316        0.16931
     311 -> 313        0.68855
     309 <- 316        0.10658
 This state for optimization and/or second-order correction.
 Total Energy, E(TD-HF/TD-DFT) =  -4069.75029906
 Copying the excited state density for this state as the 1-particle RhoCI density.

 Excited State   2:      Singlet-A      1.7216 eV  720.18 nm  f=0.4024  <S**2>=0.000
     310 -> 315        0.17577
     312 -> 314        0.68372
     310 <- 315        0.10318

 Excited State   3:      Singlet-A      2.2361 eV  554.47 nm  f=0.1280  <S**2>=0.000
     309 -> 313        0.64115
     311 -> 316       -0.28145

 Excited State   4:      Singlet-A      2.2690 eV  546.42 nm  f=0.1127  <S**2>=0.000
     310 -> 314        0.63909
     312 -> 315       -0.28652

 Excited State   5:      Singlet-A      3.0637 eV  404.69 nm  f=0.0000  <S**2>=0.000
     312 -> 313        0.70710

 The electronic state is 1-A.
 Alpha  occ. eigenvalues --  -46.89311 -46.89181 -19.25615 -19.25248 -19.20718
 Alpha  occ. eigenvalues --  -19.19714 -19.19532 -19.19443 -19.17966 -19.17668
 Alpha  occ. eigenvalues --  -14.42746 -14.42061 -14.41724 -14.41701 -14.40080
 Alpha  occ. eigenvalues --  -14.39323 -14.39271 -14.39143 -10.40209 -10.39545
 Alpha  occ. eigenvalues --  -10.36090 -10.35395 -10.34495 -10.33334 -10.32259
 Alpha  occ. eigenvalues --  -10.32170 -10.31674 -10.31372 -10.31281 -10.30961
 Alpha  occ. eigenvalues --  -10.30682 -10.30500 -10.30482 -10.30376 -10.30303
 Alpha  occ. eigenvalues --  -10.30267 -10.30219 -10.30014 -10.29978 -10.29476
 Alpha  occ. eigenvalues --  -10.29343 -10.29212 -10.29089 -10.28823 -10.28797
 Alpha  occ. eigenvalues --  -10.28649 -10.28624 -10.28575 -10.28541 -10.28378
 Alpha  occ. eigenvalues --  -10.28090 -10.28057 -10.28045 -10.27982 -10.27978
 Alpha  occ. eigenvalues --  -10.27779 -10.27764 -10.27588 -10.27532 -10.27485
 Alpha  occ. eigenvalues --  -10.27207 -10.27020 -10.27017 -10.26997 -10.26904
 Alpha  occ. eigenvalues --  -10.26745 -10.26700 -10.26555 -10.26520 -10.26510
 Alpha  occ. eigenvalues --  -10.26508 -10.26486 -10.26481 -10.26299 -10.26251
 Alpha  occ. eigenvalues --  -10.26236 -10.26219 -10.26174 -10.26034 -10.25874
 Alpha  occ. eigenvalues --  -10.25723 -10.25706 -10.25656 -10.25518 -10.25352
 Alpha  occ. eigenvalues --  -10.24391  -3.17880  -3.17706  -1.92728  -1.92597
 Alpha  occ. eigenvalues --   -1.92341  -1.92187  -1.92155  -1.92019  -1.15549
 Alpha  occ. eigenvalues --   -1.15357  -1.11714  -1.10382  -1.10196  -1.07958
 Alpha  occ. eigenvalues --   -1.07857  -1.06528  -1.05722  -1.04581  -1.04378
 Alpha  occ. eigenvalues --   -1.03869  -1.03564  -1.02948  -1.02762  -1.01497
 Alpha  occ. eigenvalues --   -0.92743  -0.91262  -0.89913  -0.89395  -0.88873
 Alpha  occ. eigenvalues --   -0.88721  -0.88444  -0.88163  -0.87601  -0.87545
 Alpha  occ. eigenvalues --   -0.87149  -0.86994  -0.86216  -0.85635  -0.84479
 Alpha  occ. eigenvalues --   -0.84182  -0.83948  -0.83326  -0.82482  -0.82353
 Alpha  occ. eigenvalues --   -0.82158  -0.81828  -0.81099  -0.80543  -0.80192
 Alpha  occ. eigenvalues --   -0.80032  -0.78528  -0.78152  -0.77549  -0.77475
 Alpha  occ. eigenvalues --   -0.76786  -0.76731  -0.76337  -0.76090  -0.75344
 Alpha  occ. eigenvalues --   -0.75211  -0.72633  -0.72626  -0.71768  -0.71677
 Alpha  occ. eigenvalues --   -0.69539  -0.69436  -0.69104  -0.68924  -0.67910
 Alpha  occ. eigenvalues --   -0.67702  -0.67569  -0.66699  -0.65932  -0.65838
 Alpha  occ. eigenvalues --   -0.65083  -0.64881  -0.64529  -0.64454  -0.64305
 Alpha  occ. eigenvalues --   -0.63936  -0.62627  -0.62313  -0.60723  -0.59783
 Alpha  occ. eigenvalues --   -0.59650  -0.59544  -0.59178  -0.59055  -0.58873
 Alpha  occ. eigenvalues --   -0.58631  -0.58315  -0.57980  -0.57634  -0.57430
 Alpha  occ. eigenvalues --   -0.56523  -0.56303  -0.55653  -0.55649  -0.55421
 Alpha  occ. eigenvalues --   -0.55135  -0.54532  -0.54317  -0.54184  -0.53855
 Alpha  occ. eigenvalues --   -0.53734  -0.53393  -0.53353  -0.53070  -0.52948
 Alpha  occ. eigenvalues --   -0.52794  -0.52566  -0.52230  -0.52157  -0.51822
 Alpha  occ. eigenvalues --   -0.51710  -0.51676  -0.51301  -0.51180  -0.51107
 Alpha  occ. eigenvalues --   -0.51086  -0.50913  -0.50699  -0.50475  -0.50423
 Alpha  occ. eigenvalues --   -0.49961  -0.49927  -0.49859  -0.49783  -0.49728
 Alpha  occ. eigenvalues --   -0.49685  -0.49360  -0.49288  -0.49099  -0.49036
 Alpha  occ. eigenvalues --   -0.48962  -0.48690  -0.48582  -0.48563  -0.48175
 Alpha  occ. eigenvalues --   -0.48159  -0.47786  -0.47677  -0.47651  -0.47293
 Alpha  occ. eigenvalues --   -0.47072  -0.46965  -0.46780  -0.46407  -0.46376
 Alpha  occ. eigenvalues --   -0.46370  -0.46169  -0.46134  -0.46042  -0.45960
 Alpha  occ. eigenvalues --   -0.45960  -0.45814  -0.45238  -0.44977  -0.44947
 Alpha  occ. eigenvalues --   -0.44690  -0.44647  -0.44512  -0.44399  -0.44123
 Alpha  occ. eigenvalues --   -0.44002  -0.43855  -0.43761  -0.43603  -0.43585
 Alpha  occ. eigenvalues --   -0.43436  -0.43292  -0.42915  -0.42886  -0.42752
 Alpha  occ. eigenvalues --   -0.42628  -0.42538  -0.42418  -0.42202  -0.42012
 Alpha  occ. eigenvalues --   -0.41981  -0.41906  -0.41830  -0.41535  -0.41522
 Alpha  occ. eigenvalues --   -0.41109  -0.41089  -0.40832  -0.40818  -0.40561
 Alpha  occ. eigenvalues --   -0.40419  -0.40252  -0.39277  -0.39271  -0.39084
 Alpha  occ. eigenvalues --   -0.38457  -0.38260  -0.37862  -0.37688  -0.37328
 Alpha  occ. eigenvalues --   -0.37147  -0.37045  -0.36673  -0.36496  -0.36197
 Alpha  occ. eigenvalues --   -0.35950  -0.35810  -0.35036  -0.34387  -0.34280
 Alpha  occ. eigenvalues --   -0.33995  -0.33352  -0.33171  -0.31962  -0.31592
 Alpha  occ. eigenvalues --   -0.31102  -0.31097  -0.30585  -0.30477  -0.29962
 Alpha  occ. eigenvalues --   -0.29662  -0.29662  -0.28726  -0.24295  -0.23908
 Alpha  occ. eigenvalues --   -0.21113  -0.21100
 Alpha virt. eigenvalues --   -0.08974  -0.08546  -0.01766  -0.01485   0.00480
 Alpha virt. eigenvalues --    0.00581   0.01256   0.01899   0.02557   0.02649
 Alpha virt. eigenvalues --    0.04407   0.04413   0.04906   0.05615   0.05686

 Mulliken charges:
               1
     1  Mg   0.832048
     2  C   -0.058931
     3  C   -0.068397
     4  C   -0.048462
     5  C   -0.064223
     6  N   -0.282661
     7  C   -0.070725
     8  C    0.037174
     9  C   -0.103327
    10  C    0.096669
    11  C    0.074355
    12  C    0.030394
    13  C   -0.078910
    14  H   -0.000447
    15  N   -0.351740
    16  C    0.093640
    17  C   -0.163047
    18  C   -0.023587
    19  C    0.114214
    20  C    0.115765
    21  C    0.042797
    22  O   -0.195755
    23  C    0.027080
    24  N   -0.202715
    25  C   -0.029794
    26  C   -0.063757
    27  C   -0.010499
    28  C   -0.014913
    29  C    0.083991
    30  C    0.049330
    31  C   -0.014705
    32  N   -0.364365
    33  C    0.117938
    34  C   -0.165063
    35  C   -0.033218
    36  C    0.166904
    37  C    0.154761
    38  C    0.031408
    39  O   -0.204109
    40  C    0.011451
    41  C    0.227316
    42  O   -0.237182
    43  O   -0.334643
    44  C    0.179429
    45  H   -0.045404
    46  H    0.005810
    47  H   -0.021649
    48  H    0.012750
    49  H    0.012062
    50  H    0.012165
    51  H    0.020282
    52  H    0.026674
    53  H    0.007746
    54  H    0.051214
    55  H    0.027687
    56  H    0.042467
    57  H    0.007534
    58  H    0.029953
    59  H    0.019368
    60  H    0.028792
    61  H    0.041991
    62  H    0.025813
    63  H    0.012595
    64  H   -0.000582
    65  H    0.024219
    66  H    0.022908
    67  H    0.008037
    68  H    0.006254
    69  H    0.012152
    70  H    0.013278
    71  H    0.012273
    72  H    0.019497
    73  H   -0.002869
    74  H    0.041570
    75  H    0.058670
    76  H    0.040266
    77  H    0.041155
    78  H    0.045323
    79  H    0.038506
    80  Mg   0.850162
    81  C   -0.068700
    82  C   -0.046556
    83  C   -0.070132
    84  C   -0.117778
    85  N   -0.248507
    86  C   -0.056127
    87  C   -0.029270
    88  C   -0.067527
    89  C    0.027860
    90  C    0.088683
    91  C    0.079538
    92  C   -0.054239
    93  H    0.008687
    94  N   -0.346061
    95  C    0.095300
    96  C   -0.125920
    97  C   -0.029125
    98  C    0.139850
    99  C    0.130506
   100  C   -0.009044
   101  O   -0.204372
   102  C    0.048534
   103  N   -0.372411
   104  C    0.069196
   105  C   -0.081035
   106  C    0.022204
   107  C    0.057884
   108  C    0.063540
   109  C    0.049700
   110  C    0.008719
   111  N   -0.354570
   112  C    0.126938
   113  C   -0.181040
   114  C   -0.063996
   115  C    0.147732
   116  C    0.135422
   117  C    0.053035
   118  O   -0.136341
   119  C    0.059742
   120  C    0.212869
   121  O   -0.206839
   122  O   -0.375236
   123  C    0.175422
   124  H   -0.030851
   125  H   -0.056673
   126  H   -0.037346
   127  H    0.003935
   128  H    0.001877
   129  H    0.021984
   130  H    0.020381
   131  H    0.014363
   132  H    0.012545
   133  H    0.016698
   134  H    0.032645
   135  H    0.027164
   136  H    0.030874
   137  H    0.030874
   138  H    0.014482
   139  H    0.024140
   140  H    0.029745
   141  H    0.037069
   142  H    0.024835
   143  H    0.007125
   144  H    0.023802
   145  H    0.015783
   146  H    0.009107
   147  H    0.014425
   148  H   -0.000380
   149  H    0.015690
   150  H    0.013721
   151  H    0.015182
   152  H    0.047855
   153  H    0.030533
   154  H    0.013023
   155  H    0.042040
   156  H    0.044626
   157  H    0.034783
   158  H    0.047250
 Sum of Mulliken charges =  -0.00000

 Dipole moment (field-independent basis, Debye):
    X=              0.2651    Y=              3.1990    Z=             -1.9152  Tot=              3.7379
 Quadrupole moment (field-independent basis, Debye-Ang):
   XX=           -420.6156   YY=           -532.5964   ZZ=           -475.4447
   XY=            151.1522   XZ=            -30.4449   YZ=             -1.6559

 Normal termination of Gaussian 16 at Wed Sep  1 11:44:45 2021.
