 Gaussian 16, Revision A.03,
 Gaussian 16:  ES64L-G16RevA.03 25-Dec-2016

 -----------------------------------
 #p cam-b3lyp/Def2SVP td=(nstates=5)
 -----------------------------------

 --------------------------------
 TDDFT excited states in gaussian
 --------------------------------
 Symbolic Z-matrix:
 Charge =  0 Multiplicity = 1

                         Standard orientation:
 ---------------------------------------------------------------------
 Center     Atomic      Atomic             Coordinates (Angstroms)
 Number     Number       Type             X           Y           Z
 ---------------------------------------------------------------------
      1         12           0       26.481987    0.558752   -0.324306
      2          6           0       25.516050   -2.712020    0.150357
      3          6           0       23.238868    1.513509    0.160373
      4          6           0       27.633639    3.553935    0.460097
      5          6           0       29.769487   -0.596177   -0.755546
      6          7           0       24.712977   -0.508962    0.567687
      7          6           0       24.492741   -1.842824    0.439937
      8          6           0       23.065467   -2.223137    0.701981
      9          6           0       22.353412   -0.899427    0.273244
     10          6           0       23.506286    0.093376    0.255427
     11          6           0       21.569909   -1.034096   -1.063916
     12          6           0       22.799719   -2.559779    2.254396
     13          6           0       21.730623   -3.715710    2.532516
     14          1           0       20.604611   -3.121688    3.342005
     15          7           0       25.531721    2.335895    0.039014
     16          6           0       24.224378    2.563326    0.293354
     17          6           0       23.996080    3.970128    0.598276
     18          6           0       25.265729    4.580824    0.655450
     19          6           0       26.215418    3.466012    0.381290
     20          6           0       22.570100    4.511988    0.861411
     21          6           0       25.473481    5.987753    1.142563
     22          8           0       24.519169    6.664849    1.423760
     23          6           0       26.849775    6.642996    1.366322
     24          7           0       28.442756    1.452355   -0.283932
     25          6           0       28.626936    2.645096    0.072805
     26          6           0       30.059370    3.003815    0.220303
     27          6           0       30.788662    1.663701   -0.187347
     28          6           0       29.639275    0.783296   -0.423015
     29          6           0       30.423159    4.287972   -0.599097
     30          6           0       31.748374    1.125078    0.972184
     31          6           0       32.857632    0.088757    0.571051
     32          7           0       27.482799   -1.244675   -0.397825
     33          6           0       28.799832   -1.553222   -0.686153
     34          6           0       28.968254   -2.973446   -0.822384
     35          6           0       27.654434   -3.489921   -0.544058
     36          6           0       26.846634   -2.424051   -0.197666
     37          6           0       30.215042   -3.720203   -1.171988
     38          6           0       26.890762   -4.688144   -0.483004
     39          8           0       27.133130   -5.890587   -0.648658
     40          6           0       25.528882   -4.257686    0.155752
     41          6           0       24.456492   -4.935981   -0.629791
     42          8           0       23.939232   -6.021407   -0.330619
     43          8           0       24.175527   -4.208435   -1.753199
     44          6           0       23.138808   -4.925483   -2.547504
     45          1           0       22.224382    1.918498    0.163747
     46          1           0       27.985378    4.536310    0.780348
     47          1           0       30.803656   -0.948974   -0.755090
     48          1           0       22.871236   -3.019262   -0.015630
     49          1           0       21.594776   -0.648581    1.014810
     50          1           0       20.506715   -0.890222   -0.873692
     51          1           0       21.678913   -2.067285   -1.395296
     52          1           0       22.015793   -0.339700   -1.775339
     53          1           0       22.572502   -1.711492    2.899883
     54          1           0       23.718707   -2.903045    2.728417
     55          1           0       22.262968   -4.418496    3.173628
     56          1           0       21.359207   -4.320545    1.705197
     57          1           0       22.426711    4.972467    1.838837
     58          1           0       21.779576    3.776685    0.707343
     59          1           0       22.365417    5.244670    0.081492
     60          1           0       27.425492    6.759274    0.448683
     61          1           0       27.459480    6.137430    2.115586
     62          1           0       26.624858    7.577986    1.880359
     63          1           0       30.163968    3.170698    1.292280
     64          1           0       31.332038    1.635054   -1.131512
     65          1           0       30.808246    5.017029    0.113508
     66          1           0       29.563081    4.683335   -1.139817
     67          1           0       31.306372    4.180110   -1.228509
     68          1           0       31.156314    0.659424    1.760332
     69          1           0       32.214352    2.015490    1.391698
     70          1           0       33.914080    0.306704    0.725212
     71          1           0       32.826028   -0.108625   -0.499590
     72          1           0       32.686326   -0.860592    1.078514
     73          1           0       31.066803   -3.124121   -1.498953
     74          1           0       29.817461   -4.361375   -1.957677
     75          1           0       30.339393   -4.307984   -0.262418
     76          1           0       25.434043   -4.498557    1.215105
     77          1           0       23.572323   -5.829967   -2.973015
     78          1           0       22.860171   -4.391823   -3.456194
     79          1           0       22.282504   -5.094014   -1.894147
     80         12           0      -26.395759   -0.286832    0.553129
     81          6           0      -24.665046    1.735306   -1.632622
     82          6           0      -26.874996   -2.599725   -2.128128
     83          6           0      -28.355233   -2.093158    2.466325
     84          6           0      -26.043884    2.080824    3.089649
     85          7           0      -25.793073   -0.343480   -1.602597
     86          6           0      -25.068801    0.568263   -2.258137
     87          6           0      -24.783057    0.043683   -3.703072
     88          6           0      -25.642798   -1.296389   -3.830748
     89          6           0      -26.207563   -1.413787   -2.401875
     90          6           0      -26.846771   -1.257564   -4.752204
     91          6           0      -23.294735   -0.109671   -4.050975
     92          6           0      -22.957578    0.581916   -5.361215
     93          1           0      -21.782219    0.107606   -6.228209
     94          7           0      -27.394026   -2.134980    0.221175
     95          6           0      -27.440355   -2.942077   -0.878824
     96          6           0      -28.162265   -4.112805   -0.648285
     97          6           0      -28.733848   -3.967235    0.663750
     98          6           0      -28.153529   -2.686457    1.197034
     99          6           0      -28.318068   -5.234011   -1.665387
    100          6           0      -29.739783   -4.858964    1.373162
    101          8           0      -30.236439   -4.457959    2.443618
    102          6           0      -30.228008   -6.115316    0.776034
    103          7           0      -27.038164   -0.030701    2.465649
    104          6           0      -27.823224   -0.957260    3.120593
    105          6           0      -28.212441   -0.561783    4.593381
    106          6           0      -27.204069    0.646503    4.807657
    107          6           0      -26.740985    0.940590    3.369051
    108          6           0      -29.691849   -0.163195    4.977968
    109          6           0      -26.077345    0.509749    5.929771
    110          6           0      -24.890916   -0.339996    5.558249
    111          7           0      -25.683987    1.564736    0.723597
    112          6           0      -25.585129    2.445511    1.783832
    113          6           0      -24.925068    3.635086    1.429983
    114          6           0      -24.525127    3.364763    0.116218
    115          6           0      -24.999536    2.084917   -0.294415
    116          6           0      -24.669656    4.709062    2.399668
    117          6           0      -23.902197    4.027034   -0.964433
    118          8           0      -23.506389    5.193664   -1.006075
    119          6           0      -23.920381    2.987394   -2.202898
    120          6           0      -24.601380    3.602255   -3.328689
    121          8           0      -25.792611    3.775200   -3.449746
    122          8           0      -23.718984    4.073213   -4.201267
    123          6           0      -24.186020    4.826896   -5.325389
    124          1           0      -27.059951   -3.274709   -2.965856
    125          1           0      -28.984712   -2.581198    3.212906
    126          1           0      -25.958890    2.795722    3.910775
    127          1           0      -25.266254    0.826468   -4.286899
    128          1           0      -24.967944   -2.026089   -4.279595
    129          1           0      -26.948432   -0.336491   -5.326913
    130          1           0      -27.766638   -1.324756   -4.171937
    131          1           0      -26.878895   -2.164703   -5.356423
    132          1           0      -22.935722   -1.138055   -4.095019
    133          1           0      -22.720661    0.332562   -3.237084
    134          1           0      -22.652985    1.593945   -5.092080
    135          1           0      -23.867714    0.546947   -5.959693
    136          1           0      -27.631525   -5.115853   -2.503780
    137          1           0      -29.299011   -5.147537   -2.133210
    138          1           0      -28.292855   -6.209614   -1.181372
    139          1           0      -31.181976   -6.408569    1.215718
    140          1           0      -29.511162   -6.891646    1.045301
    141          1           0      -30.346345   -6.002265   -0.301340
    142          1           0      -27.856356   -1.287885    5.324885
    143          1           0      -27.760801    1.490737    5.212459
    144          1           0      -30.300795   -0.246912    4.078679
    145          1           0      -29.732499    0.913665    5.146495
    146          1           0      -30.168320   -0.681822    5.810399
    147          1           0      -26.548530   -0.011485    6.762720
    148          1           0      -25.743894    1.460887    6.343042
    149          1           0      -24.031233    0.074257    6.083818
    150          1           0      -24.626279   -0.511901    4.515681
    151          1           0      -25.111044   -1.345410    5.917151
    152          1           0      -24.527109    4.445434    3.447351
    153          1           0      -25.305264    5.589896    2.317328
    154          1           0      -23.723374    5.098716    2.025267
    155          1           0      -22.885751    2.775643   -2.472025
    156          1           0      -24.410905    4.194032   -6.184644
    157          1           0      -23.364778    5.473857   -5.633227
    158          1           0      -25.088298    5.375350   -5.054424
 ---------------------------------------------------------------------

 SCF Done:  E(RCAM-B3LYP) =  -4069.81375160     A.U. after   19 cycles

 Excitation energies and oscillator strengths:

 Excited State   1:      Singlet-A      1.6891 eV  734.04 nm  f=0.3522  <S**2>=0.000
     309 -> 315        0.16434
     312 -> 314        0.68784
     309 <- 315        0.10171
 This state for optimization and/or second-order correction.
 Total Energy, E(TD-HF/TD-DFT) =  -4069.75167992
 Copying the excited state density for this state as the 1-particle RhoCI density.

 Excited State   2:      Singlet-A      1.7068 eV  726.42 nm  f=0.4234  <S**2>=0.000
     310 -> 316       -0.17261
     311 -> 313        0.68665
     310 <- 316       -0.10536

 Excited State   3:      Singlet-A      2.2121 eV  560.47 nm  f=0.1071  <S**2>=0.000
     309 -> 314        0.64121
     312 -> 315       -0.27964

 Excited State   4:      Singlet-A      2.2215 eV  558.10 nm  f=0.1594  <S**2>=0.000
     310 -> 313        0.65327
     311 -> 316        0.25407

 Excited State   5:      Singlet-A      3.1079 eV  398.94 nm  f=0.0000  <S**2>=0.000
     312 -> 313        0.70710

 The electronic state is 1-A.
 Alpha  occ. eigenvalues --  -46.89225 -46.87686 -19.25564 -19.24829 -19.19524
 Alpha  occ. eigenvalues --  -19.19045 -19.18625 -19.18592 -19.18242 -19.17902
 Alpha  occ. eigenvalues --  -14.42299 -14.42166 -14.42115 -14.41909 -14.40312
 Alpha  occ. eigenvalues --  -14.39714 -14.38964 -14.38591 -10.38664 -10.38303
 Alpha  occ. eigenvalues --  -10.35757 -10.34869 -10.34511 -10.34074 -10.32318
 Alpha  occ. eigenvalues --  -10.31716 -10.31711 -10.31502 -10.31220 -10.31186
 Alpha  occ. eigenvalues --  -10.31158 -10.30985 -10.30738 -10.30683 -10.30254
 Alpha  occ. eigenvalues --  -10.30155 -10.29971 -10.29384 -10.29374 -10.29054
 Alpha  occ. eigenvalues --  -10.28988 -10.28787 -10.28554 -10.28524 -10.28392
 Alpha  occ. eigenvalues --  -10.28391 -10.28283 -10.28275 -10.28268 -10.28214
 Alpha  occ. eigenvalues --  -10.28163 -10.28040 -10.27962 -10.27851 -10.27781
 Alpha  occ. eigenvalues --  -10.27699 -10.27691 -10.27662 -10.27587 -10.27586
 Alpha  occ. eigenvalues --  -10.27573 -10.27499 -10.27437 -10.27295 -10.27263
 Alpha  occ. eigenvalues --  -10.27190 -10.27170 -10.26997 -10.26799 -10.26672
 Alpha  occ. eigenvalues --  -10.26656 -10.26616 -10.26604 -10.26585 -10.26306
 Alpha  occ. eigenvalues --  -10.26280 -10.26276 -10.26222 -10.26220 -10.26186
 Alpha  occ. eigenvalues --  -10.26166 -10.25747 -10.25561 -10.24979 -10.24639
 Alpha  occ. eigenvalues --  -10.24435  -3.17798  -3.16470  -1.92685  -1.92267
 Alpha  occ. eigenvalues --   -1.92089  -1.91368  -1.90942  -1.90775  -1.17934
 Alpha  occ. eigenvalues --   -1.15952  -1.11958  -1.08854  -1.08503  -1.08108
 Alpha  occ. eigenvalues --   -1.07798  -1.07053  -1.06430  -1.04594  -1.04593
 Alpha  occ. eigenvalues --   -1.03939  -1.03702  -1.03332  -1.02830  -1.02547
 Alpha  occ. eigenvalues --   -0.92500  -0.92089  -0.89733  -0.89365  -0.88773
 Alpha  occ. eigenvalues --   -0.88691  -0.88345  -0.88262  -0.87651  -0.87517
 Alpha  occ. eigenvalues --   -0.87302  -0.86880  -0.86785  -0.86630  -0.84594
 Alpha  occ. eigenvalues --   -0.84302  -0.83865  -0.83807  -0.82951  -0.82399
 Alpha  occ. eigenvalues --   -0.82279  -0.81830  -0.81182  -0.80917  -0.80595
 Alpha  occ. eigenvalues --   -0.80348  -0.78426  -0.78340  -0.77844  -0.77333
 Alpha  occ. eigenvalues --   -0.76895  -0.76810  -0.75981  -0.75975  -0.75494
 Alpha  occ. eigenvalues --   -0.75284  -0.73451  -0.72693  -0.72224  -0.71453
 Alpha  occ. eigenvalues --   -0.70489  -0.69652  -0.69316  -0.68839  -0.68154
 Alpha  occ. eigenvalues --   -0.67796  -0.67751  -0.67146  -0.66825  -0.65394
 Alpha  occ. eigenvalues --   -0.65361  -0.64920  -0.64854  -0.64606  -0.64463
 Alpha  occ. eigenvalues --   -0.64385  -0.62423  -0.62345  -0.60518  -0.60427
 Alpha  occ. eigenvalues --   -0.60003  -0.59625  -0.59186  -0.58995  -0.58804
 Alpha  occ. eigenvalues --   -0.58513  -0.58351  -0.57978  -0.57683  -0.56999
 Alpha  occ. eigenvalues --   -0.56694  -0.56527  -0.56212  -0.56205  -0.55673
 Alpha  occ. eigenvalues --   -0.55092  -0.55044  -0.54673  -0.54361  -0.54144
 Alpha  occ. eigenvalues --   -0.53592  -0.53535  -0.53167  -0.52949  -0.52775
 Alpha  occ. eigenvalues --   -0.52663  -0.52506  -0.52393  -0.52353  -0.52132
 Alpha  occ. eigenvalues --   -0.51977  -0.51723  -0.51703  -0.51329  -0.51235
 Alpha  occ. eigenvalues --   -0.51186  -0.50652  -0.50411  -0.50300  -0.50297
 Alpha  occ. eigenvalues --   -0.50214  -0.49961  -0.49919  -0.49692  -0.49667
 Alpha  occ. eigenvalues --   -0.49472  -0.49259  -0.49144  -0.49143  -0.48964
 Alpha  occ. eigenvalues --   -0.48942  -0.48626  -0.48396  -0.48341  -0.48146
 Alpha  occ. eigenvalues --   -0.47775  -0.47773  -0.47682  -0.47408  -0.47330
 Alpha  occ. eigenvalues --   -0.46926  -0.46879  -0.46815  -0.46502  -0.46378
 Alpha  occ. eigenvalues --   -0.46287  -0.46225  -0.46025  -0.45830  -0.45813
 Alpha  occ. eigenvalues --   -0.45540  -0.45425  -0.45379  -0.45151  -0.45106
 Alpha  occ. eigenvalues --   -0.44927  -0.44668  -0.44589  -0.44418  -0.44376
 Alpha  occ. eigenvalues --   -0.44299  -0.44210  -0.43984  -0.43899  -0.43633
 Alpha  occ. eigenvalues --   -0.43494  -0.43379  -0.43241  -0.43165  -0.42919
 Alpha  occ. eigenvalues --   -0.42679  -0.42608  -0.42528  -0.42188  -0.41996
 Alpha  occ. eigenvalues --   -0.41963  -0.41899  -0.41589  -0.41511  -0.41455
 Alpha  occ. eigenvalues --   -0.41321  -0.41163  -0.41113  -0.40989  -0.40766
 Alpha  occ. eigenvalues --   -0.40485  -0.40073  -0.39620  -0.39199  -0.38885
 Alpha  occ. eigenvalues --   -0.38624  -0.38286  -0.38199  -0.37739  -0.37710
 Alpha  occ. eigenvalues --   -0.37192  -0.36816  -0.36707  -0.36537  -0.36489
 Alpha  occ. eigenvalues --   -0.36358  -0.36184  -0.34967  -0.34235  -0.33884
 Alpha  occ. eigenvalues --   -0.33598  -0.33386  -0.33133  -0.31909  -0.31448
 Alpha  occ. eigenvalues --   -0.31380  -0.30784  -0.30598  -0.30535  -0.30062
 Alpha  occ. eigenvalues --   -0.30053  -0.29768  -0.28959  -0.24184  -0.24126
 Alpha  occ. eigenvalues --   -0.21482  -0.21163
 Alpha virt. eigenvalues --   -0.09101  -0.08799  -0.01801  -0.01429   0.00205
 Alpha virt. eigenvalues --    0.00485   0.01663   0.02360   0.02478   0.03164
 Alpha virt. eigenvalues --    0.04623   0.05637   0.05667   0.05804   0.06001

 Mulliken charges:
               1
     1  Mg   0.827968
     2  C    0.029826
     3  C   -0.080498
     4  C   -0.070063
     5  C   -0.085133
     6  N   -0.279637
     7  C   -0.085676
     8  C    0.013196
     9  C   -0.095834
    10  C    0.097091
    11  C    0.091207
    12  C    0.062608
    13  C   -0.075204
    14  H    0.013417
    15  N   -0.375454
    16  C    0.100329
    17  C   -0.121979
    18  C   -0.020103
    19  C    0.147713
    20  C    0.133009
    21  C   -0.028645
    22  O   -0.181282
    23  C    0.044388
    24  N   -0.219558
    25  C   -0.003952
    26  C   -0.028913
    27  C    0.001891
    28  C   -0.020731
    29  C    0.065825
    30  C    0.026748
    31  C   -0.008599
    32  N   -0.362108
    33  C    0.142920
    34  C   -0.189896
    35  C    0.039464
    36  C    0.070824
    37  C    0.143854
    38  C    0.011192
    39  O   -0.189856
    40  C    0.005487
    41  C    0.179208
    42  O   -0.228225
    43  O   -0.342845
    44  C    0.180405
    45  H   -0.022453
    46  H   -0.067107
    47  H   -0.047002
    48  H    0.007626
    49  H    0.015465
    50  H    0.019111
    51  H    0.006644
    52  H    0.019694
    53  H    0.017321
    54  H    0.008058
    55  H    0.035227
    56  H    0.040845
    57  H    0.046024
    58  H   -0.003629
    59  H    0.028846
    60  H    0.045405
    61  H    0.039469
    62  H    0.024619
    63  H    0.020017
    64  H    0.015942
    65  H    0.008877
    66  H    0.036933
    67  H    0.015506
    68  H    0.016339
    69  H    0.011569
    70  H    0.016013
    71  H    0.015040
    72  H    0.022405
    73  H    0.021523
    74  H    0.042219
    75  H    0.041814
    76  H    0.048087
    77  H    0.046353
    78  H    0.028328
    79  H    0.044493
    80  Mg   0.849784
    81  C   -0.032472
    82  C   -0.104334
    83  C   -0.040451
    84  C   -0.102951
    85  N   -0.277009
    86  C   -0.073645
    87  C    0.020012
    88  C   -0.112931
    89  C    0.098348
    90  C    0.051550
    91  C    0.081292
    92  C   -0.091572
    93  H    0.011468
    94  N   -0.341464
    95  C    0.146772
    96  C   -0.163369
    97  C   -0.029816
    98  C    0.148897
    99  C    0.116779
   100  C   -0.008337
   101  O   -0.229855
   102  C    0.068405
   103  N   -0.320763
   104  C    0.008075
   105  C   -0.016767
   106  C   -0.037892
   107  C    0.071416
   108  C    0.076347
   109  C    0.018601
   110  C   -0.003785
   111  N   -0.375145
   112  C    0.118482
   113  C   -0.127446
   114  C    0.017210
   115  C    0.159524
   116  C    0.116725
   117  C    0.021777
   118  O   -0.183766
   119  C   -0.013632
   120  C    0.166779
   121  O   -0.220803
   122  O   -0.295155
   123  C    0.174914
   124  H   -0.024845
   125  H   -0.005981
   126  H   -0.029585
   127  H    0.009688
   128  H    0.016847
   129  H    0.020829
   130  H    0.019462
   131  H    0.013209
   132  H    0.015432
   133  H    0.005731
   134  H    0.041354
   135  H    0.035615
   136  H    0.018814
   137  H    0.034014
   138  H    0.033331
   139  H    0.029276
   140  H    0.043642
   141  H    0.024135
   142  H    0.010410
   143  H    0.001449
   144  H    0.018263
   145  H    0.006738
   146  H    0.034656
   147  H    0.004117
   148  H    0.008754
   149  H    0.014745
   150  H    0.027005
   151  H    0.007629
   152  H    0.024886
   153  H    0.030966
   154  H    0.021933
   155  H    0.035908
   156  H    0.024934
   157  H    0.037053
   158  H    0.049792
 Sum of Mulliken charges =  -0.00000

 Dipole moment (field-independent basis, Debye):
    X=              2.6119    Y=              1.0796    Z=             -1.5776  Tot=              3.2367
 Quadrupole moment (field-independent basis, Debye-Ang):
   XX=           -400.1810   YY=           -577.9781   ZZ=           -474.3284
   XY=            266.2353   XZ=            -15.8858   YZ=             19.1603

 Normal termination of Gaussian 16 at Thu Sep 16 04:04:36 2021.
