 Gaussian 16, Revision A.03,
 Gaussian 16:  ES64L-G16RevA.03 25-Dec-2016

 ----------------------------------------------------------
 #p cam-b3lyp/Def2SVP td=(nstates=5) density=(transition=1)
 ----------------------------------------------------------

 --------------------------------
 TDDFT excited states in gaussian
 --------------------------------
 Symbolic Z-matrix:
 Charge =  0 Multiplicity = 1

                         Standard orientation:
 ---------------------------------------------------------------------
 Center     Atomic      Atomic             Coordinates (Angstroms)
 Number     Number       Type             X           Y           Z
 ---------------------------------------------------------------------
      1         12           0       20.281414   -0.716535    0.345558
      2          6           0       19.524169    2.219713   -1.361555
      3          6           0       21.584678    1.075396    2.883650
      4          6           0       21.375735   -3.612050    1.703474
      5          6           0       19.382484   -2.465070   -2.487168
      6          7           0       20.530769    1.459487    0.683356
      7          6           0       19.955530    2.460354   -0.057535
      8          6           0       20.155389    3.771319    0.602872
      9          6           0       20.856867    3.484881    1.935632
     10          6           0       21.014270    1.903792    1.899236
     11          6           0       22.139861    4.230764    2.268040
     12          6           0       18.747732    4.585121    0.752299
     13          6           0       18.622962    5.944701    0.025500
     14          1           0       17.924562    7.111067    0.680272
     15          7           0       21.222209   -1.213726    2.104519
     16          6           0       21.711298   -0.318445    3.043937
     17          6           0       22.361297   -1.029009    4.084341
     18          6           0       22.321032   -2.413203    3.764360
     19          6           0       21.600808   -2.463011    2.487870
     20          6           0       22.847568   -0.222648    5.351527
     21          6           0       22.980415   -3.525911    4.577358
     22          8           0       23.013335   -4.724392    4.259597
     23          6           0       23.567578   -3.217354    5.884094
     24          7           0       20.616372   -2.755905   -0.353391
     25          6           0       20.960505   -3.774886    0.406671
     26          6           0       21.037177   -5.079689   -0.417790
     27          6           0       19.952180   -4.703845   -1.502387
     28          6           0       19.949385   -3.179610   -1.442776
     29          6           0       22.381952   -5.516388   -1.108545
     30          6           0       18.480949   -5.308873   -1.300277
     31          6           0       17.755277   -4.974529   -0.061858
     32          7           0       19.606455   -0.292226   -1.649412
     33          6           0       19.256879   -1.137795   -2.720488
     34          6           0       18.832434   -0.344823   -3.829909
     35          6           0       18.973264    0.958607   -3.396937
     36          6           0       19.349722    0.932300   -2.014116
     37          6           0       18.608094   -0.809171   -5.185174
     38          6           0       18.664670    2.272032   -3.718036
     39          8           0       18.212507    2.782028   -4.748323
     40          6           0       19.084823    3.188634   -2.480184
     41          6           0       20.271779    3.964717   -2.946968
     42          8           0       21.358776    3.612557   -3.354594
     43          8           0       19.900041    5.243550   -2.866573
     44          6           0       20.936498    6.255292   -3.255196
     45          1           0       21.763297    1.749701    3.723776
     46          1           0       21.604310   -4.529275    2.248911
     47          1           0       19.039440   -3.036186   -3.352143
     48          1           0       20.814528    4.321084   -0.067840
     49          1           0       20.160964    3.685167    2.750014
     50          1           0       22.820001    3.463696    1.899625
     51          1           0       22.260527    4.524589    3.310884
     52          1           0       22.380401    5.154198    1.741949
     53          1           0       18.534880    4.720516    1.812294
     54          1           0       17.895432    4.069699    0.308838
     55          1           0       18.003996    5.757615   -0.852463
     56          1           0       19.574661    6.277181   -0.386882
     57          1           0       23.896290   -0.460565    5.528500
     58          1           0       22.234043   -0.750706    6.081589
     59          1           0       22.838062    0.866506    5.308472
     60          1           0       24.334519   -2.448963    5.797158
     61          1           0       24.192762   -4.075037    6.131205
     62          1           0       22.851219   -3.036307    6.685849
     63          1           0       20.544307   -5.869080    0.149872
     64          1           0       20.356412   -5.126658   -2.421821
     65          1           0       22.965855   -4.713867   -1.557626
     66          1           0       22.036694   -6.241970   -1.845922
     67          1           0       23.041787   -6.006625   -0.392244
     68          1           0       18.457564   -6.398824   -1.312967
     69          1           0       17.770196   -4.853914   -1.990104
     70          1           0       17.349524   -3.986514   -0.274764
     71          1           0       18.308096   -4.888329    0.874084
     72          1           0       16.895999   -5.583300    0.217537
     73          1           0       19.611418   -0.844160   -5.611366
     74          1           0       17.981863   -0.166922   -5.803737
     75          1           0       18.066067   -1.754124   -5.235896
     76          1           0       18.266731    3.797177   -2.094676
     77          1           0       21.261612    6.683671   -2.306832
     78          1           0       20.499470    6.985571   -3.935850
     79          1           0       21.846355    5.885064   -3.728466
     80         12           0      -20.965606   -0.540660   -0.229263
     81          6           0      -18.640302    2.106168    0.108081
     82          6           0      -23.324090    1.493743    1.069977
     83          6           0      -23.038107   -3.066555   -0.436397
     84          6           0      -18.169907   -2.695577   -0.868202
     85          7           0      -20.983331    1.574820    0.624160
     86          6           0      -19.967761    2.487937    0.394790
     87          6           0      -20.531392    3.839491    0.673058
     88          6           0      -21.793534    3.574099    1.494266
     89          6           0      -22.112097    2.126199    1.044594
     90          6           0      -21.481040    3.619710    3.036982
     91          6           0      -20.841755    4.780388   -0.611844
     92          6           0      -20.482001    6.297551   -0.586315
     93          1           0      -20.951510    7.108064    0.656298
     94          7           0      -22.940887   -0.725473    0.281776
     95          6           0      -23.702168    0.209916    0.768166
     96          6           0      -25.038015   -0.361919    1.010667
     97          6           0      -25.069529   -1.643967    0.382888
     98          6           0      -23.633997   -1.884192    0.061656
     99          6           0      -26.261012    0.281331    1.760276
    100          6           0      -26.220453   -2.607534    0.095179
    101          8           0      -26.074654   -3.757693   -0.360930
    102          6           0      -27.550955   -2.253926    0.565482
    103          7           0      -20.575857   -2.675429   -0.444873
    104          6           0      -21.675895   -3.511803   -0.615679
    105          6           0      -21.174139   -4.916083   -1.129962
    106          6           0      -19.662330   -4.685041   -1.376189
    107          6           0      -19.442535   -3.245038   -0.907163
    108          6           0      -21.566600   -6.067025   -0.203205
    109          6           0      -19.142457   -5.015517   -2.797927
    110          6           0      -17.759406   -5.696878   -2.919052
    111          7           0      -18.843800   -0.392267   -0.348616
    112          6           0      -17.845672   -1.338218   -0.559838
    113          6           0      -16.586271   -0.652164   -0.698397
    114          6           0      -16.844867    0.683746   -0.387883
    115          6           0      -18.245248    0.829828   -0.187342
    116          6           0      -15.357209   -1.208438   -1.086002
    117          6           0      -16.265727    2.030622   -0.275995
    118          8           0      -15.136779    2.464357   -0.442521
    119          6           0      -17.439170    3.017747    0.030596
    120          6           0      -17.092004    3.745170    1.317287
    121          8           0      -17.222380    3.471830    2.488992
    122          8           0      -16.645682    4.945802    0.845649
    123          6           0      -16.527372    6.065009    1.810461
    124          1           0      -24.117260    2.165492    1.405918
    125          1           0      -23.792672   -3.815238   -0.686255
    126          1           0      -17.347042   -3.284177   -1.278051
    127          1           0      -19.903790    4.506965    1.264087
    128          1           0      -22.644645    4.167942    1.161899
    129          1           0      -22.308084    3.985459    3.644591
    130          1           0      -20.697281    4.331877    3.296293
    131          1           0      -21.294352    2.582783    3.314222
    132          1           0      -21.875289    4.633305   -0.923598
    133          1           0      -20.320696    4.386242   -1.485129
    134          1           0      -21.069238    6.684607   -1.419836
    135          1           0      -19.400552    6.267542   -0.719453
    136          1           0      -27.111512    0.540165    1.130003
    137          1           0      -25.891738    1.182038    2.251450
    138          1           0      -26.762792   -0.370596    2.475383
    139          1           0      -27.846641   -1.271660    0.195996
    140          1           0      -27.591382   -2.261220    1.654782
    141          1           0      -28.249633   -2.920485    0.060810
    142          1           0      -21.597748   -5.036590   -2.127138
    143          1           0      -19.068027   -5.212948   -0.630639
    144          1           0      -20.783751   -6.205699    0.543188
    145          1           0      -21.633033   -7.039229   -0.690535
    146          1           0      -22.400770   -5.749445    0.421549
    147          1           0      -19.172539   -4.173074   -3.488756
    148          1           0      -19.835584   -5.674936   -3.321995
    149          1           0      -17.077554   -4.874084   -3.134461
    150          1           0      -17.834383   -6.315693   -3.813804
    151          1           0      -17.514320   -6.217895   -1.993945
    152          1           0      -14.424705   -0.713936   -0.814900
    153          1           0      -15.412942   -1.366884   -2.163443
    154          1           0      -15.304370   -2.169024   -0.574850
    155          1           0      -17.564791    3.716250   -0.796492
    156          1           0      -16.941011    6.924660    1.283983
    157          1           0      -15.516726    6.328983    2.120898
    158          1           0      -17.141474    5.865766    2.688296
 ---------------------------------------------------------------------

 SCF Done:  E(RCAM-B3LYP) =  -4069.78149014     A.U. after   19 cycles

 Excitation energies and oscillator strengths:

 Excited State   1:      Singlet-A      1.7047 eV  727.33 nm  f=0.3775  <S**2>=0.000
     309 -> 316        0.17517
     311 -> 313        0.68594
     309 <- 316        0.10613
 This state for optimization and/or second-order correction.
 Total Energy, E(TD-HF/TD-DFT) =  -4069.71884505
 Copying the excited state density for this state as the 1-particle RhoCI density.

 Excited State   2:      Singlet-A      1.7330 eV  715.43 nm  f=0.3822  <S**2>=0.000
     310 -> 315       -0.19054
     312 -> 314        0.68144
     310 <- 315       -0.10757

 Excited State   3:      Singlet-A      2.1769 eV  569.54 nm  f=0.1383  <S**2>=0.000
     309 -> 313        0.65149
     311 -> 316       -0.26308

 Excited State   4:      Singlet-A      2.2617 eV  548.20 nm  f=0.0687  <S**2>=0.000
     310 -> 314        0.62175
     312 -> 315        0.32226

 Excited State   5:      Singlet-A      3.0366 eV  408.30 nm  f=0.0000  <S**2>=0.000
     312 -> 313        0.70710

 The electronic state is 1-A.
 Alpha  occ. eigenvalues --  -46.89371 -46.89336 -19.25039 -19.24361 -19.20032
 Alpha  occ. eigenvalues --  -19.19258 -19.19068 -19.18682 -19.18665 -19.18205
 Alpha  occ. eigenvalues --  -14.41994 -14.41823 -14.41778 -14.41426 -14.39859
 Alpha  occ. eigenvalues --  -14.39697 -14.38982 -14.38956 -10.39234 -10.38608
 Alpha  occ. eigenvalues --  -10.35525 -10.35071 -10.34816 -10.34150 -10.31699
 Alpha  occ. eigenvalues --  -10.31695 -10.31455 -10.31419 -10.31201 -10.30814
 Alpha  occ. eigenvalues --  -10.30751 -10.30621 -10.30342 -10.30279 -10.30100
 Alpha  occ. eigenvalues --  -10.30043 -10.29988 -10.29866 -10.29785 -10.29544
 Alpha  occ. eigenvalues --  -10.29455 -10.29101 -10.28981 -10.28666 -10.28545
 Alpha  occ. eigenvalues --  -10.28534 -10.28274 -10.28213 -10.28150 -10.27919
 Alpha  occ. eigenvalues --  -10.27898 -10.27879 -10.27859 -10.27794 -10.27712
 Alpha  occ. eigenvalues --  -10.27668 -10.27583 -10.27533 -10.27520 -10.27501
 Alpha  occ. eigenvalues --  -10.27482 -10.27472 -10.27468 -10.27355 -10.27316
 Alpha  occ. eigenvalues --  -10.27183 -10.27152 -10.26690 -10.26541 -10.26495
 Alpha  occ. eigenvalues --  -10.26461 -10.26372 -10.26372 -10.26259 -10.26206
 Alpha  occ. eigenvalues --  -10.26051 -10.26031 -10.25804 -10.25801 -10.25714
 Alpha  occ. eigenvalues --  -10.25628 -10.25580 -10.25258 -10.24797 -10.24724
 Alpha  occ. eigenvalues --  -10.24652  -3.17758  -3.17745  -1.92656  -1.92647
 Alpha  occ. eigenvalues --   -1.92215  -1.92179  -1.92062  -1.92050  -1.17002
 Alpha  occ. eigenvalues --   -1.16116  -1.09591  -1.09364  -1.09122  -1.08556
 Alpha  occ. eigenvalues --   -1.07761  -1.07354  -1.05418  -1.05153  -1.04253
 Alpha  occ. eigenvalues --   -1.03940  -1.03380  -1.03055  -1.02625  -1.02070
 Alpha  occ. eigenvalues --   -0.92767  -0.92208  -0.89215  -0.88881  -0.88743
 Alpha  occ. eigenvalues --   -0.88477  -0.88366  -0.87985  -0.87960  -0.87595
 Alpha  occ. eigenvalues --   -0.87563  -0.87127  -0.86885  -0.86860  -0.84633
 Alpha  occ. eigenvalues --   -0.84283  -0.84232  -0.83592  -0.83068  -0.82732
 Alpha  occ. eigenvalues --   -0.82468  -0.82005  -0.81559  -0.81502  -0.80737
 Alpha  occ. eigenvalues --   -0.80596  -0.78748  -0.78387  -0.77661  -0.77450
 Alpha  occ. eigenvalues --   -0.77378  -0.77033  -0.75945  -0.75861  -0.75364
 Alpha  occ. eigenvalues --   -0.75118  -0.73477  -0.72508  -0.71817  -0.71674
 Alpha  occ. eigenvalues --   -0.69384  -0.69088  -0.68897  -0.68752  -0.67770
 Alpha  occ. eigenvalues --   -0.67698  -0.67365  -0.67207  -0.65754  -0.65476
 Alpha  occ. eigenvalues --   -0.65386  -0.65310  -0.65048  -0.64813  -0.64328
 Alpha  occ. eigenvalues --   -0.63966  -0.62056  -0.61938  -0.60481  -0.60434
 Alpha  occ. eigenvalues --   -0.59920  -0.59605  -0.59305  -0.59234  -0.58613
 Alpha  occ. eigenvalues --   -0.58319  -0.58257  -0.57944  -0.57921  -0.57500
 Alpha  occ. eigenvalues --   -0.56434  -0.56153  -0.55897  -0.55774  -0.55478
 Alpha  occ. eigenvalues --   -0.55203  -0.55052  -0.54827  -0.54700  -0.54463
 Alpha  occ. eigenvalues --   -0.53699  -0.53567  -0.53385  -0.53250  -0.53246
 Alpha  occ. eigenvalues --   -0.53224  -0.52988  -0.52949  -0.52689  -0.52428
 Alpha  occ. eigenvalues --   -0.52185  -0.52121  -0.51900  -0.51684  -0.51569
 Alpha  occ. eigenvalues --   -0.51204  -0.51163  -0.51085  -0.50799  -0.50414
 Alpha  occ. eigenvalues --   -0.50366  -0.49977  -0.49797  -0.49724  -0.49608
 Alpha  occ. eigenvalues --   -0.49451  -0.49359  -0.49197  -0.48987  -0.48983
 Alpha  occ. eigenvalues --   -0.48837  -0.48500  -0.48350  -0.48177  -0.48070
 Alpha  occ. eigenvalues --   -0.47661  -0.47390  -0.47368  -0.47132  -0.47110
 Alpha  occ. eigenvalues --   -0.46894  -0.46834  -0.46665  -0.46648  -0.46255
 Alpha  occ. eigenvalues --   -0.46236  -0.45990  -0.45920  -0.45810  -0.45549
 Alpha  occ. eigenvalues --   -0.45247  -0.45032  -0.44927  -0.44692  -0.44631
 Alpha  occ. eigenvalues --   -0.44470  -0.44352  -0.44109  -0.44053  -0.44047
 Alpha  occ. eigenvalues --   -0.43848  -0.43719  -0.43684  -0.43360  -0.43188
 Alpha  occ. eigenvalues --   -0.43018  -0.42966  -0.42940  -0.42721  -0.42502
 Alpha  occ. eigenvalues --   -0.42305  -0.42216  -0.42162  -0.42107  -0.41915
 Alpha  occ. eigenvalues --   -0.41825  -0.41602  -0.41540  -0.41239  -0.41065
 Alpha  occ. eigenvalues --   -0.40965  -0.40867  -0.40709  -0.40552  -0.40248
 Alpha  occ. eigenvalues --   -0.40159  -0.39854  -0.39612  -0.39519  -0.38933
 Alpha  occ. eigenvalues --   -0.38774  -0.38059  -0.38021  -0.37689  -0.37665
 Alpha  occ. eigenvalues --   -0.37394  -0.37011  -0.36524  -0.36450  -0.36366
 Alpha  occ. eigenvalues --   -0.36117  -0.35929  -0.34664  -0.34472  -0.34300
 Alpha  occ. eigenvalues --   -0.33899  -0.33476  -0.33102  -0.31687  -0.31475
 Alpha  occ. eigenvalues --   -0.31171  -0.31035  -0.30559  -0.30527  -0.30463
 Alpha  occ. eigenvalues --   -0.30451  -0.29981  -0.29258  -0.24012  -0.23970
 Alpha  occ. eigenvalues --   -0.21436  -0.20970
 Alpha virt. eigenvalues --   -0.08975  -0.08278  -0.02059  -0.01613  -0.00137
 Alpha virt. eigenvalues --    0.00285   0.01751   0.02020   0.02319   0.02468
 Alpha virt. eigenvalues --    0.05196   0.05346   0.05780   0.05968   0.06107

 Mulliken charges:
               1
     1  Mg  11.996317
     2  C    5.965732
     3  C    6.007489
     4  C    6.034429
     5  C    6.008390
     6  N    6.980242
     7  C    6.038006
     8  C    5.987722
     9  C    6.005803
    10  C    5.974133
    11  C    6.002288
    12  C    5.997562
    13  C    5.999845
    14  H    1.003811
    15  N    7.009841
    16  C    5.958052
    17  C    5.981721
    18  C    5.984596
    19  C    5.959203
    20  C    6.000610
    21  C    5.987683
    22  O    7.970687
    23  C    6.008825
    24  N    7.022611
    25  C    5.957787
    26  C    6.010511
    27  C    5.990368
    28  C    6.021903
    29  C    5.999011
    30  C    5.989665
    31  C    6.001001
    32  N    6.993298
    33  C    6.035350
    34  C    6.029030
    35  C    6.008171
    36  C    6.033354
    37  C    5.995337
    38  C    6.009124
    39  O    8.035574
    40  C    6.002198
    41  C    6.004021
    42  O    8.002380
    43  O    8.001172
    44  C    5.997620
    45  H    0.985259
    46  H    0.999718
    47  H    1.015865
    48  H    0.999534
    49  H    0.996633
    50  H    1.001043
    51  H    0.998335
    52  H    0.985816
    53  H    1.007796
    54  H    0.994938
    55  H    0.994126
    56  H    1.000296
    57  H    0.981349
    58  H    0.983891
    59  H    0.983678
    60  H    0.994825
    61  H    0.985454
    62  H    0.990910
    63  H    1.001686
    64  H    1.005677
    65  H    0.995665
    66  H    0.992497
    67  H    1.006465
    68  H    1.011376
    69  H    0.996523
    70  H    0.992657
    71  H    1.017453
    72  H    1.004847
    73  H    1.021172
    74  H    1.017152
    75  H    1.017168
    76  H    1.007039
    77  H    1.006933
    78  H    1.001671
    79  H    1.002076
    80  Mg  11.999969
    81  C    6.000496
    82  C    5.999543
    83  C    5.999589
    84  C    6.000318
    85  N    6.999977
    86  C    5.999372
    87  C    6.000178
    88  C    5.999920
    89  C    6.000557
    90  C    6.000009
    91  C    6.000076
    92  C    6.000000
    93  H    0.999918
    94  N    6.999752
    95  C    6.000792
    96  C    6.000408
    97  C    6.000191
    98  C    6.000746
    99  C    5.999904
   100  C    6.000246
   101  O    8.000436
   102  C    5.999870
   103  N    7.000075
   104  C    6.000734
   105  C    5.999825
   106  C    6.000135
   107  C    5.999461
   108  C    5.999912
   109  C    6.000118
   110  C    6.000005
   111  N    7.000094
   112  C    5.999330
   113  C    5.999461
   114  C    5.999943
   115  C    5.999323
   116  C    6.000178
   117  C    5.999676
   118  O    7.999430
   119  C    5.999937
   120  C    5.999977
   121  O    7.999890
   122  O    7.999977
   123  C    6.000053
   124  H    1.000142
   125  H    1.000165
   126  H    0.999842
   127  H    0.999931
   128  H    0.999981
   129  H    1.000008
   130  H    1.000209
   131  H    1.000008
   132  H    0.999754
   133  H    1.000019
   134  H    0.999925
   135  H    1.000054
   136  H    1.000380
   137  H    1.000351
   138  H    1.000360
   139  H    1.000113
   140  H    1.000164
   141  H    1.000271
   142  H    1.000047
   143  H    1.000033
   144  H    1.000190
   145  H    1.000137
   146  H    0.999923
   147  H    0.999962
   148  H    0.999824
   149  H    1.000071
   150  H    0.999900
   151  H    0.999983
   152  H    0.999648
   153  H    0.999529
   154  H    0.999687
   155  H    0.999820
   156  H    0.999904
   157  H    0.999918
   158  H    0.999951
 Sum of Mulliken charges = 624.00000

 Dipole moment (field-independent basis, Debye):
    X=             -4.7302    Y=              0.7976    Z=             -9.6833  Tot=             10.8064
 Quadrupole moment (field-independent basis, Debye-Ang):
   XX=           -179.3344   YY=              0.5881   ZZ=             -2.7334
   XY=             22.3674   XZ=           -202.1998   YZ=              5.8986

 Normal termination of Gaussian 16 at Tue Sep 21 23:47:32 2021.
