 Gaussian 16, Revision A.03,
 Gaussian 16:  ES64L-G16RevA.03 25-Dec-2016

 -----------------------------------
 #p cam-b3lyp/Def2SVP td=(nstates=5)
 -----------------------------------

 --------------------------------
 TDDFT excited states in gaussian
 --------------------------------
 Symbolic Z-matrix:
 Charge =  0 Multiplicity = 1

                         Standard orientation:
 ---------------------------------------------------------------------
 Center     Atomic      Atomic             Coordinates (Angstroms)
 Number     Number       Type             X           Y           Z
 ---------------------------------------------------------------------
      1         12           0      -28.514355   -0.012176   -0.793693
      2          6           0      -24.970932    0.187160   -0.508114
      3          6           0      -28.318666   -3.421748   -0.530484
      4          6           0      -31.924836   -0.098575   -0.013814
      5          6           0      -28.669812    3.483045   -0.465475
      6          7           0      -26.719211   -1.413280   -0.277705
      7          6           0      -25.411752   -1.157939   -0.448291
      8          6           0      -24.674426   -2.460078   -0.701962
      9          6           0      -25.739239   -3.658255   -0.642967
     10          6           0      -27.048049   -2.717450   -0.621259
     11          6           0      -25.603328   -4.508451   -1.926116
     12          6           0      -23.546269   -2.647591    0.299630
     13          6           0      -23.818177   -2.188749    1.751980
     14          1           0      -24.027766   -3.304479    2.811934
     15          7           0      -29.980512   -1.580417   -0.413094
     16          6           0      -29.628799   -2.910843   -0.342710
     17          6           0      -30.859327   -3.632912   -0.256739
     18          6           0      -31.954906   -2.721748   -0.005495
     19          6           0      -31.345295   -1.379007   -0.179272
     20          6           0      -30.914357   -5.140540   -0.168790
     21          6           0      -33.366079   -3.059661    0.478033
     22          8           0      -33.663490   -4.211477    0.729782
     23          6           0      -34.389220   -2.077053    0.675645
     24          7           0      -30.062675    1.462651   -0.206711
     25          6           0      -31.352423    1.178385   -0.102084
     26          6           0      -32.214709    2.392407    0.203097
     27          6           0      -31.075280    3.479715    0.415399
     28          6           0      -29.874079    2.826095   -0.166486
     29          6           0      -33.242679    2.771670   -0.971511
     30          6           0      -30.975860    3.892151    1.955925
     31          6           0      -31.375080    5.269507    2.404288
     32          7           0      -27.193009    1.502228   -0.787699
     33          6           0      -27.406232    2.895749   -0.776384
     34          6           0      -26.130979    3.618306   -0.939720
     35          6           0      -25.208480    2.575315   -0.858961
     36          6           0      -25.842605    1.302305   -0.641889
     37          6           0      -25.872868    5.134086   -1.245909
     38          6           0      -23.764442    2.320380   -0.870844
     39          8           0      -22.773088    3.056276   -1.007151
     40          6           0      -23.540780    0.785787   -0.665398
     41          6           0      -22.800691    0.811383    0.627290
     42          8           0      -23.209575    1.290099    1.653954
     43          8           0      -21.567511    0.343836    0.455874
     44          6           0      -20.661934    0.195390    1.648277
     45          1           0      -28.259451   -4.490044   -0.748184
     46          1           0      -32.995411    0.025464    0.160985
     47          1           0      -28.823729    4.542711   -0.248832
     48          1           0      -24.282212   -2.226908   -1.691888
     49          1           0      -25.634499   -4.267473    0.255193
     50          1           0      -25.351322   -5.527163   -1.632146
     51          1           0      -24.810534   -4.185594   -2.601399
     52          1           0      -26.589460   -4.504518   -2.389700
     53          1           0      -22.663234   -2.107223   -0.041587
     54          1           0      -23.297108   -3.704246    0.401348
     55          1           0      -24.743111   -1.646498    1.947861
     56          1           0      -22.952427   -1.577958    2.008190
     57          1           0      -29.917815   -5.581981   -0.140710
     58          1           0      -31.551262   -5.494031   -0.980378
     59          1           0      -31.497209   -5.390649    0.716988
     60          1           0      -34.189881   -1.344557    1.458126
     61          1           0      -35.320199   -2.576393    0.943364
     62          1           0      -34.416810   -1.564975   -0.286794
     63          1           0      -32.736700    2.337798    1.158085
     64          1           0      -31.523626    4.347985   -0.067838
     65          1           0      -33.177899    2.027088   -1.765460
     66          1           0      -32.917804    3.726163   -1.386070
     67          1           0      -34.280816    2.919618   -0.670074
     68          1           0      -29.940827    3.893718    2.297890
     69          1           0      -31.539211    3.201677    2.582106
     70          1           0      -30.532526    5.938928    2.577905
     71          1           0      -31.858661    5.016077    3.348273
     72          1           0      -32.201790    5.711496    1.847899
     73          1           0      -26.041240    5.689937   -0.323935
     74          1           0      -26.530049    5.409351   -2.070961
     75          1           0      -24.818001    5.259419   -1.489468
     76          1           0      -22.985614    0.444994   -1.540098
     77          1           0      -20.135701    1.117271    1.896940
     78          1           0      -19.912068   -0.578507    1.479332
     79          1           0      -21.320818   -0.121675    2.456615
     80         12           0       27.829657    0.726099   -0.657166
     81          6           0       26.718691   -2.579454    0.004295
     82          6           0       24.915787    1.855292    0.892481
     83          6           0       29.395726    3.588654   -0.222019
     84          6           0       30.905308   -0.806759   -1.919975
     85          7           0       26.104107   -0.312545    0.579568
     86          6           0       25.772832   -1.620932    0.447307
     87          6           0       24.357502   -1.834430    0.953390
     88          6           0       23.658295   -0.504331    0.672024
     89          6           0       24.965387    0.436325    0.770400
     90          6           0       22.985000   -0.306203   -0.687299
     91          6           0       24.400136   -2.324497    2.466286
     92          6           0       23.477547   -3.451444    2.718774
     93          1           0       22.667811   -3.430770    4.029830
     94          7           0       27.274815    2.534689    0.272101
     95          6           0       25.983972    2.820207    0.782196
     96          6           0       26.009889    4.197752    1.205124
     97          6           0       27.244011    4.794730    0.834461
     98          6           0       28.066953    3.657778    0.287674
     99          6           0       24.797608    4.825287    1.885937
    100          6           0       27.651441    6.191642    1.091741
    101          8           0       26.868375    6.938479    1.665477
    102          6           0       28.981991    6.808238    0.808912
    103          7           0       29.980890    1.259779   -0.959250
    104          6           0       30.223614    2.582793   -0.872737
    105          6           0       31.625134    2.915281   -1.415910
    106          6           0       32.091653    1.522069   -2.124075
    107          6           0       30.927999    0.589256   -1.699466
    108          6           0       31.693296    4.232286   -2.312806
    109          6           0       33.513830    1.011799   -1.732762
    110          6           0       33.612958   -0.097698   -0.630925
    111          7           0       28.648841   -1.186998   -0.919554
    112          6           0       29.870251   -1.630067   -1.502399
    113          6           0       29.791590   -3.142617   -1.701842
    114          6           0       28.603917   -3.485464   -1.075645
    115          6           0       27.954207   -2.274145   -0.643533
    116          6           0       30.751365   -4.160125   -2.348167
    117          6           0       27.735368   -4.577457   -0.769426
    118          8           0       27.818514   -5.770624   -1.065284
    119          6           0       26.633293   -3.996151    0.042212
    120          6           0       26.930331   -4.529174    1.462511
    121          8           0       27.767266   -4.105340    2.256787
    122          8           0       26.100374   -5.666563    1.665479
    123          6           0       26.268433   -6.411287    2.846784
    124          1           0       23.985687    2.276415    1.280149
    125          1           0       29.762322    4.616658   -0.193037
    126          1           0       31.712894   -1.345421   -2.418699
    127          1           0       23.795015   -2.561232    0.367521
    128          1           0       22.871163   -0.143221    1.332939
    129          1           0       22.773159   -1.236732   -1.213141
    130          1           0       23.471751    0.479081   -1.266180
    131          1           0       22.009191    0.089173   -0.402828
    132          1           0       24.078647   -1.502552    3.106027
    133          1           0       25.404622   -2.497230    2.852788
    134          1           0       24.155216   -4.302894    2.667622
    135          1           0       22.759318   -3.493823    1.900100
    136          1           0       24.242951    5.496737    1.230778
    137          1           0       25.124419    5.301655    2.809101
    138          1           0       24.090356    4.051873    2.185831
    139          1           0       29.102903    6.873572   -0.272669
    140          1           0       29.845229    6.292782    1.231674
    141          1           0       28.989505    7.871471    1.045781
    142          1           0       32.214626    3.033710   -0.506997
    143          1           0       31.987284    1.631631   -3.202993
    144          1           0       30.876602    4.913006   -2.072931
    145          1           0       31.808581    4.133242   -3.392810
    146          1           0       32.696803    4.605066   -2.101709
    147          1           0       34.180355    1.822962   -1.440870
    148          1           0       33.860531    0.571502   -2.667349
    149          1           0       34.572920    0.232788   -0.233559
    150          1           0       33.693217   -1.136184   -0.952925
    151          1           0       32.809052    0.077225    0.084378
    152          1           0       30.263056   -4.696072   -3.161308
    153          1           0       30.771623   -4.860432   -1.513690
    154          1           0       31.703566   -3.655574   -2.510546
    155          1           0       25.680024   -4.402724   -0.295732
    156          1           0       25.611265   -7.277208    2.936000
    157          1           0       26.056789   -5.745720    3.682689
    158          1           0       27.308741   -6.737231    2.826158
 ---------------------------------------------------------------------

 SCF Done:  E(RCAM-B3LYP) =  -4069.72309843     A.U. after   19 cycles

 Excitation energies and oscillator strengths:

 Excited State   1:      Singlet-A      1.6842 eV  736.15 nm  f=0.3418  <S**2>=0.000
     310 -> 315        0.19705
     312 -> 314        0.67950
     310 <- 315        0.11201
 This state for optimization and/or second-order correction.
 Total Energy, E(TD-HF/TD-DFT) =  -4069.66120404
 Copying the excited state density for this state as the 1-particle RhoCI density.

 Excited State   2:      Singlet-A      1.6890 eV  734.07 nm  f=0.3664  <S**2>=0.000
     309 -> 316        0.20055
     311 -> 313        0.67977
     309 <- 316        0.11480

 Excited State   3:      Singlet-A      2.1915 eV  565.74 nm  f=0.0566  <S**2>=0.000
     310 -> 314        0.61452
     312 -> 315       -0.33942

 Excited State   4:      Singlet-A      2.1999 eV  563.59 nm  f=0.0720  <S**2>=0.000
     309 -> 313        0.61854
     311 -> 316       -0.32993

 Excited State   5:      Singlet-A      3.1730 eV  390.75 nm  f=0.0000  <S**2>=0.000
     312 -> 313        0.70710

 The electronic state is 1-A.
 Alpha  occ. eigenvalues --  -46.91312 -46.90225 -19.25091 -19.24722 -19.21414
 Alpha  occ. eigenvalues --  -19.18924 -19.18871 -19.18867 -19.18082 -19.17584
 Alpha  occ. eigenvalues --  -14.42444 -14.42419 -14.41987 -14.41954 -14.40254
 Alpha  occ. eigenvalues --  -14.40152 -14.39772 -14.39552 -10.40605 -10.38741
 Alpha  occ. eigenvalues --  -10.34983 -10.34573 -10.34334 -10.34136 -10.32473
 Alpha  occ. eigenvalues --  -10.32021 -10.31841 -10.31439 -10.31414 -10.31403
 Alpha  occ. eigenvalues --  -10.31318 -10.31065 -10.30992 -10.30985 -10.30941
 Alpha  occ. eigenvalues --  -10.30842 -10.30751 -10.30718 -10.30092 -10.29968
 Alpha  occ. eigenvalues --  -10.29863 -10.29478 -10.29403 -10.28868 -10.28832
 Alpha  occ. eigenvalues --  -10.28791 -10.28742 -10.28532 -10.28424 -10.28416
 Alpha  occ. eigenvalues --  -10.28397 -10.28384 -10.28213 -10.28166 -10.28157
 Alpha  occ. eigenvalues --  -10.28111 -10.28077 -10.27919 -10.27864 -10.27682
 Alpha  occ. eigenvalues --  -10.27675 -10.27618 -10.27567 -10.27453 -10.27366
 Alpha  occ. eigenvalues --  -10.27175 -10.27117 -10.27105 -10.27027 -10.27002
 Alpha  occ. eigenvalues --  -10.26924 -10.26809 -10.26791 -10.26607 -10.26426
 Alpha  occ. eigenvalues --  -10.26373 -10.26246 -10.26205 -10.25799 -10.25780
 Alpha  occ. eigenvalues --  -10.25679 -10.25649 -10.25529 -10.25282 -10.25062
 Alpha  occ. eigenvalues --  -10.24988  -3.19512  -3.18532  -1.94353  -1.94019
 Alpha  occ. eigenvalues --   -1.93768  -1.93395  -1.93019  -1.92809  -1.17077
 Alpha  occ. eigenvalues --   -1.15832  -1.10227  -1.09612  -1.09368  -1.08831
 Alpha  occ. eigenvalues --   -1.08663  -1.07717  -1.04614  -1.04213  -1.03691
 Alpha  occ. eigenvalues --   -1.03460  -1.02848  -1.02410  -1.01615  -1.01287
 Alpha  occ. eigenvalues --   -0.94390  -0.91959  -0.89182  -0.88964  -0.88832
 Alpha  occ. eigenvalues --   -0.88732  -0.88266  -0.87811  -0.87277  -0.87101
 Alpha  occ. eigenvalues --   -0.86859  -0.86132  -0.85582  -0.85369  -0.84789
 Alpha  occ. eigenvalues --   -0.84699  -0.84056  -0.83672  -0.82865  -0.82713
 Alpha  occ. eigenvalues --   -0.82631  -0.81652  -0.81107  -0.80867  -0.80283
 Alpha  occ. eigenvalues --   -0.80267  -0.78047  -0.77913  -0.77361  -0.77282
 Alpha  occ. eigenvalues --   -0.76888  -0.76401  -0.76312  -0.76014  -0.75216
 Alpha  occ. eigenvalues --   -0.74977  -0.72868  -0.72757  -0.71850  -0.71734
 Alpha  occ. eigenvalues --   -0.69927  -0.68913  -0.68724  -0.68538  -0.68133
 Alpha  occ. eigenvalues --   -0.67328  -0.66878  -0.66694  -0.65595  -0.65353
 Alpha  occ. eigenvalues --   -0.65206  -0.64979  -0.64768  -0.64722  -0.64554
 Alpha  occ. eigenvalues --   -0.64043  -0.62431  -0.62223  -0.60297  -0.59941
 Alpha  occ. eigenvalues --   -0.59778  -0.59284  -0.59281  -0.58991  -0.58911
 Alpha  occ. eigenvalues --   -0.58704  -0.58270  -0.57814  -0.57275  -0.57045
 Alpha  occ. eigenvalues --   -0.56329  -0.56210  -0.55969  -0.55853  -0.55649
 Alpha  occ. eigenvalues --   -0.55047  -0.54958  -0.54919  -0.54568  -0.54522
 Alpha  occ. eigenvalues --   -0.53876  -0.53687  -0.53543  -0.53402  -0.53069
 Alpha  occ. eigenvalues --   -0.53043  -0.52651  -0.52628  -0.52503  -0.52189
 Alpha  occ. eigenvalues --   -0.52031  -0.51971  -0.51763  -0.51679  -0.51538
 Alpha  occ. eigenvalues --   -0.51400  -0.51314  -0.50683  -0.50562  -0.50192
 Alpha  occ. eigenvalues --   -0.50169  -0.49977  -0.49815  -0.49700  -0.49494
 Alpha  occ. eigenvalues --   -0.49412  -0.49236  -0.49226  -0.48960  -0.48958
 Alpha  occ. eigenvalues --   -0.48519  -0.48486  -0.48274  -0.48269  -0.47808
 Alpha  occ. eigenvalues --   -0.47767  -0.47479  -0.47313  -0.47176  -0.46961
 Alpha  occ. eigenvalues --   -0.46911  -0.46858  -0.46606  -0.46301  -0.46102
 Alpha  occ. eigenvalues --   -0.45954  -0.45910  -0.45877  -0.45814  -0.45610
 Alpha  occ. eigenvalues --   -0.45444  -0.45318  -0.45310  -0.45191  -0.45154
 Alpha  occ. eigenvalues --   -0.45107  -0.44903  -0.44578  -0.44457  -0.44365
 Alpha  occ. eigenvalues --   -0.44146  -0.43957  -0.43802  -0.43686  -0.43584
 Alpha  occ. eigenvalues --   -0.43484  -0.43315  -0.43223  -0.43012  -0.42897
 Alpha  occ. eigenvalues --   -0.42398  -0.42340  -0.42049  -0.42006  -0.41609
 Alpha  occ. eigenvalues --   -0.41502  -0.41414  -0.41307  -0.41295  -0.41020
 Alpha  occ. eigenvalues --   -0.40985  -0.40869  -0.40435  -0.40128  -0.40093
 Alpha  occ. eigenvalues --   -0.40033  -0.39811  -0.39180  -0.38651  -0.38568
 Alpha  occ. eigenvalues --   -0.38276  -0.38000  -0.37933  -0.37645  -0.37428
 Alpha  occ. eigenvalues --   -0.37120  -0.36757  -0.36525  -0.36392  -0.36334
 Alpha  occ. eigenvalues --   -0.35780  -0.35719  -0.35226  -0.34260  -0.34226
 Alpha  occ. eigenvalues --   -0.34113  -0.33357  -0.33355  -0.31473  -0.31391
 Alpha  occ. eigenvalues --   -0.30819  -0.30753  -0.30686  -0.30576  -0.30284
 Alpha  occ. eigenvalues --   -0.30224  -0.29487  -0.28932  -0.24292  -0.24059
 Alpha  occ. eigenvalues --   -0.21326  -0.21047
 Alpha virt. eigenvalues --   -0.08776  -0.08540  -0.02624  -0.02565  -0.00614
 Alpha virt. eigenvalues --    0.00124   0.00256   0.01023   0.02161   0.02419
 Alpha virt. eigenvalues --    0.04697   0.04776   0.05157   0.05179   0.05886

 Mulliken charges:
               1
     1  Mg   0.809049
     2  C   -0.024257
     3  C   -0.063376
     4  C   -0.069242
     5  C   -0.046418
     6  N   -0.259839
     7  C   -0.095492
     8  C    0.047093
     9  C   -0.094974
    10  C    0.038568
    11  C    0.067255
    12  C    0.028228
    13  C   -0.086687
    14  H   -0.003187
    15  N   -0.383455
    16  C    0.151043
    17  C   -0.160430
    18  C   -0.041622
    19  C    0.173077
    20  C    0.133625
    21  C   -0.012994
    22  O   -0.204458
    23  C    0.070707
    24  N   -0.255751
    25  C    0.022699
    26  C   -0.100953
    27  C   -0.016297
    28  C    0.028507
    29  C    0.062466
    30  C    0.013438
    31  C    0.006258
    32  N   -0.412702
    33  C    0.143987
    34  C   -0.181416
    35  C    0.017259
    36  C    0.150102
    37  C    0.132504
    38  C    0.023756
    39  O   -0.196839
    40  C    0.022558
    41  C    0.168894
    42  O   -0.207056
    43  O   -0.315703
    44  C    0.170850
    45  H   -0.008632
    46  H   -0.041480
    47  H   -0.025240
    48  H    0.008607
    49  H    0.035949
    50  H    0.010330
    51  H    0.022936
    52  H    0.020746
    53  H    0.017512
    54  H    0.016111
    55  H    0.065851
    56  H    0.027689
    57  H    0.007255
    58  H    0.023929
    59  H    0.038911
    60  H    0.044557
    61  H    0.029515
    62  H    0.034965
    63  H    0.015078
    64  H   -0.005464
    65  H    0.022371
    66  H    0.010548
    67  H    0.024198
    68  H    0.012531
    69  H    0.009695
    70  H    0.031456
    71  H    0.006072
    72  H    0.005309
    73  H    0.031938
    74  H    0.034995
    75  H    0.039147
    76  H    0.037210
    77  H    0.053533
    78  H    0.040943
    79  H    0.052151
    80  Mg   0.808510
    81  C    0.026531
    82  C   -0.060736
    83  C   -0.021880
    84  C   -0.054818
    85  N   -0.238531
    86  C   -0.066696
    87  C   -0.007329
    88  C   -0.085899
    89  C    0.025299
    90  C    0.085421
    91  C    0.072665
    92  C   -0.063558
    93  H    0.018171
    94  N   -0.411449
    95  C    0.127347
    96  C   -0.147935
    97  C    0.024189
    98  C    0.084054
    99  C    0.141737
   100  C   -0.053925
   101  O   -0.216883
   102  C    0.078834
   103  N   -0.260296
   104  C    0.038675
   105  C   -0.046169
   106  C    0.025420
   107  C   -0.014248
   108  C    0.052464
   109  C    0.002704
   110  C    0.007456
   111  N   -0.333217
   112  C    0.096745
   113  C   -0.206558
   114  C    0.019523
   115  C    0.125900
   116  C    0.134629
   117  C    0.005921
   118  O   -0.180155
   119  C    0.016428
   120  C    0.215300
   121  O   -0.202552
   122  O   -0.345890
   123  C    0.186838
   124  H   -0.020643
   125  H   -0.066438
   126  H   -0.026119
   127  H   -0.009643
   128  H    0.002560
   129  H    0.020032
   130  H    0.025895
   131  H    0.005832
   132  H    0.007758
   133  H    0.031959
   134  H    0.024943
   135  H    0.024296
   136  H    0.034552
   137  H    0.037890
   138  H   -0.012199
   139  H    0.019231
   140  H    0.050495
   141  H    0.019672
   142  H    0.023824
   143  H    0.010336
   144  H    0.032477
   145  H    0.011780
   146  H    0.010044
   147  H    0.015633
   148  H    0.005367
   149  H    0.012269
   150  H    0.025459
   151  H    0.040072
   152  H    0.049511
   153  H    0.045729
   154  H    0.017031
   155  H    0.029893
   156  H    0.038710
   157  H    0.024812
   158  H    0.034941
 Sum of Mulliken charges =  -0.00000

 Dipole moment (field-independent basis, Debye):
    X=             -0.2397    Y=              1.3154    Z=             -5.4777  Tot=              5.6386
 Quadrupole moment (field-independent basis, Debye-Ang):
   XX=           -358.2385   YY=           -552.0368   ZZ=           -512.1137
   XY=            -34.2185   XZ=            -63.5352   YZ=            -12.1047

 Normal termination of Gaussian 16 at Tue Sep 14 18:38:56 2021.
