 Gaussian 16, Revision A.03,
 Gaussian 16:  ES64L-G16RevA.03 25-Dec-2016

 ----------------------------------------------------------
 #p cam-b3lyp/Def2SVP td=(nstates=5) density=(transition=1)
 ----------------------------------------------------------

 --------------------------------
 TDDFT excited states in gaussian
 --------------------------------
 Symbolic Z-matrix:
 Charge =  0 Multiplicity = 1

                         Standard orientation:
 ---------------------------------------------------------------------
 Center     Atomic      Atomic             Coordinates (Angstroms)
 Number     Number       Type             X           Y           Z
 ---------------------------------------------------------------------
      1         12           0      -13.236820    0.693967    0.097455
      2          6           0      -12.020948   -2.159586   -1.391335
      3          6           0      -15.329576   -1.333106    2.039087
      4          6           0      -14.551720    3.446372    1.543030
      5          6           0      -11.461087    2.608030   -2.070583
      6          7           0      -13.801256   -1.516304    0.089135
      7          6           0      -12.967127   -2.497493   -0.461100
      8          6           0      -13.255221   -3.895449    0.121077
      9          6           0      -14.407302   -3.554973    1.136674
     10          6           0      -14.527291   -2.046340    1.161430
     11          6           0      -15.726926   -4.234409    0.793301
     12          6           0      -12.093428   -4.709272    0.793379
     13          6           0      -11.607916   -6.064668    0.041805
     14          1           0      -11.775720   -7.290432    0.945045
     15          7           0      -14.770326    1.029246    1.477631
     16          6           0      -15.414766    0.053375    2.255010
     17          6           0      -16.177878    0.661289    3.350037
     18          6           0      -16.045775    2.146342    3.203026
     19          6           0      -15.038925    2.295378    2.077645
     20          6           0      -16.962069   -0.146814    4.360272
     21          6           0      -16.645900    3.246356    3.943913
     22          8           0      -16.459813    4.413742    3.569937
     23          6           0      -17.563296    3.039501    5.136352
     24          7           0      -13.080612    2.655109   -0.291912
     25          6           0      -13.613637    3.671025    0.522944
     26          6           0      -13.121033    5.133970    0.176272
     27          6           0      -12.127083    4.782848   -1.047372
     28          6           0      -12.219125    3.242164   -1.126559
     29          6           0      -14.294961    6.157008   -0.224392
     30          6           0      -10.673000    5.304141   -0.781364
     31          6           0       -9.902046    5.855035   -1.939857
     32          7           0      -12.050606    0.282428   -1.518676
     33          6           0      -11.329112    1.192321   -2.296797
     34          6           0      -10.435385    0.515572   -3.173311
     35          6           0      -10.612504   -0.859561   -2.770035
     36          6           0      -11.651274   -0.907029   -1.831703
     37          6           0       -9.459581    1.024926   -4.149210
     38          6           0      -10.243298   -2.200665   -3.099308
     39          8           0       -9.425054   -2.719272   -3.866853
     40          6           0      -11.276669   -3.113401   -2.295545
     41          6           0      -12.112402   -3.862042   -3.271253
     42          8           0      -13.194428   -3.621795   -3.639499
     43          8           0      -11.472209   -5.040397   -3.647913
     44          6           0      -12.352177   -6.100886   -4.093063
     45          1           0      -15.913292   -1.975452    2.701795
     46          1           0      -14.845178    4.406461    1.972493
     47          1           0      -10.777578    3.217009   -2.665845
     48          1           0      -13.678109   -4.517984   -0.666678
     49          1           0      -14.196839   -3.946925    2.132139
     50          1           0      -16.454422   -3.468917    0.524677
     51          1           0      -16.005380   -4.701856    1.737017
     52          1           0      -15.672870   -5.029321    0.049766
     53          1           0      -12.412137   -4.972212    1.802346
     54          1           0      -11.182527   -4.114481    0.862509
     55          1           0      -10.539177   -5.886241   -0.078091
     56          1           0      -12.152363   -6.197336   -0.892850
     57          1           0      -17.843439   -0.523269    3.839598
     58          1           0      -17.264046    0.523162    5.163814
     59          1           0      -16.443179   -1.045174    4.695336
     60          1           0      -18.094945    3.983204    5.260017
     61          1           0      -17.041383    2.749222    6.048788
     62          1           0      -18.415599    2.373692    5.002231
     63          1           0      -12.491380    5.511367    0.981354
     64          1           0      -12.386320    5.248777   -1.998333
     65          1           0      -13.936994    6.787567   -1.038511
     66          1           0      -14.565824    6.907105    0.517639
     67          1           0      -15.215676    5.654473   -0.521444
     68          1           0      -10.030253    4.583201   -0.276432
     69          1           0      -10.655394    6.170211   -0.120043
     70          1           0       -9.094288    5.139821   -2.094269
     71          1           0       -9.307042    6.761414   -1.827801
     72          1           0      -10.544166    5.904086   -2.819884
     73          1           0       -9.140060    2.016819   -3.828412
     74          1           0      -10.033965    1.118176   -5.070807
     75          1           0       -8.707308    0.255332   -4.323200
     76          1           0      -10.738081   -3.829630   -1.675535
     77          1           0      -12.629559   -5.801172   -5.103098
     78          1           0      -13.218730   -6.057417   -3.433486
     79          1           0      -11.839317   -7.062689   -4.121894
     80         12           0       13.444812    0.500512   -0.102559
     81          6           0       11.456910   -2.322929    0.596960
     82          6           0       16.209966   -1.464628    0.048571
     83          6           0       15.313222    3.264256   -0.659972
     84          6           0       10.614802    2.488951    0.206793
     85          7           0       13.803037   -1.590932    0.368460
     86          6           0       12.833908   -2.587946    0.509586
     87          6           0       13.501416   -3.930100    0.534679
     88          6           0       14.971887   -3.565142    0.848196
     89          6           0       15.003843   -2.086041    0.384269
     90          6           0       15.436933   -3.658448    2.335749
     91          6           0       13.347298   -4.799232   -0.769856
     92          6           0       12.956304   -6.221634   -0.523476
     93          1           0       13.727042   -7.294083   -1.315816
     94          7           0       15.422183    0.803488   -0.376351
     95          6           0       16.439859   -0.164933   -0.369971
     96          6           0       17.678096    0.433965   -0.673361
     97          6           0       17.456716    1.872767   -0.903935
     98          6           0       16.049682    2.028926   -0.668528
     99          6           0       19.016462   -0.243126   -0.621922
    100          6           0       18.445879    3.076841   -1.221191
    101          8           0       18.025188    4.196033   -1.394764
    102          6           0       19.935987    2.836179   -1.416713
    103          7           0       13.030659    2.596684   -0.100710
    104          6           0       13.996135    3.521085   -0.341208
    105          6           0       13.377654    4.998325   -0.266357
    106          6           0       11.809717    4.727773   -0.288476
    107          6           0       11.793566    3.159526   -0.039593
    108          6           0       13.798548    5.860293    0.955927
    109          6           0       11.103522    5.134362   -1.630722
    110          6           0        9.956666    6.022345   -1.385977
    111          7           0       11.452506    0.187053    0.361173
    112          6           0       10.388008    1.086976    0.342114
    113          6           0        9.156286    0.391715    0.599268
    114          6           0        9.531953   -0.929555    0.731524
    115          6           0       10.876988   -1.024446    0.559923
    116          6           0        7.778984    1.104855    0.594257
    117          6           0        9.049147   -2.270179    1.007482
    118          8           0        7.934511   -2.607656    1.340605
    119          6           0       10.321266   -3.253594    0.952094
    120          6           0       10.465813   -3.922283    2.258167
    121          8           0       10.613674   -3.321316    3.354559
    122          8           0       10.370468   -5.269181    2.064275
    123          6           0       10.115362   -6.049890    3.303805
    124          1           0       17.054526   -2.148624    0.154620
    125          1           0       15.841454    4.206409   -0.819465
    126          1           0        9.749431    3.133615    0.371071
    127          1           0       13.211440   -4.554214    1.380825
    128          1           0       15.696281   -4.171279    0.303910
    129          1           0       14.957214   -4.459459    2.899720
    130          1           0       15.239505   -2.687048    2.789813
    131          1           0       16.512227   -3.741494    2.491619
    132          1           0       14.306026   -4.710972   -1.280531
    133          1           0       12.643894   -4.349043   -1.470931
    134          1           0       11.896400   -6.191439   -0.776541
    135          1           0       13.157546   -6.480708    0.515905
    136          1           0       19.476663   -0.454387   -1.587411
    137          1           0       18.897175   -1.235268   -0.188443
    138          1           0       19.813159    0.227846   -0.046734
    139          1           0       20.342483    3.786714   -1.759998
    140          1           0       20.123664    1.969504   -2.051227
    141          1           0       20.366416    2.432626   -0.499743
    142          1           0       13.743606    5.595826   -1.101485
    143          1           0       11.361170    5.249779    0.558068
    144          1           0       14.418910    5.369265    1.706410
    145          1           0       12.949000    6.255075    1.513723
    146          1           0       14.351579    6.712376    0.559795
    147          1           0       10.701901    4.233920   -2.096978
    148          1           0       11.740296    5.669101   -2.335173
    149          1           0       10.267317    7.049687   -1.577963
    150          1           0        9.432572    5.962163   -0.432796
    151          1           0        9.139734    5.747502   -2.053289
    152          1           0        7.882588    2.068760    0.095435
    153          1           0        7.335238    1.125869    1.590673
    154          1           0        7.164069    0.485866   -0.058007
    155          1           0       10.218764   -3.999261    0.163287
    156          1           0        9.916662   -7.093174    3.059056
    157          1           0        9.165341   -5.671440    3.681703
    158          1           0       10.957474   -5.862977    3.970734
 ---------------------------------------------------------------------

 SCF Done:  E(RCAM-B3LYP) =  -4069.82026631     A.U. after   18 cycles

 Excitation energies and oscillator strengths:

 Excited State   1:      Singlet-A      1.6718 eV  741.64 nm  f=0.4302  <S**2>=0.000
     309 -> 315        0.15715
     312 -> 313        0.68814
 This state for optimization and/or second-order correction.
 Total Energy, E(TD-HF/TD-DFT) =  -4069.75883002
 Copying the excited state density for this state as the 1-particle RhoCI density.

 Excited State   2:      Singlet-A      1.7437 eV  711.03 nm  f=0.3806  <S**2>=0.000
     310 -> 316        0.17837
     311 -> 314        0.68425
     310 <- 316        0.10692

 Excited State   3:      Singlet-A      2.1911 eV  565.84 nm  f=0.1098  <S**2>=0.000
     309 -> 313        0.64445
     312 -> 315       -0.25719

 Excited State   4:      Singlet-A      2.2019 eV  563.09 nm  f=0.1728  <S**2>=0.000
     310 -> 314        0.65301
     311 -> 316       -0.24953

 Excited State   5:      Singlet-A      2.9862 eV  415.19 nm  f=0.0000  <S**2>=0.000
     311 -> 313        0.70706

 The electronic state is 1-A.
 Alpha  occ. eigenvalues --  -46.87877 -46.87158 -19.25636 -19.22120 -19.19867
 Alpha  occ. eigenvalues --  -19.19537 -19.19492 -19.19009 -19.18811 -19.17898
 Alpha  occ. eigenvalues --  -14.42510 -14.42039 -14.41946 -14.41481 -14.40221
 Alpha  occ. eigenvalues --  -14.39266 -14.38531 -14.38531 -10.39407 -10.38058
 Alpha  occ. eigenvalues --  -10.36322 -10.35288 -10.35011 -10.34150 -10.32157
 Alpha  occ. eigenvalues --  -10.31778 -10.31235 -10.31026 -10.30998 -10.30980
 Alpha  occ. eigenvalues --  -10.30709 -10.30607 -10.30598 -10.30596 -10.30571
 Alpha  occ. eigenvalues --  -10.30418 -10.30417 -10.30231 -10.29896 -10.29471
 Alpha  occ. eigenvalues --  -10.29239 -10.29191 -10.29076 -10.28918 -10.28636
 Alpha  occ. eigenvalues --  -10.28508 -10.28203 -10.28202 -10.28109 -10.28038
 Alpha  occ. eigenvalues --  -10.27878 -10.27841 -10.27814 -10.27742 -10.27734
 Alpha  occ. eigenvalues --  -10.27701 -10.27662 -10.27625 -10.27594 -10.27560
 Alpha  occ. eigenvalues --  -10.27412 -10.27386 -10.27261 -10.27199 -10.27108
 Alpha  occ. eigenvalues --  -10.26927 -10.26709 -10.26487 -10.26472 -10.26441
 Alpha  occ. eigenvalues --  -10.26440 -10.26417 -10.26331 -10.26136 -10.26095
 Alpha  occ. eigenvalues --  -10.26067 -10.25927 -10.25833 -10.25774 -10.25771
 Alpha  occ. eigenvalues --  -10.25693 -10.25324 -10.25275 -10.24640 -10.24437
 Alpha  occ. eigenvalues --  -10.24331  -3.16638  -3.15886  -1.91508  -1.91104
 Alpha  occ. eigenvalues --   -1.90956  -1.90791  -1.90330  -1.90211  -1.16728
 Alpha  occ. eigenvalues --   -1.15734  -1.11689  -1.10295  -1.09517  -1.08063
 Alpha  occ. eigenvalues --   -1.07668  -1.06312  -1.04919  -1.04583  -1.03384
 Alpha  occ. eigenvalues --   -1.03320  -1.02532  -1.02015  -1.01405  -1.00576
 Alpha  occ. eigenvalues --   -0.92556  -0.92539  -0.89182  -0.89138  -0.88643
 Alpha  occ. eigenvalues --   -0.88570  -0.88451  -0.88010  -0.87300  -0.87153
 Alpha  occ. eigenvalues --   -0.87008  -0.86628  -0.86394  -0.85803  -0.84289
 Alpha  occ. eigenvalues --   -0.84176  -0.83812  -0.83416  -0.82885  -0.82359
 Alpha  occ. eigenvalues --   -0.82091  -0.81848  -0.81171  -0.80818  -0.80642
 Alpha  occ. eigenvalues --   -0.80177  -0.78731  -0.78213  -0.77357  -0.77299
 Alpha  occ. eigenvalues --   -0.76755  -0.76645  -0.75714  -0.75213  -0.75187
 Alpha  occ. eigenvalues --   -0.74864  -0.73018  -0.72860  -0.71642  -0.70908
 Alpha  occ. eigenvalues --   -0.69282  -0.68644  -0.68587  -0.68099  -0.67894
 Alpha  occ. eigenvalues --   -0.67565  -0.67503  -0.66522  -0.65624  -0.65493
 Alpha  occ. eigenvalues --   -0.65254  -0.65161  -0.64949  -0.64549  -0.64020
 Alpha  occ. eigenvalues --   -0.63839  -0.61922  -0.60810  -0.60299  -0.60142
 Alpha  occ. eigenvalues --   -0.60096  -0.59353  -0.59227  -0.58951  -0.58412
 Alpha  occ. eigenvalues --   -0.58246  -0.58187  -0.57666  -0.57648  -0.57599
 Alpha  occ. eigenvalues --   -0.56458  -0.56140  -0.55659  -0.55528  -0.55483
 Alpha  occ. eigenvalues --   -0.55240  -0.54971  -0.53880  -0.53825  -0.53580
 Alpha  occ. eigenvalues --   -0.53536  -0.53411  -0.53219  -0.52948  -0.52623
 Alpha  occ. eigenvalues --   -0.52602  -0.52560  -0.52237  -0.52106  -0.51868
 Alpha  occ. eigenvalues --   -0.51800  -0.51555  -0.51536  -0.51316  -0.51139
 Alpha  occ. eigenvalues --   -0.51007  -0.50873  -0.50705  -0.50510  -0.50441
 Alpha  occ. eigenvalues --   -0.50087  -0.50082  -0.49956  -0.49783  -0.49741
 Alpha  occ. eigenvalues --   -0.49578  -0.49431  -0.49391  -0.49089  -0.48922
 Alpha  occ. eigenvalues --   -0.48692  -0.48541  -0.48486  -0.48030  -0.47973
 Alpha  occ. eigenvalues --   -0.47927  -0.47658  -0.47237  -0.47235  -0.46904
 Alpha  occ. eigenvalues --   -0.46782  -0.46766  -0.46625  -0.46440  -0.46435
 Alpha  occ. eigenvalues --   -0.46126  -0.46093  -0.45946  -0.45825  -0.45749
 Alpha  occ. eigenvalues --   -0.45385  -0.45355  -0.45226  -0.45060  -0.44926
 Alpha  occ. eigenvalues --   -0.44721  -0.44653  -0.44588  -0.44435  -0.44313
 Alpha  occ. eigenvalues --   -0.44110  -0.43617  -0.43469  -0.43377  -0.43338
 Alpha  occ. eigenvalues --   -0.43285  -0.43014  -0.42895  -0.42860  -0.42850
 Alpha  occ. eigenvalues --   -0.42593  -0.42464  -0.42260  -0.41935  -0.41918
 Alpha  occ. eigenvalues --   -0.41858  -0.41603  -0.41370  -0.41203  -0.41129
 Alpha  occ. eigenvalues --   -0.40973  -0.40927  -0.40586  -0.40465  -0.40086
 Alpha  occ. eigenvalues --   -0.40051  -0.39840  -0.39134  -0.39014  -0.38818
 Alpha  occ. eigenvalues --   -0.38658  -0.38333  -0.37821  -0.37810  -0.37766
 Alpha  occ. eigenvalues --   -0.37636  -0.37024  -0.36734  -0.36308  -0.36071
 Alpha  occ. eigenvalues --   -0.35967  -0.34871  -0.34407  -0.34224  -0.34118
 Alpha  occ. eigenvalues --   -0.34035  -0.33135  -0.33133  -0.31743  -0.31502
 Alpha  occ. eigenvalues --   -0.31384  -0.31249  -0.30830  -0.29979  -0.29961
 Alpha  occ. eigenvalues --   -0.29727  -0.29539  -0.29222  -0.24328  -0.23947
 Alpha  occ. eigenvalues --   -0.21506  -0.21414
 Alpha virt. eigenvalues --   -0.09235  -0.08989  -0.02125  -0.01247  -0.00188
 Alpha virt. eigenvalues --    0.00762   0.01997   0.02470   0.02817   0.03476
 Alpha virt. eigenvalues --    0.04532   0.05174   0.05404   0.05437   0.06153

 Mulliken charges:
               1
     1  Mg  12.003373
     2  C    5.985766
     3  C    6.017410
     4  C    6.021906
     5  C    5.988284
     6  N    6.994896
     7  C    6.027383
     8  C    5.986780
     9  C    6.009574
    10  C    5.972035
    11  C    6.001552
    12  C    5.998717
    13  C    5.996303
    14  H    1.009038
    15  N    7.005317
    16  C    5.958160
    17  C    5.971472
    18  C    5.985926
    19  C    5.963890
    20  C    6.003873
    21  C    5.989026
    22  O    7.970036
    23  C    6.007334
    24  N    7.001929
    25  C    5.960821
    26  C    6.016028
    27  C    5.986334
    28  C    6.032413
    29  C    6.003014
    30  C    5.993631
    31  C    6.000672
    32  N    6.998020
    33  C    6.042290
    34  C    6.028297
    35  C    6.006541
    36  C    6.029104
    37  C    5.997892
    38  C    6.015689
    39  O    8.034478
    40  C    5.999919
    41  C    6.000720
    42  O    8.008126
    43  O    7.999510
    44  C    5.997425
    45  H    0.991738
    46  H    0.993305
    47  H    1.010231
    48  H    1.003070
    49  H    0.999722
    50  H    1.002901
    51  H    0.999669
    52  H    0.986203
    53  H    1.010112
    54  H    0.997027
    55  H    0.996876
    56  H    0.997825
    57  H    0.978665
    58  H    0.984293
    59  H    0.978895
    60  H    0.985542
    61  H    0.989567
    62  H    0.991918
    63  H    0.995941
    64  H    1.003319
    65  H    0.987858
    66  H    1.001073
    67  H    1.001148
    68  H    1.000476
    69  H    1.012285
    70  H    0.994395
    71  H    1.005338
    72  H    1.000026
    73  H    1.019709
    74  H    1.020055
    75  H    1.014625
    76  H    1.011630
    77  H    1.002241
    78  H    1.006459
    79  H    1.004959
    80  Mg  11.999988
    81  C    6.001041
    82  C    5.999981
    83  C    5.999030
    84  C    6.000009
    85  N    7.000553
    86  C    5.998746
    87  C    6.000387
    88  C    5.999748
    89  C    6.000764
    90  C    5.999811
    91  C    6.000149
    92  C    6.000024
    93  H    0.999873
    94  N    6.999784
    95  C    6.001095
    96  C    6.000758
    97  C    6.000613
    98  C    6.001138
    99  C    5.999700
   100  C    6.000484
   101  O    8.000902
   102  C    5.999906
   103  N    6.999560
   104  C    6.001246
   105  C    5.999710
   106  C    6.000207
   107  C    5.999353
   108  C    5.999911
   109  C    6.000167
   110  C    6.000118
   111  N    7.000111
   112  C    5.998892
   113  C    5.998803
   114  C    6.000037
   115  C    5.998796
   116  C    6.000089
   117  C    5.999329
   118  O    7.998791
   119  C    5.999822
   120  C    5.999884
   121  O    8.000048
   122  O    7.999861
   123  C    6.000025
   124  H    1.000671
   125  H    1.000238
   126  H    0.999439
   127  H    0.999970
   128  H    1.000134
   129  H    1.000594
   130  H    1.000150
   131  H    1.000114
   132  H    0.999599
   133  H    0.999921
   134  H    0.999965
   135  H    1.000068
   136  H    1.000857
   137  H    1.000661
   138  H    1.000875
   139  H    1.000593
   140  H    1.000165
   141  H    1.000317
   142  H    0.999984
   143  H    1.000000
   144  H    1.000036
   145  H    1.000392
   146  H    1.000085
   147  H    0.999893
   148  H    0.999634
   149  H    0.999899
   150  H    1.000073
   151  H    0.999633
   152  H    0.999302
   153  H    0.999289
   154  H    0.998839
   155  H    0.999568
   156  H    0.999833
   157  H    0.999951
   158  H    1.000013
 Sum of Mulliken charges = 624.00000

 Dipole moment (field-independent basis, Debye):
    X=              7.8552    Y=             -2.3319    Z=             -8.2803  Tot=             11.6492
 Quadrupole moment (field-independent basis, Debye-Ang):
   XX=           -187.4785   YY=             -0.3492   ZZ=             -1.9603
   XY=             36.7715   XZ=            110.9577   YZ=             -4.8369

 Normal termination of Gaussian 16 at Thu Sep 23 08:03:57 2021.
