 Gaussian 16, Revision A.03,
 Gaussian 16:  ES64L-G16RevA.03 25-Dec-2016

 -----------------------------------
 #p cam-b3lyp/Def2SVP td=(nstates=5)
 -----------------------------------

 --------------------------------
 TDDFT excited states in gaussian
 --------------------------------
 Symbolic Z-matrix:
 Charge =  0 Multiplicity = 1

                         Standard orientation:
 ---------------------------------------------------------------------
 Center     Atomic      Atomic             Coordinates (Angstroms)
 Number     Number       Type             X           Y           Z
 ---------------------------------------------------------------------
      1         12           0      -27.224288    0.758182    0.370781
      2          6           0      -28.012096   -1.941380   -1.782294
      3          6           0      -24.922949   -1.413149    1.856634
      4          6           0      -26.291491    3.184348    2.376558
      5          6           0      -30.084870    2.416522   -0.704815
      6          7           0      -26.560078   -1.399113    0.015920
      7          6           0      -26.904167   -2.246436   -0.993426
      8          6           0      -26.217846   -3.623100   -0.980812
      9          6           0      -25.305907   -3.401967    0.330004
     10          6           0      -25.645756   -2.000058    0.741517
     11          6           0      -25.618121   -4.398251    1.515797
     12          6           0      -25.375966   -3.898865   -2.269150
     13          6           0      -25.719405   -4.950024   -3.317435
     14          1           0      -24.629760   -5.727022   -4.044377
     15          7           0      -25.750941    0.925652    1.867527
     16          6           0      -24.948880   -0.099626    2.389132
     17          6           0      -24.221525    0.450401    3.511180
     18          6           0      -24.474991    1.817869    3.584742
     19          6           0      -25.500580    2.042551    2.547425
     20          6           0      -23.214519   -0.409848    4.195194
     21          6           0      -23.972924    2.889983    4.551275
     22          8           0      -24.311424    4.077060    4.520731
     23          6           0      -22.903675    2.496881    5.492891
     24          7           0      -28.099183    2.516886    0.880514
     25          6           0      -27.433907    3.484794    1.580738
     26          6           0      -28.096832    4.888373    1.371202
     27          6           0      -29.305221    4.569083    0.500623
     28          6           0      -29.215826    3.038043    0.249919
     29          6           0      -28.395269    5.644863    2.706810
     30          6           0      -29.251051    5.407288   -0.785697
     31          6           0      -30.500083    6.057682   -1.258489
     32          7           0      -28.820871    0.336386   -0.883206
     33          6           0      -29.895001    1.106084   -1.252144
     34          6           0      -30.711779    0.434732   -2.218503
     35          6           0      -29.975142   -0.794897   -2.588677
     36          6           0      -28.813691   -0.772979   -1.720155
     37          6           0      -32.046558    0.950191   -2.783311
     38          6           0      -29.930906   -2.017160   -3.430306
     39          8           0      -30.646196   -2.358129   -4.387628
     40          6           0      -28.643033   -2.789109   -2.925318
     41          6           0      -29.267910   -4.079534   -2.495557
     42          8           0      -29.768550   -4.361616   -1.413632
     43          8           0      -29.115826   -4.995891   -3.412085
     44          6           0      -29.799779   -6.303697   -3.265623
     45          1           0      -24.149510   -2.138501    2.116357
     46          1           0      -26.115112    4.055418    3.010538
     47          1           0      -30.938415    2.983191   -1.081738
     48          1           0      -26.986105   -4.372629   -0.786761
     49          1           0      -24.221947   -3.402045    0.211302
     50          1           0      -26.556622   -4.949807    1.467276
     51          1           0      -25.650394   -3.852366    2.458051
     52          1           0      -24.806404   -5.123500    1.575488
     53          1           0      -24.377955   -4.174022   -1.927642
     54          1           0      -25.301534   -2.994055   -2.871032
     55          1           0      -26.140050   -4.315495   -4.097656
     56          1           0      -26.421078   -5.581172   -2.771990
     57          1           0      -22.207329   -0.004527    4.108677
     58          1           0      -23.203048   -1.414286    3.771269
     59          1           0      -23.395537   -0.518359    5.264137
     60          1           0      -22.105213    1.994613    4.946587
     61          1           0      -23.218630    1.706997    6.174941
     62          1           0      -22.431326    3.330550    6.011510
     63          1           0      -27.309590    5.421738    0.838657
     64          1           0      -30.231973    4.873898    0.986466
     65          1           0      -27.962227    5.179006    3.591874
     66          1           0      -29.457297    5.745541    2.927471
     67          1           0      -28.116364    6.693563    2.605192
     68          1           0      -28.919882    4.678155   -1.524052
     69          1           0      -28.558514    6.247995   -0.752595
     70          1           0      -30.621315    5.702886   -2.281706
     71          1           0      -30.436890    7.137601   -1.125125
     72          1           0      -31.411089    5.714602   -0.767641
     73          1           0      -32.860522    0.580329   -2.160890
     74          1           0      -32.133205    0.610692   -3.815349
     75          1           0      -32.116012    2.037643   -2.748629
     76          1           0      -28.006352   -2.936231   -3.797535
     77          1           0      -29.504338   -6.861794   -2.377848
     78          1           0      -29.693292   -6.961595   -4.127914
     79          1           0      -30.887480   -6.285248   -3.204554
     80         12           0       28.180702   -0.256650   -0.499882
     81          6           0       25.018440   -0.657990    1.147308
     82          6           0       26.593093    2.393582   -2.293103
     83          6           0       31.154860    1.003943   -1.424086
     84          6           0       29.583298   -2.311049    1.847133
     85          7           0       26.084724    0.725866   -0.503400
     86          6           0       24.976040    0.385042    0.215029
     87          6           0       23.746884    1.291808   -0.142020
     88          6           0       24.241001    1.946411   -1.519749
     89          6           0       25.741684    1.740582   -1.388645
     90          6           0       23.720674    1.266607   -2.765456
     91          6           0       23.324919    2.212420    0.991138
     92          6           0       21.807391    2.337105    1.285390
     93          1           0       20.969333    3.594471    0.761416
     94          7           0       28.828528    1.448720   -1.810602
     95          6           0       27.981300    2.336045   -2.506594
     96          6           0       28.807738    3.224775   -3.332588
     97          6           0       30.169978    2.779214   -3.110029
     98          6           0       30.117898    1.794025   -2.051343
     99          6           0       28.343536    4.356298   -4.170200
    100          6           0       31.377149    3.272552   -3.867543
    101          8           0       31.195330    3.980048   -4.832748
    102          6           0       32.806211    2.932999   -3.511821
    103          7           0       30.007465   -0.544340    0.222939
    104          6           0       31.098175   -0.010821   -0.457867
    105          6           0       32.363532   -0.534476    0.225471
    106          6           0       31.853313   -1.734487    1.104442
    107          6           0       30.376088   -1.547247    1.019471
    108          6           0       33.614694   -0.856619   -0.671531
    109          6           0       32.409669   -1.871443    2.554951
    110          6           0       33.042421   -3.167906    2.943253
    111          7           0       27.498365   -1.377870    1.074262
    112          6           0       28.172148   -2.245221    1.916351
    113          6           0       27.221790   -3.040157    2.717944
    114          6           0       25.965432   -2.365550    2.461788
    115          6           0       26.221854   -1.391663    1.491816
    116          6           0       27.465205   -4.194378    3.654252
    117          6           0       24.514944   -2.391169    2.813125
    118          8           0       23.921836   -3.038544    3.628221
    119          6           0       23.914947   -1.213202    2.052349
    120          6           0       22.768595   -1.731725    1.236422
    121          8           0       22.998049   -2.502674    0.329435
    122          8           0       21.485536   -1.185664    1.540755
    123          6           0       20.373300   -1.534465    0.605579
    124          1           0       26.132946    3.176788   -2.899425
    125          1           0       32.190487    1.278207   -1.631802
    126          1           0       30.050148   -3.098556    2.441898
    127          1           0       22.887901    0.702246   -0.461149
    128          1           0       24.073756    3.023376   -1.531391
    129          1           0       24.329667    0.382699   -2.953615
    130          1           0       23.751053    2.003584   -3.567858
    131          1           0       22.703909    0.872434   -2.764263
    132          1           0       23.653379    3.210637    0.703342
    133          1           0       23.942109    1.976752    1.858067
    134          1           0       21.768471    2.315240    2.374741
    135          1           0       21.227819    1.482242    0.936741
    136          1           0       28.284114    3.974420   -5.188937
    137          1           0       29.124864    5.115379   -4.209154
    138          1           0       27.413477    4.873282   -3.930916
    139          1           0       33.567760    3.459451   -4.086805
    140          1           0       32.910359    1.867695   -3.718054
    141          1           0       33.133293    3.017299   -2.476138
    142          1           0       32.686365    0.345580    0.782448
    143          1           0       31.983743   -2.651569    0.530719
    144          1           0       33.316371   -0.998978   -1.710550
    145          1           0       34.159103   -1.712690   -0.273371
    146          1           0       34.335913   -0.041513   -0.616161
    147          1           0       31.604972   -1.660887    3.259311
    148          1           0       33.088804   -1.034146    2.715056
    149          1           0       32.371098   -3.705021    3.612950
    150          1           0       33.967709   -2.974323    3.485732
    151          1           0       33.291732   -3.867006    2.145296
    152          1           0       26.558105   -4.781585    3.795807
    153          1           0       27.809962   -3.760664    4.593359
    154          1           0       28.315873   -4.758551    3.271492
    155          1           0       23.678091   -0.440437    2.783829
    156          1           0       20.015917   -2.538388    0.835376
    157          1           0       20.727677   -1.569262   -0.424400
    158          1           0       19.569697   -0.801061    0.669385
 ---------------------------------------------------------------------

 SCF Done:  E(RCAM-B3LYP) =  -4069.80429284     A.U. after   17 cycles

 Excitation energies and oscillator strengths:

 Excited State   1:      Singlet-A      1.6714 eV  741.79 nm  f=0.3984  <S**2>=0.000
     309 -> 316       -0.16934
     312 -> 313        0.68867
     309 <- 316       -0.10660
 This state for optimization and/or second-order correction.
 Total Energy, E(TD-HF/TD-DFT) =  -4069.74286962
 Copying the excited state density for this state as the 1-particle RhoCI density.

 Excited State   2:      Singlet-A      1.7572 eV  705.57 nm  f=0.3818  <S**2>=0.000
     310 -> 315       -0.18343
     311 -> 314        0.68375
     310 <- 315       -0.10474

 Excited State   3:      Singlet-A      2.2202 eV  558.43 nm  f=0.1061  <S**2>=0.000
     310 -> 314        0.63626
     311 -> 315        0.29385

 Excited State   4:      Singlet-A      2.2361 eV  554.48 nm  f=0.1279  <S**2>=0.000
     309 -> 313        0.64117
     312 -> 316        0.28144

 Excited State   5:      Singlet-A      3.1438 eV  394.37 nm  f=0.0000  <S**2>=0.000
     311 -> 313        0.70711

 The electronic state is 1-A.
 Alpha  occ. eigenvalues --  -46.89346 -46.88526 -19.25304 -19.25281 -19.20751
 Alpha  occ. eigenvalues --  -19.19748 -19.19582 -19.18872 -19.18187 -19.18004
 Alpha  occ. eigenvalues --  -14.42781 -14.42583 -14.41903 -14.41736 -14.39823
 Alpha  occ. eigenvalues --  -14.39358 -14.39178 -14.38985 -10.40243 -10.38646
 Alpha  occ. eigenvalues --  -10.35975 -10.35441 -10.35430 -10.34532 -10.32292
 Alpha  occ. eigenvalues --  -10.31944 -10.31635 -10.31407 -10.31404 -10.31317
 Alpha  occ. eigenvalues --  -10.31111 -10.30912 -10.30743 -10.30717 -10.30535
 Alpha  occ. eigenvalues --  -10.30524 -10.30302 -10.30254 -10.29510 -10.29427
 Alpha  occ. eigenvalues --  -10.29247 -10.29124 -10.29035 -10.28859 -10.28857
 Alpha  occ. eigenvalues --  -10.28767 -10.28734 -10.28684 -10.28659 -10.28622
 Alpha  occ. eigenvalues --  -10.28577 -10.28398 -10.28079 -10.28037 -10.28029
 Alpha  occ. eigenvalues --  -10.28014 -10.27951 -10.27878 -10.27815 -10.27710
 Alpha  occ. eigenvalues --  -10.27621 -10.27519 -10.27242 -10.27058 -10.27032
 Alpha  occ. eigenvalues --  -10.26982 -10.26940 -10.26587 -10.26544 -10.26542
 Alpha  occ. eigenvalues --  -10.26522 -10.26514 -10.26499 -10.26405 -10.26334
 Alpha  occ. eigenvalues --  -10.26071 -10.25911 -10.25854 -10.25824 -10.25753
 Alpha  occ. eigenvalues --  -10.25689 -10.25641 -10.25553 -10.25392 -10.25224
 Alpha  occ. eigenvalues --  -10.24861  -3.17915  -3.17123  -1.92763  -1.92376
 Alpha  occ. eigenvalues --   -1.92222  -1.92024  -1.91580  -1.91427  -1.17796
 Alpha  occ. eigenvalues --   -1.15391  -1.11748  -1.10234  -1.10084  -1.08388
 Alpha  occ. eigenvalues --   -1.07891  -1.06487  -1.05474  -1.04616  -1.04008
 Alpha  occ. eigenvalues --   -1.03599  -1.02798  -1.02778  -1.01533  -1.01360
 Alpha  occ. eigenvalues --   -0.92777  -0.91845  -0.89577  -0.89429  -0.89043
 Alpha  occ. eigenvalues --   -0.88908  -0.88792  -0.88478  -0.87718  -0.87637
 Alpha  occ. eigenvalues --   -0.86759  -0.86251  -0.85671  -0.85110  -0.84515
 Alpha  occ. eigenvalues --   -0.84339  -0.83981  -0.83480  -0.82876  -0.82697
 Alpha  occ. eigenvalues --   -0.82516  -0.81864  -0.80829  -0.80578  -0.80517
 Alpha  occ. eigenvalues --   -0.80226  -0.78776  -0.78186  -0.77510  -0.77497
 Alpha  occ. eigenvalues --   -0.76874  -0.76821  -0.76372  -0.76191  -0.75246
 Alpha  occ. eigenvalues --   -0.75159  -0.72668  -0.72228  -0.71816  -0.71803
 Alpha  occ. eigenvalues --   -0.69571  -0.69226  -0.68959  -0.68202  -0.67945
 Alpha  occ. eigenvalues --   -0.67612  -0.66929  -0.66735  -0.65966  -0.65872
 Alpha  occ. eigenvalues --   -0.65283  -0.65118  -0.64865  -0.64563  -0.64340
 Alpha  occ. eigenvalues --   -0.64202  -0.62403  -0.62348  -0.60948  -0.59818
 Alpha  occ. eigenvalues --   -0.59578  -0.59511  -0.59214  -0.59090  -0.58983
 Alpha  occ. eigenvalues --   -0.58497  -0.58350  -0.57849  -0.57669  -0.57641
 Alpha  occ. eigenvalues --   -0.56699  -0.56559  -0.55684  -0.55640  -0.55457
 Alpha  occ. eigenvalues --   -0.54973  -0.54351  -0.54308  -0.54180  -0.53890
 Alpha  occ. eigenvalues --   -0.53840  -0.53556  -0.53388  -0.53104  -0.52980
 Alpha  occ. eigenvalues --   -0.52920  -0.52641  -0.52565  -0.52264  -0.52139
 Alpha  occ. eigenvalues --   -0.51857  -0.51746  -0.51422  -0.51337  -0.51123
 Alpha  occ. eigenvalues --   -0.50948  -0.50579  -0.50457  -0.50448  -0.50026
 Alpha  occ. eigenvalues --   -0.49961  -0.49894  -0.49883  -0.49763  -0.49741
 Alpha  occ. eigenvalues --   -0.49413  -0.49324  -0.49133  -0.49062  -0.48728
 Alpha  occ. eigenvalues --   -0.48710  -0.48617  -0.48498  -0.48210  -0.48190
 Alpha  occ. eigenvalues --   -0.48033  -0.47807  -0.47711  -0.47432  -0.47107
 Alpha  occ. eigenvalues --   -0.46998  -0.46632  -0.46443  -0.46405  -0.46319
 Alpha  occ. eigenvalues --   -0.46204  -0.46088  -0.46077  -0.45995  -0.45849
 Alpha  occ. eigenvalues --   -0.45837  -0.45581  -0.45450  -0.45273  -0.45171
 Alpha  occ. eigenvalues --   -0.45027  -0.44982  -0.44683  -0.44656  -0.44358
 Alpha  occ. eigenvalues --   -0.44258  -0.44019  -0.43796  -0.43638  -0.43470
 Alpha  occ. eigenvalues --   -0.43328  -0.43195  -0.43060  -0.42921  -0.42812
 Alpha  occ. eigenvalues --   -0.42662  -0.42572  -0.42452  -0.42419  -0.41940
 Alpha  occ. eigenvalues --   -0.41903  -0.41645  -0.41572  -0.41408  -0.41234
 Alpha  occ. eigenvalues --   -0.41143  -0.40853  -0.40828  -0.40595  -0.40421
 Alpha  occ. eigenvalues --   -0.40286  -0.40071  -0.39843  -0.39513  -0.39310
 Alpha  occ. eigenvalues --   -0.38492  -0.38443  -0.37923  -0.37723  -0.37363
 Alpha  occ. eigenvalues --   -0.37239  -0.37181  -0.36628  -0.36531  -0.36382
 Alpha  occ. eigenvalues --   -0.35847  -0.35845  -0.35070  -0.34452  -0.34422
 Alpha  occ. eigenvalues --   -0.33443  -0.33206  -0.33091  -0.31920  -0.31782
 Alpha  occ. eigenvalues --   -0.31626  -0.31132  -0.30603  -0.30515  -0.30315
 Alpha  occ. eigenvalues --   -0.29696  -0.28762  -0.28716  -0.24330  -0.23916
 Alpha  occ. eigenvalues --   -0.21180  -0.21148
 Alpha virt. eigenvalues --   -0.09009  -0.08522  -0.01864  -0.01520  -0.00193
 Alpha virt. eigenvalues --    0.00445   0.01221   0.02074   0.02613   0.02694
 Alpha virt. eigenvalues --    0.04372   0.04378   0.05240   0.05580   0.05766

 Mulliken charges:
               1
     1  Mg   0.832131
     2  C    0.053303
     3  C   -0.082052
     4  C   -0.070459
     5  C   -0.080621
     6  N   -0.209664
     7  C   -0.071941
     8  C    0.011129
     9  C   -0.072289
    10  C   -0.024620
    11  C    0.046701
    12  C    0.028501
    13  C   -0.068377
    14  H    0.028046
    15  N   -0.362222
    16  C    0.170268
    17  C   -0.116441
    18  C   -0.038005
    19  C    0.148176
    20  C    0.098550
    21  C    0.036635
    22  O   -0.200899
    23  C    0.053970
    24  N   -0.348551
    25  C   -0.000975
    26  C   -0.010939
    27  C   -0.014550
    28  C    0.090626
    29  C    0.058948
    30  C    0.000417
    31  C    0.009594
    32  N   -0.370110
    33  C    0.134152
    34  C   -0.185254
    35  C   -0.007963
    36  C    0.094257
    37  C    0.119450
    38  C    0.044308
    39  O   -0.191185
    40  C   -0.048598
    41  C    0.168016
    42  O   -0.239948
    43  O   -0.279007
    44  C    0.189682
    45  H   -0.020170
    46  H   -0.008669
    47  H   -0.032243
    48  H    0.036461
    49  H    0.020263
    50  H    0.030114
    51  H    0.017485
    52  H    0.014712
    53  H    0.014810
    54  H    0.008457
    55  H    0.040745
    56  H    0.030054
    57  H    0.032433
    58  H    0.010820
    59  H    0.024889
    60  H    0.019490
    61  H    0.028245
    62  H    0.034460
    63  H    0.027672
    64  H    0.006917
    65  H    0.037048
    66  H    0.003338
    67  H    0.012702
    68  H    0.013021
    69  H    0.007185
    70  H    0.015199
    71  H    0.020893
    72  H    0.005611
    73  H    0.033372
    74  H    0.038392
    75  H    0.005112
    76  H    0.046516
    77  H    0.033298
    78  H    0.033836
    79  H    0.035341
    80  Mg   0.850167
    81  C   -0.068663
    82  C   -0.046550
    83  C   -0.070132
    84  C   -0.117760
    85  N   -0.248484
    86  C   -0.056148
    87  C   -0.029268
    88  C   -0.067525
    89  C    0.027847
    90  C    0.088689
    91  C    0.079534
    92  C   -0.054240
    93  H    0.008661
    94  N   -0.346051
    95  C    0.095283
    96  C   -0.125947
    97  C   -0.029124
    98  C    0.139831
    99  C    0.130525
   100  C   -0.009057
   101  O   -0.204438
   102  C    0.048532
   103  N   -0.372420
   104  C    0.069212
   105  C   -0.081042
   106  C    0.022205
   107  C    0.057893
   108  C    0.063536
   109  C    0.049691
   110  C    0.008706
   111  N   -0.354585
   112  C    0.126941
   113  C   -0.180998
   114  C   -0.063998
   115  C    0.147744
   116  C    0.135418
   117  C    0.053058
   118  O   -0.136309
   119  C    0.059732
   120  C    0.212859
   121  O   -0.206828
   122  O   -0.375231
   123  C    0.175421
   124  H   -0.030904
   125  H   -0.056676
   126  H   -0.037309
   127  H    0.003942
   128  H    0.001846
   129  H    0.021999
   130  H    0.020337
   131  H    0.014366
   132  H    0.012534
   133  H    0.016712
   134  H    0.032661
   135  H    0.027176
   136  H    0.030823
   137  H    0.030827
   138  H    0.014439
   139  H    0.024109
   140  H    0.029763
   141  H    0.037085
   142  H    0.024836
   143  H    0.007143
   144  H    0.023795
   145  H    0.015809
   146  H    0.009105
   147  H    0.014428
   148  H   -0.000371
   149  H    0.015705
   150  H    0.013745
   151  H    0.015196
   152  H    0.047878
   153  H    0.030560
   154  H    0.013048
   155  H    0.042041
   156  H    0.044645
   157  H    0.034779
   158  H    0.047245
 Sum of Mulliken charges =  -0.00000

 Dipole moment (field-independent basis, Debye):
    X=              6.1603    Y=             -0.8909    Z=              2.5283  Tot=              6.7183
 Quadrupole moment (field-independent basis, Debye-Ang):
   XX=           -622.4996   YY=           -507.3526   ZZ=           -543.3048
   XY=            -50.8350   XZ=            -27.2775   YZ=              2.7116

 Normal termination of Gaussian 16 at Thu Sep  2 21:53:38 2021.
