 Gaussian 16, Revision A.03,
 Gaussian 16:  ES64L-G16RevA.03 25-Dec-2016

 ----------------------------------------------------------
 #p cam-b3lyp/Def2SVP td=(nstates=5) density=(transition=1)
 ----------------------------------------------------------

 --------------------------------
 TDDFT excited states in gaussian
 --------------------------------
 Symbolic Z-matrix:
 Charge =  0 Multiplicity = 1

                         Standard orientation:
 ---------------------------------------------------------------------
 Center     Atomic      Atomic             Coordinates (Angstroms)
 Number     Number       Type             X           Y           Z
 ---------------------------------------------------------------------
      1         12           0      -13.862008   -0.586251    0.342694
      2          6           0      -13.753918    2.560094   -1.257011
      3          6           0      -13.036915    0.902021    3.306211
      4          6           0      -13.327666   -3.596822    1.575994
      5          6           0      -14.229203   -2.059915   -2.863445
      6          7           0      -13.559874    1.530541    0.946706
      7          6           0      -13.579991    2.578736    0.147298
      8          6           0      -13.667285    3.828794    1.004113
      9          6           0      -13.011203    3.378132    2.365815
     10          6           0      -13.193445    1.820821    2.225282
     11          6           0      -11.541663    3.929870    2.506481
     12          6           0      -15.130591    4.269337    1.265115
     13          6           0      -15.327825    5.789611    1.693801
     14          1           0      -14.141947    6.741619    1.871371
     15          7           0      -13.475437   -1.247434    2.199057
     16          6           0      -13.223008   -0.490614    3.371932
     17          6           0      -13.077842   -1.431171    4.507445
     18          6           0      -13.082066   -2.768391    3.970183
     19          6           0      -13.302736   -2.629303    2.514314
     20          6           0      -12.951313   -1.003121    5.926909
     21          6           0      -12.941761   -4.192570    4.635729
     22          8           0      -13.062817   -5.261164    4.021337
     23          6           0      -12.500042   -4.266996    6.068587
     24          7           0      -13.673679   -2.575545   -0.549442
     25          6           0      -13.506707   -3.648435    0.177319
     26          6           0      -13.531422   -4.946661   -0.579723
     27          6           0      -13.818277   -4.465115   -2.045374
     28          6           0      -14.015227   -2.932647   -1.817541
     29          6           0      -12.279470   -5.786732   -0.310642
     30          6           0      -15.048951   -5.088417   -2.691964
     31          6           0      -14.928631   -5.475544   -4.209484
     32          7           0      -14.053793    0.052650   -1.722175
     33          6           0      -14.241063   -0.680716   -2.910223
     34          6           0      -14.503684    0.229671   -3.971250
     35          6           0      -14.157102    1.514794   -3.444811
     36          6           0      -13.946882    1.362195   -2.097742
     37          6           0      -15.066618   -0.130659   -5.316133
     38          6           0      -14.081551    2.983132   -3.636432
     39          8           0      -14.243925    3.648509   -4.638113
     40          6           0      -13.564507    3.629217   -2.264198
     41          6           0      -14.112987    5.007556   -2.089705
     42          8           0      -15.265997    5.312373   -2.004133
     43          8           0      -13.091041    5.974260   -2.133979
     44          6           0      -13.459144    7.301510   -2.670967
     45          1           0      -12.589852    1.273614    4.231069
     46          1           0      -13.310030   -4.637362    1.904944
     47          1           0      -14.417118   -2.545037   -3.823626
     48          1           0      -13.204937    4.587098    0.372290
     49          1           0      -13.584022    3.732178    3.223581
     50          1           0      -11.266926    4.501609    1.620697
     51          1           0      -10.928590    3.030591    2.446589
     52          1           0      -11.379302    4.583907    3.363296
     53          1           0      -15.457998    3.631064    2.086812
     54          1           0      -15.700362    4.031892    0.366808
     55          1           0      -15.889420    5.736352    2.627715
     56          1           0      -16.014840    6.197280    0.951838
     57          1           0      -13.135656    0.038776    6.186279
     58          1           0      -11.946945   -1.161147    6.318813
     59          1           0      -13.705739   -1.598051    6.442295
     60          1           0      -13.315773   -4.207115    6.788914
     61          1           0      -11.823462   -3.411687    6.085912
     62          1           0      -11.932698   -5.192992    6.158023
     63          1           0      -14.410334   -5.432408   -0.156050
     64          1           0      -12.991135   -4.629267   -2.734924
     65          1           0      -11.410076   -5.200752   -0.010924
     66          1           0      -12.034238   -6.244554   -1.268140
     67          1           0      -12.440397   -6.550488    0.450519
     68          1           0      -15.909563   -4.423583   -2.620148
     69          1           0      -15.327450   -5.887483   -2.005081
     70          1           0      -13.997531   -5.109949   -4.642154
     71          1           0      -15.760799   -4.957609   -4.685829
     72          1           0      -15.012087   -6.525206   -4.493079
     73          1           0      -14.459046   -0.969543   -5.655931
     74          1           0      -15.005544    0.662501   -6.061521
     75          1           0      -16.086935   -0.498965   -5.204689
     76          1           0      -12.501911    3.847681   -2.365397
     77          1           0      -13.353400    8.027248   -1.864467
     78          1           0      -14.468503    7.316460   -3.083623
     79          1           0      -12.733414    7.500049   -3.459595
     80         12           0       13.208387   -0.581893   -0.503195
     81          6           0       15.260788    2.342526   -0.211597
     82          6           0       10.654712    1.157754    0.607638
     83          6           0       11.728987   -3.516706   -0.075781
     84          6           0       16.310958   -2.362750   -1.358381
     85          7           0       12.989682    1.527543    0.078813
     86          6           0       13.944742    2.560142    0.163341
     87          6           0       13.357143    3.929441    0.675088
     88          6           0       11.788556    3.452706    0.859173
     89          6           0       11.761722    1.972514    0.491322
     90          6           0       11.261587    3.672282    2.341922
     91          6           0       13.589232    5.165624   -0.261898
     92          6           0       12.697795    6.373336    0.001595
     93          1           0       13.439868    7.619505    0.518288
     94          7           0       11.390769   -1.092534    0.084123
     95          6           0       10.384556   -0.257317    0.509402
     96          6           0        9.163522   -0.973737    0.812160
     97          6           0        9.512350   -2.363948    0.585761
     98          6           0       10.938204   -2.348920    0.100254
     99          6           0        7.879560   -0.394634    1.181562
    100          6           0        8.665581   -3.617505    0.721609
    101          8           0        9.027644   -4.712171    0.392466
    102          6           0        7.335632   -3.408538    1.395787
    103          7           0       13.939195   -2.660355   -0.629875
    104          6           0       13.072433   -3.684748   -0.428771
    105          6           0       13.752448   -5.051365   -0.709928
    106          6           0       15.162978   -4.620430   -1.243065
    107          6           0       15.137699   -3.108791   -1.123491
    108          6           0       13.846536   -6.085976    0.462815
    109          6           0       15.507461   -5.049149   -2.713014
    110          6           0       15.905156   -6.536444   -2.839495
    111          7           0       15.328961   -0.190067   -0.727720
    112          6           0       16.399112   -0.952718   -1.135328
    113          6           0       17.527580   -0.120978   -1.275143
    114          6           0       17.192955    1.123592   -0.892241
    115          6           0       15.813593    1.073339   -0.526680
    116          6           0       18.833872   -0.653238   -1.849806
    117          6           0       17.606101    2.504896   -0.624683
    118          8           0       18.681813    3.035016   -0.731598
    119          6           0       16.325537    3.338417   -0.140629
    120          6           0       16.537271    3.678349    1.300197
    121          8           0       16.292328    3.069450    2.317194
    122          8           0       17.072431    4.951119    1.283280
    123          6           0       17.374147    5.572266    2.594916
    124          1           0        9.763938    1.637027    1.018779
    125          1           0       11.236891   -4.444312    0.226354
    126          1           0       17.108105   -3.014775   -1.722947
    127          1           0       13.741388    4.097748    1.681270
    128          1           0       11.172051    4.076456    0.211482
    129          1           0       10.262929    4.107549    2.308988
    130          1           0       11.869917    4.245465    3.041054
    131          1           0       11.076902    2.711784    2.822019
    132          1           0       13.451940    4.688504   -1.233137
    133          1           0       14.600312    5.562170   -0.357028
    134          1           0       11.943903    6.103638    0.740661
    135          1           0       12.297731    6.723702   -0.949471
    136          1           0        7.298395   -0.684675    0.306249
    137          1           0        7.964366    0.680140    1.342828
    138          1           0        7.370021   -0.795545    2.057536
    139          1           0        6.570615   -3.239806    0.638028
    140          1           0        7.397951   -2.826196    2.315535
    141          1           0        7.207136   -4.328816    1.964896
    142          1           0       13.280758   -5.416216   -1.622826
    143          1           0       15.920767   -4.917737   -0.517836
    144          1           0       14.849564   -6.408849    0.743222
    145          1           0       13.408024   -7.002293    0.068258
    146          1           0       13.366796   -5.782754    1.393403
    147          1           0       16.355036   -4.464364   -3.068668
    148          1           0       14.624967   -4.781264   -3.295663
    149          1           0       16.241627   -6.923548   -1.877510
    150          1           0       16.672073   -6.573197   -3.613089
    151          1           0       15.082336   -7.197195   -3.114033
    152          1           0       19.410460    0.142678   -2.321277
    153          1           0       18.606458   -1.457687   -2.549340
    154          1           0       19.410554   -1.159198   -1.075187
    155          1           0       16.164723    4.224379   -0.755346
    156          1           0       18.320007    6.096037    2.457227
    157          1           0       17.463497    4.863186    3.417778
    158          1           0       16.516314    6.241041    2.671904
 ---------------------------------------------------------------------

 SCF Done:  E(RCAM-B3LYP) =  -4069.80845139     A.U. after   19 cycles

 Excitation energies and oscillator strengths:

 Excited State   1:      Singlet-A      1.6972 eV  730.51 nm  f=0.3987  <S**2>=0.000
     310 -> 316        0.17770
     312 -> 313        0.68633
     310 <- 316        0.10763
 This state for optimization and/or second-order correction.
 Total Energy, E(TD-HF/TD-DFT) =  -4069.74607922
 Copying the excited state density for this state as the 1-particle RhoCI density.

 Excited State   2:      Singlet-A      1.7949 eV  690.77 nm  f=0.3727  <S**2>=0.000
     309 -> 315        0.18889
     311 -> 314        0.68026
     309 <- 315        0.10307

 Excited State   3:      Singlet-A      2.1694 eV  571.52 nm  f=0.0956  <S**2>=0.000
     309 -> 314        0.64301
     311 -> 315       -0.27295

 Excited State   4:      Singlet-A      2.2113 eV  560.68 nm  f=0.1398  <S**2>=0.000
     310 -> 313        0.65073
     312 -> 316       -0.26500

 Excited State   5:      Singlet-A      3.0403 eV  407.80 nm  f=0.0000  <S**2>=0.000
     312 -> 314        0.70709

 The electronic state is 1-A.
 Alpha  occ. eigenvalues --  -46.88587 -46.88585 -19.23857 -19.23315 -19.20349
 Alpha  occ. eigenvalues --  -19.19938 -19.19623 -19.19125 -19.18970 -19.18412
 Alpha  occ. eigenvalues --  -14.42206 -14.42014 -14.41785 -14.41337 -14.39789
 Alpha  occ. eigenvalues --  -14.39644 -14.38865 -14.38050 -10.38990 -10.38595
 Alpha  occ. eigenvalues --  -10.36840 -10.35283 -10.34859 -10.34792 -10.32261
 Alpha  occ. eigenvalues --  -10.31595 -10.31219 -10.30932 -10.30929 -10.30881
 Alpha  occ. eigenvalues --  -10.30860 -10.30680 -10.30655 -10.30384 -10.30205
 Alpha  occ. eigenvalues --  -10.30143 -10.30123 -10.30121 -10.29777 -10.29392
 Alpha  occ. eigenvalues --  -10.29253 -10.29106 -10.28923 -10.28874 -10.28781
 Alpha  occ. eigenvalues --  -10.28505 -10.28255 -10.28239 -10.28136 -10.28026
 Alpha  occ. eigenvalues --  -10.27938 -10.27902 -10.27764 -10.27736 -10.27684
 Alpha  occ. eigenvalues --  -10.27680 -10.27667 -10.27640 -10.27433 -10.27196
 Alpha  occ. eigenvalues --  -10.27017 -10.26958 -10.26941 -10.26838 -10.26797
 Alpha  occ. eigenvalues --  -10.26786 -10.26769 -10.26756 -10.26746 -10.26719
 Alpha  occ. eigenvalues --  -10.26258 -10.26200 -10.26173 -10.26120 -10.26024
 Alpha  occ. eigenvalues --  -10.25921 -10.25908 -10.25900 -10.25738 -10.25659
 Alpha  occ. eigenvalues --  -10.25613 -10.25578 -10.25566 -10.25493 -10.24723
 Alpha  occ. eigenvalues --  -10.24470  -3.17130  -3.17046  -1.92026  -1.91959
 Alpha  occ. eigenvalues --   -1.91566  -1.91503  -1.91454  -1.91342  -1.15721
 Alpha  occ. eigenvalues --   -1.15249  -1.11389  -1.10806  -1.10527  -1.09588
 Alpha  occ. eigenvalues --   -1.07482  -1.07046  -1.05151  -1.04567  -1.03824
 Alpha  occ. eigenvalues --   -1.03314  -1.02520  -1.01740  -1.01609  -1.01016
 Alpha  occ. eigenvalues --   -0.93031  -0.91863  -0.89324  -0.88948  -0.88946
 Alpha  occ. eigenvalues --   -0.88267  -0.88137  -0.87794  -0.87640  -0.87283
 Alpha  occ. eigenvalues --   -0.87164  -0.86862  -0.86038  -0.85485  -0.84027
 Alpha  occ. eigenvalues --   -0.83912  -0.83732  -0.83208  -0.82911  -0.82194
 Alpha  occ. eigenvalues --   -0.82071  -0.81744  -0.80726  -0.80720  -0.80093
 Alpha  occ. eigenvalues --   -0.79913  -0.78645  -0.78133  -0.77230  -0.76991
 Alpha  occ. eigenvalues --   -0.76658  -0.76425  -0.75560  -0.75447  -0.75197
 Alpha  occ. eigenvalues --   -0.74836  -0.72787  -0.72552  -0.71743  -0.71339
 Alpha  occ. eigenvalues --   -0.69868  -0.69659  -0.68765  -0.68668  -0.67737
 Alpha  occ. eigenvalues --   -0.67298  -0.66975  -0.66676  -0.66086  -0.65242
 Alpha  occ. eigenvalues --   -0.65061  -0.64625  -0.64570  -0.64430  -0.63906
 Alpha  occ. eigenvalues --   -0.63511  -0.61476  -0.61096  -0.60248  -0.60100
 Alpha  occ. eigenvalues --   -0.59491  -0.59149  -0.58836  -0.58648  -0.58347
 Alpha  occ. eigenvalues --   -0.58101  -0.57859  -0.57588  -0.56890  -0.56876
 Alpha  occ. eigenvalues --   -0.56502  -0.56146  -0.55785  -0.55483  -0.55126
 Alpha  occ. eigenvalues --   -0.55021  -0.54481  -0.54311  -0.54298  -0.54152
 Alpha  occ. eigenvalues --   -0.53724  -0.53675  -0.53246  -0.53162  -0.52872
 Alpha  occ. eigenvalues --   -0.52676  -0.52394  -0.52226  -0.52066  -0.51967
 Alpha  occ. eigenvalues --   -0.51774  -0.51638  -0.51409  -0.51357  -0.51245
 Alpha  occ. eigenvalues --   -0.51012  -0.50953  -0.50557  -0.50552  -0.50221
 Alpha  occ. eigenvalues --   -0.50206  -0.50074  -0.49817  -0.49692  -0.49502
 Alpha  occ. eigenvalues --   -0.49326  -0.49171  -0.48985  -0.48845  -0.48696
 Alpha  occ. eigenvalues --   -0.48424  -0.48375  -0.48073  -0.47988  -0.47889
 Alpha  occ. eigenvalues --   -0.47830  -0.47766  -0.47565  -0.47362  -0.47071
 Alpha  occ. eigenvalues --   -0.47068  -0.46772  -0.46604  -0.46535  -0.46354
 Alpha  occ. eigenvalues --   -0.46198  -0.45908  -0.45759  -0.45603  -0.45493
 Alpha  occ. eigenvalues --   -0.45464  -0.45315  -0.45191  -0.45088  -0.45057
 Alpha  occ. eigenvalues --   -0.44922  -0.44861  -0.44734  -0.44297  -0.43996
 Alpha  occ. eigenvalues --   -0.43988  -0.43831  -0.43764  -0.43495  -0.43374
 Alpha  occ. eigenvalues --   -0.43201  -0.43120  -0.42783  -0.42776  -0.42647
 Alpha  occ. eigenvalues --   -0.42566  -0.42300  -0.42088  -0.42058  -0.41834
 Alpha  occ. eigenvalues --   -0.41737  -0.41637  -0.41595  -0.41400  -0.41195
 Alpha  occ. eigenvalues --   -0.41136  -0.41023  -0.40964  -0.40792  -0.40489
 Alpha  occ. eigenvalues --   -0.40180  -0.40044  -0.39356  -0.39102  -0.38834
 Alpha  occ. eigenvalues --   -0.38805  -0.38119  -0.37770  -0.37769  -0.37606
 Alpha  occ. eigenvalues --   -0.37026  -0.36556  -0.36425  -0.36359  -0.35800
 Alpha  occ. eigenvalues --   -0.35748  -0.35452  -0.34654  -0.34219  -0.33954
 Alpha  occ. eigenvalues --   -0.33842  -0.33146  -0.32608  -0.31945  -0.31331
 Alpha  occ. eigenvalues --   -0.31235  -0.30851  -0.30584  -0.30522  -0.30128
 Alpha  occ. eigenvalues --   -0.29968  -0.29758  -0.28346  -0.23773  -0.23605
 Alpha  occ. eigenvalues --   -0.21374  -0.20978
 Alpha virt. eigenvalues --   -0.08550  -0.08535  -0.02071  -0.01147  -0.00170
 Alpha virt. eigenvalues --    0.00863   0.02452   0.02659   0.02674   0.02964
 Alpha virt. eigenvalues --    0.04774   0.04932   0.05719   0.05836   0.06336

 Mulliken charges:
               1
     1  Mg  12.000006
     2  C    5.999871
     3  C    6.000320
     4  C    5.999996
     5  C    5.999763
     6  N    7.000014
     7  C    6.000183
     8  C    5.999976
     9  C    6.000165
    10  C    5.999493
    11  C    6.000016
    12  C    5.999944
    13  C    5.999953
    14  H    1.000003
    15  N    7.000089
    16  C    5.999478
    17  C    5.999762
    18  C    5.999689
    19  C    5.999725
    20  C    6.000103
    21  C    5.999797
    22  O    7.999717
    23  C    6.000118
    24  N    6.999925
    25  C    5.999626
    26  C    6.000139
    27  C    5.999917
    28  C    6.000347
    29  C    6.000112
    30  C    5.999847
    31  C    5.999982
    32  N    7.000005
    33  C    6.000353
    34  C    6.000388
    35  C    6.000051
    36  C    6.000264
    37  C    5.999968
    38  C    6.000264
    39  O    8.000502
    40  C    6.000022
    41  C    6.000085
    42  O    8.000234
    43  O    7.999913
    44  C    5.999918
    45  H    0.999814
    46  H    0.999895
    47  H    1.000199
    48  H    0.999920
    49  H    1.000112
    50  H    0.999805
    51  H    0.999668
    52  H    0.999994
    53  H    1.000207
    54  H    1.000011
    55  H    1.000190
    56  H    1.000132
    57  H    0.999890
    58  H    0.999491
    59  H    0.999989
    60  H    1.000098
    61  H    0.999745
    62  H    0.999679
    63  H    1.000183
    64  H    0.999848
    65  H    0.999620
    66  H    0.999799
    67  H    1.000049
    68  H    1.000157
    69  H    1.000220
    70  H    0.999837
    71  H    1.000147
    72  H    1.000160
    73  H    1.000144
    74  H    1.000293
    75  H    1.000443
    76  H    0.999882
    77  H    1.000137
    78  H    1.000185
    79  H    1.000015
    80  Mg  11.999535
    81  C    6.030235
    82  C    5.986733
    83  C    5.978078
    84  C    6.015719
    85  N    7.010338
    86  C    5.965121
    87  C    6.017242
    88  C    5.984874
    89  C    6.030170
    90  C    5.999540
    91  C    6.002256
    92  C    5.998928
    93  H    1.000030
    94  N    6.991624
    95  C    6.046860
    96  C    6.016162
    97  C    6.020759
    98  C    6.033906
    99  C    5.993400
   100  C    6.014930
   101  O    8.030483
   102  C    5.990210
   103  N    6.998435
   104  C    6.036246
   105  C    5.986499
   106  C    6.010805
   107  C    5.967358
   108  C    5.999282
   109  C    6.007243
   110  C    5.998359
   111  N    7.004258
   112  C    5.960012
   113  C    5.972058
   114  C    5.997927
   115  C    5.954393
   116  C    6.002023
   117  C    5.982390
   118  O    7.969613
   119  C    5.992328
   120  C    6.000670
   121  O    7.992005
   122  O    7.999194
   123  C    6.002349
   124  H    1.009516
   125  H    1.004369
   126  H    0.988758
   127  H    0.994377
   128  H    1.004775
   129  H    1.000143
   130  H    1.012429
   131  H    0.993749
   132  H    0.998347
   133  H    1.004832
   134  H    0.992196
   135  H    0.997427
   136  H    1.018514
   137  H    1.019475
   138  H    1.020810
   139  H    1.011413
   140  H    1.007193
   141  H    1.015686
   142  H    1.000607
   143  H    1.000292
   144  H    1.009850
   145  H    1.001060
   146  H    0.995202
   147  H    1.005781
   148  H    0.990381
   149  H    0.996919
   150  H    1.000025
   151  H    0.992487
   152  H    0.984327
   153  H    0.981647
   154  H    0.977921
   155  H    0.991489
   156  H    0.997290
   157  H    0.996635
   158  H    0.993501
 Sum of Mulliken charges = 624.00000

 Dipole moment (field-independent basis, Debye):
    X=            -10.5516    Y=             -2.8135    Z=              2.1571  Tot=             11.1313
 Quadrupole moment (field-independent basis, Debye-Ang):
   XX=           -277.1918   YY=              0.6947   ZZ=             -1.7448
   XY=            -32.6056   XZ=             33.2783   YZ=             -3.4337

 Normal termination of Gaussian 16 at Wed Sep 22 03:05:07 2021.
