 Gaussian 16, Revision A.03,
 Gaussian 16:  ES64L-G16RevA.03 25-Dec-2016

 -----------------------------------
 #p cam-b3lyp/Def2SVP td=(nstates=5)
 -----------------------------------

 --------------------------------
 TDDFT excited states in gaussian
 --------------------------------
 Symbolic Z-matrix:
 Charge =  0 Multiplicity = 1

                         Standard orientation:
 ---------------------------------------------------------------------
 Center     Atomic      Atomic             Coordinates (Angstroms)
 Number     Number       Type             X           Y           Z
 ---------------------------------------------------------------------
      1         12           0      -24.721731   -0.438562   -0.247397
      2          6           0      -22.490442    2.096670   -0.472492
      3          6           0      -26.668742    1.466279    1.907939
      4          6           0      -26.950129   -2.976847   -0.017578
      5          6           0      -22.554627   -2.502355   -1.987359
      6          7           0      -24.593845    1.536493    0.471183
      7          6           0      -23.585009    2.428048    0.301577
      8          6           0      -23.928264    3.794049    0.836010
      9          6           0      -25.123587    3.503859    1.821151
     10          6           0      -25.511655    2.066011    1.343915
     11          6           0      -24.928833    3.663751    3.386803
     12          6           0      -24.403111    4.780877   -0.323493
     13          6           0      -24.191680    6.279067    0.044692
     14          1           0      -24.189855    6.764456    1.503986
     15          7           0      -26.547295   -0.790225    0.862570
     16          6           0      -27.169131    0.177306    1.694675
     17          6           0      -28.384868   -0.361759    2.225417
     18          6           0      -28.492138   -1.692793    1.685237
     19          6           0      -27.290275   -1.837606    0.788320
     20          6           0      -29.346582    0.391380    3.076074
     21          6           0      -29.575940   -2.741605    1.908283
     22          8           0      -29.544967   -3.935960    1.489549
     23          6           0      -30.810911   -2.376418    2.714314
     24          7           0      -24.729910   -2.460611   -0.839298
     25          6           0      -25.858580   -3.280835   -0.800460
     26          6           0      -25.766999   -4.552610   -1.692353
     27          6           0      -24.297877   -4.291648   -2.349131
     28          6           0      -23.824178   -3.022959   -1.740249
     29          6           0      -25.852148   -5.797410   -0.799791
     30          6           0      -24.279422   -4.306194   -3.849255
     31          6           0      -23.308291   -5.295645   -4.427050
     32          7           0      -22.906744   -0.385919   -0.977765
     33          6           0      -22.110128   -1.265905   -1.699774
     34          6           0      -20.877591   -0.651367   -2.028623
     35          6           0      -20.920284    0.681552   -1.538568
     36          6           0      -22.212732    0.844734   -0.996824
     37          6           0      -19.729784   -1.205136   -2.782146
     38          6           0      -20.149234    1.886659   -1.324950
     39          8           0      -19.003446    2.225911   -1.547521
     40          6           0      -21.227954    2.873682   -0.670215
     41          6           0      -20.647142    3.707742    0.414311
     42          8           0      -19.901762    3.338169    1.285309
     43          8           0      -21.000845    5.000123    0.337794
     44          6           0      -20.443677    5.856777    1.423023
     45          1           0      -27.107754    2.073948    2.702113
     46          1           0      -27.607427   -3.827727    0.172813
     47          1           0      -21.864491   -3.047299   -2.634703
     48          1           0      -23.146140    4.198515    1.478278
     49          1           0      -25.966641    4.128023    1.526618
     50          1           0      -23.934089    4.079728    3.547068
     51          1           0      -25.044718    2.774434    4.004278
     52          1           0      -25.718278    4.333273    3.728822
     53          1           0      -25.448616    4.517993   -0.485415
     54          1           0      -23.818827    4.538106   -1.211144
     55          1           0      -24.997646    6.765641   -0.504945
     56          1           0      -23.287109    6.592832   -0.475601
     57          1           0      -30.041219    1.042339    2.545101
     58          1           0      -28.730101    0.948269    3.780598
     59          1           0      -29.878573   -0.241586    3.785693
     60          1           0      -30.530340   -2.500074    3.760192
     61          1           0      -31.550661   -3.130618    2.447015
     62          1           0      -31.157577   -1.354678    2.558487
     63          1           0      -26.647964   -4.532246   -2.334014
     64          1           0      -23.631884   -5.094359   -2.030778
     65          1           0      -25.814483   -5.616792    0.274684
     66          1           0      -25.128627   -6.532663   -1.151159
     67          1           0      -26.853253   -6.201550   -0.952748
     68          1           0      -23.965027   -3.357717   -4.284941
     69          1           0      -25.246109   -4.499015   -4.314656
     70          1           0      -23.745985   -5.921207   -5.204468
     71          1           0      -22.924632   -5.969168   -3.661173
     72          1           0      -22.458357   -4.684632   -4.732403
     73          1           0      -19.568190   -2.279385   -2.688004
     74          1           0      -18.868729   -0.851544   -2.214266
     75          1           0      -19.789235   -0.902327   -3.827607
     76          1           0      -21.354092    3.516148   -1.542150
     77          1           0      -19.394675    6.103506    1.253198
     78          1           0      -20.664492    5.456412    2.412634
     79          1           0      -20.972745    6.809937    1.406410
     80         12           0       23.960251   -0.842156    0.349016
     81          6           0       24.123026    2.177945   -1.571223
     82          6           0       24.116014    1.229541    3.199872
     83          6           0       24.537110   -3.462531    2.221189
     84          6           0       24.179752   -2.632861   -2.533285
     85          7           0       24.050303    1.438843    0.726317
     86          6           0       23.994224    2.390343   -0.236387
     87          6           0       23.839975    3.747110    0.430867
     88          6           0       23.801197    3.524234    1.969043
     89          6           0       23.963884    1.992161    1.990566
     90          6           0       24.944623    4.358206    2.780897
     91          6           0       22.528607    4.514772   -0.032634
     92          6           0       22.700066    5.979300   -0.437241
     93          1           0       23.777092    6.898642    0.266796
     94          7           0       24.337835   -1.077971    2.439840
     95          6           0       24.325200   -0.149528    3.372684
     96          6           0       24.603040   -0.795725    4.624356
     97          6           0       24.594482   -2.203377    4.453878
     98          6           0       24.527036   -2.294749    3.018874
     99          6           0       24.565938   -0.056779    5.961047
    100          6           0       24.558189   -3.389357    5.404941
    101          8           0       24.625522   -4.544483    5.026567
    102          6           0       24.369702   -3.063497    6.861042
    103          7           0       24.658072   -2.707848   -0.129654
    104          6           0       24.619875   -3.702476    0.849301
    105          6           0       24.615756   -5.138608    0.258530
    106          6           0       24.335569   -4.787223   -1.251231
    107          6           0       24.387946   -3.261434   -1.328367
    108          6           0       25.944056   -5.852925    0.547198
    109          6           0       22.884426   -5.240110   -1.755565
    110          6           0       22.781685   -6.427920   -2.652536
    111          7           0       24.002922   -0.380029   -1.615150
    112          6           0       24.127190   -1.235796   -2.688259
    113          6           0       24.277919   -0.532303   -3.959333
    114          6           0       24.277381    0.854787   -3.570538
    115          6           0       24.235858    0.881288   -2.156518
    116          6           0       24.203965   -1.187255   -5.291064
    117          6           0       24.254837    2.226624   -4.054371
    118          8           0       24.256441    2.604725   -5.240061
    119          6           0       24.182074    3.187195   -2.735503
    120          6           0       25.404388    3.973986   -2.780844
    121          8           0       26.514739    3.490999   -2.823142
    122          8           0       25.144269    5.286529   -2.757653
    123          6           0       26.225222    6.317147   -2.853142
    124          1           0       24.088461    1.822487    4.116353
    125          1           0       24.308422   -4.390537    2.750594
    126          1           0       24.163651   -3.250082   -3.433671
    127          1           0       24.732502    4.324111    0.188807
    128          1           0       22.884110    3.910385    2.414271
    129          1           0       25.281542    5.218513    2.202492
    130          1           0       25.741462    3.635345    2.957795
    131          1           0       24.548285    4.682475    3.742978
    132          1           0       21.691986    4.462203    0.662729
    133          1           0       22.136819    4.040645   -0.932446
    134          1           0       21.759688    6.526910   -0.371221
    135          1           0       22.900148    5.908199   -1.506364
    136          1           0       23.619963   -0.147241    6.495206
    137          1           0       24.898098    0.976749    5.858576
    138          1           0       25.346600   -0.507088    6.573728
    139          1           0       23.648046   -2.273471    7.070998
    140          1           0       25.277902   -2.768744    7.384917
    141          1           0       23.850800   -3.892447    7.342449
    142          1           0       23.799575   -5.681202    0.734762
    143          1           0       25.098063   -5.279765   -1.854787
    144          1           0       26.590215   -5.336216    1.256705
    145          1           0       26.547306   -5.959389   -0.353703
    146          1           0       25.737057   -6.854899    0.924523
    147          1           0       22.333276   -4.478331   -2.306922
    148          1           0       22.191064   -5.414476   -0.933622
    149          1           0       22.223928   -7.223852   -2.160734
    150          1           0       23.824011   -6.708640   -2.804847
    151          1           0       22.265607   -6.165525   -3.576019
    152          1           0       23.727613   -0.539456   -6.026179
    153          1           0       23.732774   -2.156262   -5.127460
    154          1           0       25.232923   -1.363370   -5.607606
    155          1           0       23.324732    3.858009   -2.771031
    156          1           0       26.869466    6.087094   -3.701947
    157          1           0       26.850706    6.353047   -1.960848
    158          1           0       25.853811    7.341380   -2.871581
 ---------------------------------------------------------------------

 SCF Done:  E(RCAM-B3LYP) =  -4069.80798592     A.U. after   17 cycles

 Excitation energies and oscillator strengths:

 Excited State   1:      Singlet-A      1.6462 eV  753.16 nm  f=0.3894  <S**2>=0.000
     309 -> 315       -0.17000
     311 -> 313        0.68912
     309 <- 315       -0.10749
 This state for optimization and/or second-order correction.
 Total Energy, E(TD-HF/TD-DFT) =  -4069.74748998
 Copying the excited state density for this state as the 1-particle RhoCI density.

 Excited State   2:      Singlet-A      1.6834 eV  736.49 nm  f=0.4054  <S**2>=0.000
     310 -> 316       -0.17293
     312 -> 314        0.68700
     310 <- 316       -0.10715

 Excited State   3:      Singlet-A      2.1993 eV  563.73 nm  f=0.1316  <S**2>=0.000
     310 -> 314        0.65028
     312 -> 316        0.26295

 Excited State   4:      Singlet-A      2.2270 eV  556.73 nm  f=0.1138  <S**2>=0.000
     309 -> 313        0.63819
     311 -> 315        0.29161

 Excited State   5:      Singlet-A      3.0649 eV  404.53 nm  f=0.0000  <S**2>=0.000
     312 -> 313        0.70710

 The electronic state is 1-A.
 Alpha  occ. eigenvalues --  -46.88601 -46.87160 -19.25245 -19.25181 -19.19511
 Alpha  occ. eigenvalues --  -19.19236 -19.18994 -19.18774 -19.18506 -19.18501
 Alpha  occ. eigenvalues --  -14.42865 -14.41861 -14.41696 -14.41695 -14.39536
 Alpha  occ. eigenvalues --  -14.39356 -14.39069 -14.38770 -10.38605 -10.38484
 Alpha  occ. eigenvalues --  -10.35769 -10.35442 -10.35235 -10.35159 -10.32524
 Alpha  occ. eigenvalues --  -10.32058 -10.31366 -10.31314 -10.30963 -10.30739
 Alpha  occ. eigenvalues --  -10.30725 -10.30500 -10.30493 -10.30251 -10.30124
 Alpha  occ. eigenvalues --  -10.29865 -10.29631 -10.29566 -10.29356 -10.29160
 Alpha  occ. eigenvalues --  -10.29007 -10.28959 -10.28865 -10.28755 -10.28729
 Alpha  occ. eigenvalues --  -10.28547 -10.28259 -10.28189 -10.28163 -10.28154
 Alpha  occ. eigenvalues --  -10.28044 -10.28001 -10.27916 -10.27879 -10.27869
 Alpha  occ. eigenvalues --  -10.27808 -10.27779 -10.27709 -10.27664 -10.27598
 Alpha  occ. eigenvalues --  -10.27546 -10.27523 -10.27486 -10.27211 -10.27068
 Alpha  occ. eigenvalues --  -10.26987 -10.26826 -10.26642 -10.26553 -10.26409
 Alpha  occ. eigenvalues --  -10.26207 -10.26049 -10.26040 -10.26009 -10.25851
 Alpha  occ. eigenvalues --  -10.25788 -10.25769 -10.25616 -10.25559 -10.25550
 Alpha  occ. eigenvalues --  -10.25486 -10.25446 -10.25395 -10.25249 -10.25131
 Alpha  occ. eigenvalues --  -10.25002  -3.17230  -3.16018  -1.92096  -1.91691
 Alpha  occ. eigenvalues --   -1.91540  -1.90909  -1.90452  -1.90363  -1.17322
 Alpha  occ. eigenvalues --   -1.16543  -1.10827  -1.10153  -1.08420  -1.07419
 Alpha  occ. eigenvalues --   -1.07352  -1.07270  -1.04631  -1.04537  -1.03582
 Alpha  occ. eigenvalues --   -1.03491  -1.03126  -1.02730  -1.01867  -1.01422
 Alpha  occ. eigenvalues --   -0.93386  -0.92145  -0.89728  -0.88822  -0.88618
 Alpha  occ. eigenvalues --   -0.88600  -0.88246  -0.88079  -0.87692  -0.87237
 Alpha  occ. eigenvalues --   -0.87090  -0.87004  -0.86428  -0.86389  -0.84344
 Alpha  occ. eigenvalues --   -0.84210  -0.84106  -0.83831  -0.82647  -0.82493
 Alpha  occ. eigenvalues --   -0.81816  -0.81673  -0.81269  -0.81071  -0.80680
 Alpha  occ. eigenvalues --   -0.80520  -0.78372  -0.78247  -0.77792  -0.77658
 Alpha  occ. eigenvalues --   -0.77374  -0.76849  -0.76544  -0.76261  -0.75231
 Alpha  occ. eigenvalues --   -0.74825  -0.72898  -0.72468  -0.71862  -0.71398
 Alpha  occ. eigenvalues --   -0.69106  -0.68733  -0.68702  -0.68207  -0.67782
 Alpha  occ. eigenvalues --   -0.67632  -0.66957  -0.66716  -0.65876  -0.65539
 Alpha  occ. eigenvalues --   -0.65370  -0.65144  -0.64791  -0.64606  -0.64483
 Alpha  occ. eigenvalues --   -0.64094  -0.62406  -0.62354  -0.60484  -0.60337
 Alpha  occ. eigenvalues --   -0.59949  -0.59212  -0.58983  -0.58800  -0.58473
 Alpha  occ. eigenvalues --   -0.58388  -0.58025  -0.58016  -0.57725  -0.57455
 Alpha  occ. eigenvalues --   -0.56103  -0.56066  -0.55741  -0.55517  -0.55201
 Alpha  occ. eigenvalues --   -0.55146  -0.54991  -0.54349  -0.53958  -0.53485
 Alpha  occ. eigenvalues --   -0.53359  -0.53299  -0.53014  -0.52973  -0.52906
 Alpha  occ. eigenvalues --   -0.52898  -0.52602  -0.52571  -0.52448  -0.52344
 Alpha  occ. eigenvalues --   -0.52162  -0.52076  -0.51991  -0.51326  -0.51269
 Alpha  occ. eigenvalues --   -0.51173  -0.51166  -0.50571  -0.50510  -0.50327
 Alpha  occ. eigenvalues --   -0.50114  -0.50054  -0.49993  -0.49956  -0.49627
 Alpha  occ. eigenvalues --   -0.49247  -0.49020  -0.49010  -0.48891  -0.48738
 Alpha  occ. eigenvalues --   -0.48550  -0.48401  -0.48381  -0.48241  -0.48126
 Alpha  occ. eigenvalues --   -0.48011  -0.47780  -0.47701  -0.47413  -0.47339
 Alpha  occ. eigenvalues --   -0.47229  -0.46727  -0.46724  -0.46616  -0.46586
 Alpha  occ. eigenvalues --   -0.46372  -0.46176  -0.46101  -0.45936  -0.45873
 Alpha  occ. eigenvalues --   -0.45288  -0.45211  -0.45083  -0.44925  -0.44787
 Alpha  occ. eigenvalues --   -0.44561  -0.44493  -0.44219  -0.44065  -0.43906
 Alpha  occ. eigenvalues --   -0.43806  -0.43576  -0.43527  -0.43300  -0.43281
 Alpha  occ. eigenvalues --   -0.43189  -0.43001  -0.42741  -0.42592  -0.42455
 Alpha  occ. eigenvalues --   -0.42425  -0.42362  -0.42061  -0.41963  -0.41826
 Alpha  occ. eigenvalues --   -0.41498  -0.41429  -0.41397  -0.41271  -0.40993
 Alpha  occ. eigenvalues --   -0.40992  -0.40907  -0.40533  -0.40509  -0.40447
 Alpha  occ. eigenvalues --   -0.40404  -0.40274  -0.40063  -0.39702  -0.39307
 Alpha  occ. eigenvalues --   -0.38375  -0.38265  -0.37984  -0.37903  -0.37633
 Alpha  occ. eigenvalues --   -0.37210  -0.37046  -0.36956  -0.36630  -0.36535
 Alpha  occ. eigenvalues --   -0.36204  -0.36131  -0.34610  -0.34436  -0.34149
 Alpha  occ. eigenvalues --   -0.33746  -0.33358  -0.32993  -0.31677  -0.31550
 Alpha  occ. eigenvalues --   -0.31221  -0.30748  -0.30725  -0.30723  -0.30069
 Alpha  occ. eigenvalues --   -0.29962  -0.29591  -0.29376  -0.24328  -0.23814
 Alpha  occ. eigenvalues --   -0.21050  -0.20943
 Alpha virt. eigenvalues --   -0.08978  -0.08701  -0.01633  -0.01100   0.00098
 Alpha virt. eigenvalues --    0.00134   0.01799   0.02094   0.02151   0.03150
 Alpha virt. eigenvalues --    0.04753   0.04784   0.05454   0.05540   0.05852

 Mulliken charges:
               1
     1  Mg   0.841734
     2  C    0.034535
     3  C   -0.092980
     4  C   -0.054376
     5  C   -0.125474
     6  N   -0.303465
     7  C   -0.052257
     8  C    0.000484
     9  C   -0.079166
    10  C    0.037456
    11  C    0.069885
    12  C    0.044564
    13  C   -0.036879
    14  H    0.029748
    15  N   -0.308345
    16  C    0.155178
    17  C   -0.140375
    18  C   -0.029025
    19  C    0.069292
    20  C    0.113471
    21  C    0.008026
    22  O   -0.244587
    23  C    0.041253
    24  N   -0.321009
    25  C    0.036076
    26  C   -0.042183
    27  C    0.024926
    28  C    0.084842
    29  C    0.056674
    30  C    0.036914
    31  C   -0.008393
    32  N   -0.439383
    33  C    0.179127
    34  C   -0.175168
    35  C   -0.014006
    36  C    0.109945
    37  C    0.115577
    38  C    0.073227
    39  O   -0.144998
    40  C   -0.038090
    41  C    0.155661
    42  O   -0.198864
    43  O   -0.329032
    44  C    0.182745
    45  H   -0.027432
    46  H   -0.007703
    47  H   -0.042421
    48  H    0.003904
    49  H    0.010813
    50  H    0.020575
    51  H    0.027101
    52  H    0.015789
    53  H    0.012905
    54  H    0.017197
    55  H    0.020547
    56  H    0.038035
    57  H    0.049718
    58  H    0.012639
    59  H    0.009448
    60  H    0.044200
    61  H    0.033000
    62  H    0.028639
    63  H    0.029424
    64  H    0.012695
    65  H    0.039367
    66  H    0.014861
    67  H    0.019132
    68  H    0.008608
    69  H    0.002717
    70  H    0.020698
    71  H    0.002388
    72  H    0.017153
    73  H    0.004828
    74  H    0.038541
    75  H    0.044844
    76  H    0.038572
    77  H    0.051876
    78  H    0.041605
    79  H    0.022450
    80  Mg   0.829353
    81  C   -0.027435
    82  C   -0.081363
    83  C   -0.048348
    84  C   -0.097974
    85  N   -0.248724
    86  C   -0.030230
    87  C    0.007193
    88  C   -0.059242
    89  C    0.026552
    90  C    0.039524
    91  C    0.031808
    92  C   -0.059020
    93  H    0.004011
    94  N   -0.302857
    95  C    0.146150
    96  C   -0.169020
    97  C   -0.020033
    98  C    0.093321
    99  C    0.099935
   100  C    0.033799
   101  O   -0.186985
   102  C    0.024084
   103  N   -0.332259
   104  C   -0.001082
   105  C   -0.024807
   106  C   -0.002656
   107  C    0.080322
   108  C    0.078536
   109  C   -0.015185
   110  C    0.023909
   111  N   -0.395348
   112  C    0.148618
   113  C   -0.178804
   114  C    0.024803
   115  C    0.119068
   116  C    0.137496
   117  C    0.044586
   118  O   -0.191616
   119  C    0.008844
   120  C    0.183312
   121  O   -0.215323
   122  O   -0.324712
   123  C    0.186196
   124  H   -0.034538
   125  H   -0.001827
   126  H   -0.023804
   127  H    0.020267
   128  H    0.020922
   129  H    0.027642
   130  H    0.023976
   131  H    0.016037
   132  H    0.005707
   133  H    0.004841
   134  H    0.020194
   135  H    0.032998
   136  H    0.044428
   137  H    0.015512
   138  H    0.008511
   139  H    0.015426
   140  H    0.052121
   141  H    0.023566
   142  H    0.017664
   143  H    0.012693
   144  H    0.031318
   145  H    0.004839
   146  H    0.019353
   147  H    0.006183
   148  H   -0.004146
   149  H    0.014287
   150  H    0.005097
   151  H    0.017097
   152  H    0.042134
   153  H    0.016907
   154  H    0.031337
   155  H    0.029698
   156  H    0.052768
   157  H    0.029849
   158  H    0.042550
 Sum of Mulliken charges =  -0.00000

 Dipole moment (field-independent basis, Debye):
    X=             -7.0923    Y=              3.4154    Z=              3.4018  Tot=              8.5754
 Quadrupole moment (field-independent basis, Debye-Ang):
   XX=           -480.6195   YY=           -472.5358   ZZ=           -503.1633
   XY=            -59.3556   XZ=             96.5753   YZ=             47.1911

 Normal termination of Gaussian 16 at Wed Sep 15 21:00:56 2021.
