 Gaussian 16, Revision A.03,
 Gaussian 16:  ES64L-G16RevA.03 25-Dec-2016

 -----------------------------------
 #p cam-b3lyp/Def2SVP td=(nstates=5)
 -----------------------------------

 --------------------------------
 TDDFT excited states in gaussian
 --------------------------------
 Symbolic Z-matrix:
 Charge =  0 Multiplicity = 1

                         Standard orientation:
 ---------------------------------------------------------------------
 Center     Atomic      Atomic             Coordinates (Angstroms)
 Number     Number       Type             X           Y           Z
 ---------------------------------------------------------------------
      1         12           0      -32.078566   -0.189655   -0.759935
      2          6           0      -28.807585    0.826977    0.477841
      3          6           0      -31.300712   -3.380328    0.242126
      4          6           0      -35.350861   -0.812358   -0.465422
      5          6           0      -32.620080    2.995083   -1.813759
      6          7           0      -30.297187   -1.105889    0.437652
      7          6           0      -29.032457   -0.496538    0.764880
      8          6           0      -28.055910   -1.576534    1.238950
      9          6           0      -28.721617   -2.916867    0.808614
     10          6           0      -30.215748   -2.504066    0.446588
     11          6           0      -28.013385   -3.610776   -0.449396
     12          6           0      -27.562673   -1.483977    2.653346
     13          6           0      -28.360197   -0.588639    3.630800
     14          1           0      -28.088879   -0.394544    5.133853
     15          7           0      -33.193400   -1.933663   -0.316124
     16          6           0      -32.673564   -3.141483    0.093902
     17          6           0      -33.800931   -4.119332    0.201463
     18          6           0      -34.942257   -3.327052    0.107457
     19          6           0      -34.568069   -1.944980   -0.183120
     20          6           0      -33.542626   -5.555489    0.491114
     21          6           0      -36.395256   -3.850222    0.301780
     22          8           0      -36.540944   -5.011032    0.641457
     23          6           0      -37.618610   -2.996407    0.248563
     24          7           0      -33.713524    1.036201   -0.957944
     25          6           0      -34.980631    0.455547   -0.916980
     26          6           0      -36.053742    1.450285   -1.359487
     27          6           0      -35.211464    2.565577   -2.078485
     28          6           0      -33.796160    2.175615   -1.646305
     29          6           0      -37.214769    0.938531   -2.250450
     30          6           0      -35.592958    4.042179   -1.739114
     31          6           0      -36.357161    4.847789   -2.886854
     32          7           0      -30.947802    1.573206   -0.781831
     33          6           0      -31.297865    2.795571   -1.336672
     34          6           0      -30.144145    3.661071   -1.334541
     35          6           0      -29.221345    2.934850   -0.569550
     36          6           0      -29.773134    1.660644   -0.288117
     37          6           0      -30.147867    5.090911   -1.902488
     38          6           0      -27.894727    2.927539   -0.033602
     39          8           0      -27.059876    3.844552   -0.169698
     40          6           0      -27.477794    1.509619    0.560389
     41          6           0      -26.957353    1.816165    1.907720
     42          8           0      -27.498741    2.520992    2.765988
     43          8           0      -25.834765    1.072842    2.065012
     44          6           0      -25.017742    1.355675    3.286554
     45          1           0      -31.058331   -4.390547    0.577116
     46          1           0      -36.416552   -1.035173   -0.378055
     47          1           0      -32.784657    3.971305   -2.273780
     48          1           0      -27.247803   -1.343794    0.545441
     49          1           0      -28.866274   -3.606593    1.640338
     50          1           0      -27.583181   -4.515727   -0.022176
     51          1           0      -27.287303   -2.922068   -0.882019
     52          1           0      -28.822717   -3.869775   -1.132965
     53          1           0      -26.508158   -1.216963    2.586485
     54          1           0      -27.609337   -2.531708    2.952187
     55          1           0      -29.390010   -0.936232    3.542710
     56          1           0      -28.320256    0.446558    3.291281
     57          1           0      -33.918980   -5.727908    1.499022
     58          1           0      -32.469788   -5.729411    0.413918
     59          1           0      -34.020978   -6.169500   -0.272758
     60          1           0      -37.742618   -2.226215    1.008878
     61          1           0      -38.533676   -3.562315    0.420735
     62          1           0      -37.573069   -2.652511   -0.784669
     63          1           0      -36.404182    1.718792   -0.362222
     64          1           0      -35.315829    2.341612   -3.140342
     65          1           0      -38.136078    0.749420   -1.698585
     66          1           0      -36.944675   -0.024717   -2.681948
     67          1           0      -37.344744    1.657228   -3.060311
     68          1           0      -34.751567    4.662447   -1.428935
     69          1           0      -36.202666    3.953217   -0.839892
     70          1           0      -37.140737    5.351644   -2.321512
     71          1           0      -36.787327    4.229826   -3.675148
     72          1           0      -35.611282    5.467623   -3.383143
     73          1           0      -29.187842    5.445354   -2.278401
     74          1           0      -30.408593    5.660712   -1.011267
     75          1           0      -30.772606    5.140041   -2.794064
     76          1           0      -26.735696    1.050553   -0.094449
     77          1           0      -24.152125    0.692498    3.300848
     78          1           0      -25.589822    1.169418    4.195670
     79          1           0      -24.753132    2.402158    3.141710
     80         12           0       31.835369    0.586905   -0.493050
     81          6           0       30.289804   -2.580104    0.181849
     82          6           0       29.571880    1.893711    1.941853
     83          6           0       33.692515    3.365062   -0.144172
     84          6           0       34.302913   -1.060385   -2.194218
     85          7           0       30.190890   -0.283589    0.884050
     86          6           0       29.727569   -1.564405    0.963580
     87          6           0       28.559918   -1.699931    2.002212
     88          6           0       28.145832   -0.163321    2.197549
     89          6           0       29.416106    0.517825    1.713767
     90          6           0       26.959908    0.281910    1.372921
     91          6           0       28.933514   -2.514759    3.229449
     92          6           0       27.903169   -3.555867    3.738864
     93          1           0       26.958177   -3.233391    4.988207
     94          7           0       31.617008    2.488644    0.682389
     95          6           0       30.549683    2.821284    1.542456
     96          6           0       30.740072    4.197103    2.017828
     97          6           0       31.947400    4.655114    1.357268
     98          6           0       32.512073    3.507722    0.679949
     99          6           0       29.900874    4.930474    2.995241
    100          6           0       32.470567    6.069163    1.392435
    101          8           0       31.766792    6.926156    1.877713
    102          6           0       33.814644    6.496354    0.849282
    103          7           0       33.719351    0.974049   -0.986030
    104          6           0       34.196962    2.276446   -0.870112
    105          6           0       35.601740    2.303271   -1.476883
    106          6           0       35.685927    0.967551   -2.302537
    107          6           0       34.461551    0.258545   -1.830638
    108          6           0       36.050703    3.592832   -2.257435
    109          6           0       36.998383    0.129876   -2.212970
    110          6           0       37.696665   -0.216929   -3.487371
    111          7           0       32.202857   -1.352283   -1.045453
    112          6           0       33.220259   -1.888052   -1.815675
    113          6           0       32.919200   -3.285650   -2.181380
    114          6           0       31.783306   -3.586442   -1.333786
    115          6           0       31.434755   -2.395197   -0.689968
    116          6           0       33.640842   -4.226007   -3.110417
    117          6           0       30.836132   -4.680537   -0.967964
    118          8           0       30.832943   -5.840780   -1.266426
    119          6           0       29.936219   -4.067849    0.100282
    120          6           0       28.514203   -4.253277   -0.338138
    121          8           0       28.127679   -3.672818   -1.329754
    122          8           0       27.690193   -5.037712    0.523669
    123          6           0       26.228950   -5.059541    0.211292
    124          1           0       28.864219    2.343355    2.641716
    125          1           0       34.402704    4.193587   -0.152403
    126          1           0       35.008838   -1.498769   -2.902280
    127          1           0       27.663944   -2.125260    1.550989
    128          1           0       28.038877    0.089210    3.252418
    129          1           0       27.305264    0.491622    0.360834
    130          1           0       26.524369    1.143371    1.878984
    131          1           0       26.136792   -0.415804    1.215254
    132          1           0       29.053628   -1.796514    4.039909
    133          1           0       29.940362   -2.903212    3.076503
    134          1           0       28.526796   -4.417021    3.980076
    135          1           0       27.204191   -3.884384    2.969606
    136          1           0       29.228662    5.555561    2.408229
    137          1           0       30.524717    5.638824    3.540452
    138          1           0       29.318581    4.385597    3.739272
    139          1           0       34.092970    7.530137    1.053104
    140          1           0       33.740522    6.378389   -0.231848
    141          1           0       34.701424    5.915825    1.100949
    142          1           0       36.221913    2.335794   -0.580630
    143          1           0       35.416310    1.191700   -3.334173
    144          1           0       35.183063    4.173903   -2.571089
    145          1           0       36.698117    3.326875   -3.092835
    146          1           0       36.685061    4.212807   -1.624314
    147          1           0       36.786406   -0.795839   -1.678077
    148          1           0       37.662852    0.653065   -1.525453
    149          1           0       37.547004   -1.275568   -3.698434
    150          1           0       38.767603   -0.049126   -3.374009
    151          1           0       37.393822    0.313958   -4.389633
    152          1           0       32.983690   -5.029721   -3.441894
    153          1           0       34.494509   -4.613149   -2.553408
    154          1           0       34.071979   -3.631059   -3.915768
    155          1           0       30.211304   -4.517807    1.054323
    156          1           0       26.050680   -5.751564   -0.611943
    157          1           0       25.891069   -4.083716   -0.136919
    158          1           0       25.648761   -5.331155    1.092959
 ---------------------------------------------------------------------

 SCF Done:  E(RCAM-B3LYP) =  -4069.77481964     A.U. after   19 cycles

 Excitation energies and oscillator strengths:

 Excited State   1:      Singlet-A      1.6561 eV  748.63 nm  f=0.3544  <S**2>=0.000
     309 -> 315       -0.15661
     312 -> 314        0.69068
     309 <- 315       -0.10158
 This state for optimization and/or second-order correction.
 Total Energy, E(TD-HF/TD-DFT) =  -4069.71395740
 Copying the excited state density for this state as the 1-particle RhoCI density.

 Excited State   2:      Singlet-A      1.6714 eV  741.79 nm  f=0.4029  <S**2>=0.000
     310 -> 316        0.16934
     311 -> 313        0.68865
     310 <- 316        0.10659

 Excited State   3:      Singlet-A      2.2361 eV  554.47 nm  f=0.1281  <S**2>=0.000
     310 -> 313        0.64117
     311 -> 316       -0.28143

 Excited State   4:      Singlet-A      2.2760 eV  544.76 nm  f=0.0762  <S**2>=0.000
     309 -> 314        0.61914
     312 -> 315        0.32532

 Excited State   5:      Singlet-A      3.0566 eV  405.63 nm  f=0.0000  <S**2>=0.000
     312 -> 313        0.70711

 The electronic state is 1-A.
 Alpha  occ. eigenvalues --  -46.89324 -46.89311 -19.25368 -19.25257 -19.20727
 Alpha  occ. eigenvalues --  -19.19726 -19.19429 -19.19083 -19.17983 -19.17081
 Alpha  occ. eigenvalues --  -14.42759 -14.42475 -14.41714 -14.41552 -14.39732
 Alpha  occ. eigenvalues --  -14.39336 -14.39157 -14.38748 -10.40219 -10.39141
 Alpha  occ. eigenvalues --  -10.35509 -10.35407 -10.34512 -10.33540 -10.32266
 Alpha  occ. eigenvalues --  -10.32134 -10.31940 -10.31659 -10.31385 -10.31294
 Alpha  occ. eigenvalues --  -10.31011 -10.30881 -10.30818 -10.30695 -10.30514
 Alpha  occ. eigenvalues --  -10.30507 -10.30280 -10.30232 -10.29488 -10.29223
 Alpha  occ. eigenvalues --  -10.29102 -10.29014 -10.28842 -10.28834 -10.28722
 Alpha  occ. eigenvalues --  -10.28662 -10.28637 -10.28555 -10.28523 -10.28484
 Alpha  occ. eigenvalues --  -10.28398 -10.28059 -10.27990 -10.27884 -10.27865
 Alpha  occ. eigenvalues --  -10.27792 -10.27679 -10.27642 -10.27615 -10.27601
 Alpha  occ. eigenvalues --  -10.27563 -10.27305 -10.27242 -10.27221 -10.27172
 Alpha  occ. eigenvalues --  -10.27128 -10.27011 -10.26928 -10.26916 -10.26899
 Alpha  occ. eigenvalues --  -10.26793 -10.26567 -10.26523 -10.26522 -10.26492
 Alpha  occ. eigenvalues --  -10.26397 -10.26312 -10.26265 -10.26047 -10.26038
 Alpha  occ. eigenvalues --  -10.25948 -10.25891 -10.25734 -10.25531 -10.25370
 Alpha  occ. eigenvalues --  -10.23983  -3.17893  -3.17799  -1.92742  -1.92671
 Alpha  occ. eigenvalues --   -1.92354  -1.92276  -1.92200  -1.92081  -1.16088
 Alpha  occ. eigenvalues --   -1.15367  -1.11726  -1.10692  -1.10213  -1.07867
 Alpha  occ. eigenvalues --   -1.07486  -1.06684  -1.04844  -1.04594  -1.04028
 Alpha  occ. eigenvalues --   -1.03577  -1.02828  -1.02776  -1.01511  -1.00357
 Alpha  occ. eigenvalues --   -0.92755  -0.91942  -0.89408  -0.89352  -0.88979
 Alpha  occ. eigenvalues --   -0.88886  -0.88613  -0.88457  -0.87614  -0.86828
 Alpha  occ. eigenvalues --   -0.86654  -0.86230  -0.86090  -0.85649  -0.84493
 Alpha  occ. eigenvalues --   -0.84381  -0.83960  -0.83705  -0.82736  -0.82494
 Alpha  occ. eigenvalues --   -0.82357  -0.81843  -0.80971  -0.80556  -0.80204
 Alpha  occ. eigenvalues --   -0.80173  -0.78165  -0.78028  -0.77761  -0.77488
 Alpha  occ. eigenvalues --   -0.76798  -0.76495  -0.76349  -0.76005  -0.75254
 Alpha  occ. eigenvalues --   -0.75225  -0.73037  -0.72646  -0.71781  -0.71687
 Alpha  occ. eigenvalues --   -0.69642  -0.69551  -0.69018  -0.68936  -0.67922
 Alpha  occ. eigenvalues --   -0.67613  -0.66915  -0.66712  -0.66191  -0.65945
 Alpha  occ. eigenvalues --   -0.65373  -0.65096  -0.64670  -0.64541  -0.64318
 Alpha  occ. eigenvalues --   -0.63546  -0.62324  -0.62125  -0.59796  -0.59630
 Alpha  occ. eigenvalues --   -0.59555  -0.59192  -0.59123  -0.59067  -0.59051
 Alpha  occ. eigenvalues --   -0.58328  -0.58030  -0.57648  -0.57504  -0.57202
 Alpha  occ. eigenvalues --   -0.56777  -0.56538  -0.56287  -0.55661  -0.55434
 Alpha  occ. eigenvalues --   -0.55181  -0.54573  -0.54328  -0.54247  -0.53866
 Alpha  occ. eigenvalues --   -0.53673  -0.53462  -0.53365  -0.53081  -0.52960
 Alpha  occ. eigenvalues --   -0.52862  -0.52555  -0.52297  -0.52242  -0.51840
 Alpha  occ. eigenvalues --   -0.51835  -0.51724  -0.51385  -0.51314  -0.51212
 Alpha  occ. eigenvalues --   -0.51101  -0.51049  -0.50926  -0.50656  -0.50436
 Alpha  occ. eigenvalues --   -0.49979  -0.49939  -0.49871  -0.49740  -0.49668
 Alpha  occ. eigenvalues --   -0.49538  -0.49303  -0.49112  -0.48949  -0.48784
 Alpha  occ. eigenvalues --   -0.48706  -0.48595  -0.48354  -0.48187  -0.48119
 Alpha  occ. eigenvalues --   -0.47760  -0.47690  -0.47608  -0.47156  -0.47085
 Alpha  occ. eigenvalues --   -0.46977  -0.46913  -0.46797  -0.46550  -0.46421
 Alpha  occ. eigenvalues --   -0.46382  -0.46241  -0.46183  -0.46055  -0.45973
 Alpha  occ. eigenvalues --   -0.45827  -0.45718  -0.45465  -0.45250  -0.45192
 Alpha  occ. eigenvalues --   -0.44960  -0.44959  -0.44661  -0.44448  -0.43994
 Alpha  occ. eigenvalues --   -0.43947  -0.43774  -0.43615  -0.43482  -0.43449
 Alpha  occ. eigenvalues --   -0.43421  -0.43307  -0.42900  -0.42828  -0.42737
 Alpha  occ. eigenvalues --   -0.42641  -0.42562  -0.42550  -0.42429  -0.42284
 Alpha  occ. eigenvalues --   -0.42125  -0.41930  -0.41919  -0.41751  -0.41551
 Alpha  occ. eigenvalues --   -0.41122  -0.41078  -0.40830  -0.40769  -0.40574
 Alpha  occ. eigenvalues --   -0.40264  -0.39923  -0.39355  -0.39289  -0.39088
 Alpha  occ. eigenvalues --   -0.38509  -0.38469  -0.37701  -0.37411  -0.37341
 Alpha  occ. eigenvalues --   -0.37157  -0.37101  -0.36587  -0.36509  -0.36348
 Alpha  occ. eigenvalues --   -0.35842  -0.35822  -0.35046  -0.34400  -0.34383
 Alpha  occ. eigenvalues --   -0.33830  -0.33184  -0.32697  -0.31603  -0.31531
 Alpha  occ. eigenvalues --   -0.31177  -0.31110  -0.30494  -0.30110  -0.29674
 Alpha  occ. eigenvalues --   -0.29437  -0.29238  -0.28741  -0.24459  -0.24308
 Alpha  occ. eigenvalues --   -0.21126  -0.20759
 Alpha virt. eigenvalues --   -0.08987  -0.08590  -0.01797  -0.01498   0.00467
 Alpha virt. eigenvalues --    0.00920   0.01244   0.01466   0.02493   0.02635
 Alpha virt. eigenvalues --    0.04396   0.04402   0.04880   0.05403   0.05602

 Mulliken charges:
               1
     1  Mg   0.820317
     2  C   -0.030335
     3  C   -0.063574
     4  C   -0.071102
     5  C   -0.075643
     6  N   -0.309253
     7  C   -0.098406
     8  C    0.032420
     9  C   -0.088980
    10  C    0.018014
    11  C    0.083156
    12  C    0.077552
    13  C   -0.046991
    14  H    0.019771
    15  N   -0.391659
    16  C    0.125437
    17  C   -0.145337
    18  C   -0.034505
    19  C    0.142957
    20  C    0.154399
    21  C   -0.013499
    22  O   -0.198116
    23  C    0.066665
    24  N   -0.314483
    25  C    0.069819
    26  C   -0.078964
    27  C    0.038558
    28  C   -0.001193
    29  C    0.080938
    30  C    0.022885
    31  C   -0.006874
    32  N   -0.284801
    33  C    0.084275
    34  C   -0.172566
    35  C    0.043283
    36  C    0.082306
    37  C    0.114724
    38  C    0.003074
    39  O   -0.216410
    40  C    0.045261
    41  C    0.197730
    42  O   -0.231860
    43  O   -0.339258
    44  C    0.180681
    45  H   -0.019401
    46  H   -0.063784
    47  H   -0.033482
    48  H    0.001483
    49  H    0.014762
    50  H    0.026230
    51  H    0.029001
    52  H    0.019948
    53  H    0.006711
    54  H   -0.008008
    55  H    0.024305
    56  H    0.048672
    57  H    0.049567
    58  H   -0.000645
    59  H    0.036246
    60  H    0.054902
    61  H    0.021113
    62  H    0.037900
    63  H    0.025848
    64  H    0.005560
    65  H    0.018957
    66  H    0.015434
    67  H    0.020818
    68  H    0.021152
    69  H   -0.000056
    70  H    0.029357
    71  H    0.015085
    72  H    0.025946
    73  H    0.027721
    74  H    0.049110
    75  H    0.018932
    76  H    0.043774
    77  H    0.041292
    78  H    0.050536
    79  H    0.054595
    80  Mg   0.850193
    81  C   -0.068714
    82  C   -0.046562
    83  C   -0.070139
    84  C   -0.117770
    85  N   -0.248504
    86  C   -0.056112
    87  C   -0.029284
    88  C   -0.067517
    89  C    0.027848
    90  C    0.088680
    91  C    0.079555
    92  C   -0.054257
    93  H    0.008688
    94  N   -0.346057
    95  C    0.095283
    96  C   -0.125928
    97  C   -0.029143
    98  C    0.139834
    99  C    0.130524
   100  C   -0.009052
   101  O   -0.204444
   102  C    0.048537
   103  N   -0.372416
   104  C    0.069191
   105  C   -0.081037
   106  C    0.022198
   107  C    0.057903
   108  C    0.063540
   109  C    0.049697
   110  C    0.008715
   111  N   -0.354571
   112  C    0.126929
   113  C   -0.181000
   114  C   -0.063988
   115  C    0.147742
   116  C    0.135423
   117  C    0.053051
   118  O   -0.136296
   119  C    0.059764
   120  C    0.212868
   121  O   -0.206830
   122  O   -0.375237
   123  C    0.175418
   124  H   -0.030894
   125  H   -0.056688
   126  H   -0.037319
   127  H    0.003956
   128  H    0.001853
   129  H    0.021991
   130  H    0.020343
   131  H    0.014389
   132  H    0.012527
   133  H    0.016698
   134  H    0.032664
   135  H    0.027186
   136  H    0.030823
   137  H    0.030820
   138  H    0.014447
   139  H    0.024095
   140  H    0.029761
   141  H    0.037077
   142  H    0.024829
   143  H    0.007138
   144  H    0.023794
   145  H    0.015796
   146  H    0.009093
   147  H    0.014432
   148  H   -0.000381
   149  H    0.015704
   150  H    0.013730
   151  H    0.015188
   152  H    0.047884
   153  H    0.030552
   154  H    0.013037
   155  H    0.042052
   156  H    0.044657
   157  H    0.034775
   158  H    0.047266
 Sum of Mulliken charges =  -0.00000

 Dipole moment (field-independent basis, Debye):
    X=             -0.9050    Y=             -1.4765    Z=             -3.7751  Tot=              4.1534
 Quadrupole moment (field-independent basis, Debye-Ang):
   XX=           -205.1764   YY=           -577.5784   ZZ=           -506.9657
   XY=             54.6166   XZ=             68.0300   YZ=            -24.3244

 Normal termination of Gaussian 16 at Tue Aug 31 18:57:40 2021.
