 Gaussian 16, Revision A.03,
 Gaussian 16:  ES64L-G16RevA.03 25-Dec-2016

 ---------------------------------------------------
 #p cam-b3lyp/Def2SVP td=(nstates=5) density=(CIS=1)
 ---------------------------------------------------

 --------------------------------
 TDDFT excited states in gaussian
 --------------------------------
 Symbolic Z-matrix:
 Charge =  0 Multiplicity = 1

                         Standard orientation:
 ---------------------------------------------------------------------
 Center     Atomic      Atomic             Coordinates (Angstroms)
 Number     Number       Type             X           Y           Z
 ---------------------------------------------------------------------
      1         12           0        0.797515   -0.014105   -0.026802
      2          6           0       -2.704184   -0.035363    0.202810
      3          6           0        0.922928   -3.302137    0.515989
      4          6           0        4.021285    0.218823   -0.190114
      5          6           0        0.548400    3.566057    0.430428
      6          7           0       -0.752325   -1.442534    0.420266
      7          6           0       -2.080497   -1.317003    0.306201
      8          6           0       -2.798600   -2.599946    0.636685
      9          6           0       -1.620718   -3.528254    1.138285
     10          6           0       -0.415424   -2.741659    0.660655
     11          6           0       -1.549409   -3.885683    2.658387
     12          6           0       -3.466875   -3.231792   -0.689064
     13          6           0       -4.954777   -3.669247   -0.487745
     14          1           0       -5.675843   -4.002691   -1.903820
     15          7           0        2.208733   -1.348535   -0.110145
     16          6           0        2.088057   -2.712218    0.096174
     17          6           0        3.322731   -3.341261   -0.284542
     18          6           0        4.329086   -2.325530   -0.553179
     19          6           0        3.527185   -1.050898   -0.406156
     20          6           0        3.441265   -4.888940   -0.179765
     21          6           0        5.804526   -2.322907   -0.936564
     22          8           0        6.492620   -1.325094   -1.217918
     23          6           0        6.363266   -3.695753   -1.064716
     24          7           0        2.027005    1.669521    0.266352
     25          6           0        3.370418    1.417340    0.136399
     26          6           0        4.193082    2.674250    0.422014
     27          6           0        3.111203    3.779570    0.302828
     28          6           0        1.804911    2.988977    0.399100
     29          6           0        4.967156    2.514215    1.790351
     30          6           0        3.172967    4.678515   -1.004327
     31          6           0        2.541635    6.076968   -0.912941
     32          7           0       -0.735566    1.508071    0.223975
     33          6           0       -0.652427    2.857871    0.385622
     34          6           0       -1.963382    3.467456    0.375595
     35          6           0       -2.787418    2.336330    0.230886
     36          6           0       -2.010982    1.168940    0.207312
     37          6           0       -2.423638    4.939271    0.485660
     38          6           0       -4.162127    1.943100    0.094807
     39          8           0       -5.181489    2.552087   -0.099164
     40          6           0       -4.152582    0.333767    0.241799
     41          6           0       -5.080801   -0.042567   -0.827715
     42          8           0       -4.858769   -0.177878   -2.057528
     43          8           0       -6.266288   -0.206271   -0.215608
     44          6           0       -7.427606   -0.553319   -1.035945
     45          1           0        0.967139   -4.389989    0.601853
     46          1           0        5.102078    0.306952   -0.320386
     47          1           0        0.532562    4.657167    0.471443
     48          1           0       -3.606874   -2.506030    1.362457
     49          1           0       -1.521545   -4.490147    0.634912
     50          1           0       -0.685648   -3.370777    3.078932
     51          1           0       -1.392109   -4.963749    2.687138
     52          1           0       -2.390258   -3.619734    3.298011
     53          1           0       -2.922675   -4.057261   -1.149437
     54          1           0       -3.348993   -2.482724   -1.472151
     55          1           0       -5.521998   -2.880119    0.005421
     56          1           0       -5.095105   -4.594581    0.070454
     57          1           0        3.134396   -5.312861   -1.134924
     58          1           0        2.673501   -5.345638    0.445996
     59          1           0        4.343488   -5.287237    0.283816
     60          1           0        5.888501   -4.310006   -1.829008
     61          1           0        6.246124   -4.081368   -0.051222
     62          1           0        7.436007   -3.715966   -1.258926
     63          1           0        4.926494    2.723730   -0.382929
     64          1           0        3.225040    4.482306    1.128188
     65          1           0        4.510916    3.140593    2.556796
     66          1           0        6.023954    2.777297    1.827700
     67          1           0        4.914852    1.537558    2.271955
     68          1           0        2.520651    4.140668   -1.692832
     69          1           0        4.147851    4.828246   -1.468812
     70          1           0        1.664625    6.174489   -1.554134
     71          1           0        3.150947    6.951469   -1.142086
     72          1           0        2.132585    6.140510    0.094419
     73          1           0       -1.624315    5.458617    1.014306
     74          1           0       -3.366318    5.016502    1.029021
     75          1           0       -2.495265    5.313311   -0.535591
     76          1           0       -4.601099    0.051433    1.194445
     77          1           0       -7.715894   -1.579477   -0.808599
     78          1           0       -7.268816   -0.332074   -2.090841
     79          1           0       -8.274584    0.040570   -0.692624
 ---------------------------------------------------------------------

 SCF Done:  E(RCAM-B3LYP) =  -2034.89792824     A.U. after   17 cycles

 Excitation energies and oscillator strengths:

 Excited State   1:      Singlet-A      1.7272 eV  717.85 nm  f=0.0000  <S**2>=0.000
     155 ->158        -0.19757
     156 ->157         0.68093
     155 <-158        -0.11066
 This state for optimization and/or second-order correction.
 Total Energy, E(TD-HF/TD-DFT) =  -2034.83445603
 Copying the excited state density for this state as the 1-particle RhoCI density.

 Excited State   2:      Singlet-A      2.2496 eV  551.13 nm  f=0.0000  <S**2>=0.000
     155 ->157         0.61696
     156 ->158         0.33575

 Excited State   3:      Singlet-A      3.4084 eV  363.76 nm  f=0.0000  <S**2>=0.000
     153 ->157        -0.14349
     154 ->157        -0.39429
     155 ->157        -0.24040
     156 ->158         0.49525

 Excited State   4:      Singlet-A      3.4531 eV  359.05 nm  f=0.0000  <S**2>=0.000
     152 ->157        -0.13400
     153 ->157        -0.15601
     154 ->157         0.53470
     155 ->157        -0.18507
     156 ->158         0.32551

 Excited State   5:      Singlet-A      3.5820 eV  346.13 nm  f=0.0000  <S**2>=0.000
     152 ->157         0.48512
     152 ->159         0.20485
     152 ->160        -0.19792
     153 ->157        -0.33955
     154 ->157         0.13503

 The electronic state is 1-A.
 Alpha  occ. eigenvalues --  -46.87575 -19.24869 -19.19673 -19.19039 -19.18430
 Alpha  occ. eigenvalues --  -14.42600 -14.41732 -14.39460 -14.38408 -10.38571
 Alpha  occ. eigenvalues --  -10.35998 -10.34663 -10.31714 -10.31195 -10.31007
 Alpha  occ. eigenvalues --  -10.30790 -10.30607 -10.30277 -10.30117 -10.30043
 Alpha  occ. eigenvalues --  -10.29469 -10.29232 -10.28724 -10.28545 -10.28371
 Alpha  occ. eigenvalues --  -10.27867 -10.27839 -10.27745 -10.27738 -10.27715
 Alpha  occ. eigenvalues --  -10.27682 -10.27612 -10.27303 -10.26807 -10.26651
 Alpha  occ. eigenvalues --  -10.26505 -10.26435 -10.26261 -10.26066 -10.25876
 Alpha  occ. eigenvalues --  -10.25824 -10.25366 -10.24442  -3.16418  -1.91303
 Alpha  occ. eigenvalues --   -1.90885  -1.90732  -1.15938  -1.10776  -1.09394
 Alpha  occ. eigenvalues --   -1.05551  -1.05194  -1.04306  -1.03595  -1.02414
 Alpha  occ. eigenvalues --   -0.92716  -0.89114  -0.88264  -0.88050  -0.87451
 Alpha  occ. eigenvalues --   -0.86974  -0.86266  -0.84536  -0.83829  -0.82482
 Alpha  occ. eigenvalues --   -0.82273  -0.81270  -0.80304  -0.78222  -0.77323
 Alpha  occ. eigenvalues --   -0.76921  -0.75923  -0.75406  -0.72790  -0.72135
 Alpha  occ. eigenvalues --   -0.69251  -0.68801  -0.67918  -0.67220  -0.66055
 Alpha  occ. eigenvalues --   -0.65549  -0.64865  -0.64448  -0.61772  -0.60239
 Alpha  occ. eigenvalues --   -0.59844  -0.59152  -0.58642  -0.57979  -0.57158
 Alpha  occ. eigenvalues --   -0.56327  -0.55930  -0.55444  -0.54368  -0.53923
 Alpha  occ. eigenvalues --   -0.53437  -0.53218  -0.52779  -0.52559  -0.52226
 Alpha  occ. eigenvalues --   -0.51605  -0.51435  -0.51029  -0.50733  -0.50391
 Alpha  occ. eigenvalues --   -0.50170  -0.50026  -0.49427  -0.49055  -0.48929
 Alpha  occ. eigenvalues --   -0.48488  -0.48117  -0.48025  -0.47423  -0.47265
 Alpha  occ. eigenvalues --   -0.46877  -0.46507  -0.46349  -0.45912  -0.45719
 Alpha  occ. eigenvalues --   -0.45527  -0.45153  -0.44889  -0.44038  -0.43735
 Alpha  occ. eigenvalues --   -0.43564  -0.43481  -0.43100  -0.42879  -0.42864
 Alpha  occ. eigenvalues --   -0.42661  -0.42213  -0.42081  -0.41913  -0.41348
 Alpha  occ. eigenvalues --   -0.41202  -0.40821  -0.40586  -0.40323  -0.39600
 Alpha  occ. eigenvalues --   -0.38784  -0.37847  -0.37385  -0.37002  -0.35504
 Alpha  occ. eigenvalues --   -0.35223  -0.33986  -0.33938  -0.32975  -0.31730
 Alpha  occ. eigenvalues --   -0.31321  -0.30547  -0.30336  -0.29611  -0.24189
 Alpha  occ. eigenvalues --   -0.21120
 Alpha virt. eigenvalues --   -0.08443  -0.02303  -0.00296   0.02400   0.03143
 Alpha virt. eigenvalues --    0.04785   0.05136   0.06104   0.06700   0.08048
 Alpha virt. eigenvalues --    0.08518   0.09274   0.09651   0.10177   0.10694

 Mulliken charges:
               1
     1  Mg   0.843745
     2  C    0.009119
     3  C   -0.110378
     4  C   -0.098880
     5  C   -0.135656
     6  N   -0.329495
     7  C    0.062527
     8  C   -0.065202
     9  C   -0.028862
    10  C    0.068264
    11  C    0.077341
    12  C    0.061970
    13  C   -0.089117
    14  H    0.004167
    15  N   -0.478082
    16  C    0.198647
    17  C   -0.139597
    18  C   -0.114019
    19  C    0.190760
    20  C    0.089143
    21  C    0.034621
    22  O   -0.219635
    23  C    0.040208
    24  N   -0.343250
    25  C    0.112482
    26  C   -0.029889
    27  C   -0.008388
    28  C    0.090058
    29  C    0.066364
    30  C    0.036991
    31  C   -0.008840
    32  N   -0.274955
    33  C    0.159485
    34  C   -0.207446
    35  C    0.028072
    36  C    0.098799
    37  C    0.140050
    38  C    0.015091
    39  O   -0.157084
    40  C   -0.067976
    41  C    0.202396
    42  O   -0.256891
    43  O   -0.319718
    44  C    0.175289
    45  H   -0.039885
    46  H    0.000127
    47  H   -0.043189
    48  H    0.013830
    49  H    0.005400
    50  H    0.021153
    51  H    0.016147
    52  H    0.020615
    53  H    0.007251
    54  H    0.035648
    55  H    0.036330
    56  H    0.033609
    57  H    0.028984
    58  H    0.005796
    59  H    0.032358
    60  H    0.052156
    61  H    0.030438
    62  H    0.020652
    63  H    0.017789
    64  H    0.003150
    65  H   -0.000273
    66  H    0.021782
    67  H    0.019818
    68  H    0.012291
    69  H    0.018177
    70  H    0.012990
    71  H    0.020631
    72  H    0.010375
    73  H    0.013287
    74  H    0.043166
    75  H    0.041226
    76  H    0.043442
    77  H    0.032004
    78  H    0.059365
    79  H    0.031132
 Sum of Mulliken charges =  -0.00000

 Dipole moment (field-independent basis, Debye):
    X=              0.9218    Y=             -2.5030    Z=              3.4363  Tot=              4.3500
 Quadrupole moment (field-independent basis, Debye-Ang):
   XX=           -278.3496   YY=           -221.8437   ZZ=           -261.5074
   XY=             19.8014   XZ=             -2.3342   YZ=             -3.0650

 Normal termination of Gaussian 16 at Fri Oct  8 18:59:29 2021.
