 Gaussian 16, Revision A.03,
 Gaussian 16:  ES64L-G16RevA.03 25-Dec-2016

 ----------------------------------------------------------
 #p cam-b3lyp/Def2SVP td=(nstates=5) density=(transition=1)
 ----------------------------------------------------------

 --------------------------------
 TDDFT excited states in gaussian
 --------------------------------
 Symbolic Z-matrix:
 Charge =  0 Multiplicity = 1

                         Standard orientation:
 ---------------------------------------------------------------------
 Center     Atomic      Atomic             Coordinates (Angstroms)
 Number     Number       Type             X           Y           Z
 ---------------------------------------------------------------------
      1         12           0      -16.098639   -0.855745   -0.212999
      2          6           0      -18.205917    1.912957    0.688228
      3          6           0      -13.709943    1.571512   -1.199629
      4          6           0      -13.943720   -3.388255   -1.280254
      5          6           0      -18.562797   -3.033016    0.376680
      6          7           0      -16.112011    1.556168   -0.420092
      7          6           0      -17.021228    2.396364    0.119075
      8          6           0      -16.605162    3.885482   -0.159489
      9          6           0      -15.267563    3.664260   -0.952291
     10          6           0      -14.938366    2.161813   -0.796658
     11          6           0      -15.374398    4.134063   -2.445087
     12          6           0      -16.410101    4.709209    1.113183
     13          6           0      -16.990102    6.085480    1.104240
     14          1           0      -16.915689    6.927234    2.386352
     15          7           0      -14.074468   -0.945576   -0.904960
     16          6           0      -13.301776    0.159669   -1.245568
     17          6           0      -12.000648   -0.315589   -1.672398
     18          6           0      -11.987583   -1.699396   -1.615125
     19          6           0      -13.409695   -2.085715   -1.325743
     20          6           0      -10.912638    0.555948   -2.230758
     21          6           0      -10.858611   -2.747724   -1.980967
     22          8           0      -10.918229   -3.950766   -1.908514
     23          6           0       -9.473984   -2.233156   -2.310015
     24          7           0      -16.242659   -2.843515   -0.570905
     25          6           0      -15.286389   -3.728420   -0.996207
     26          6           0      -15.870583   -5.134347   -1.268118
     27          6           0      -17.264609   -5.081632   -0.509643
     28          6           0      -17.347819   -3.541769   -0.183218
     29          6           0      -15.945281   -5.481225   -2.789517
     30          6           0      -17.341678   -5.974375    0.766169
     31          6           0      -16.464888   -5.533975    1.936252
     32          7           0      -17.979274   -0.686402    0.362738
     33          6           0      -18.925793   -1.709117    0.649878
     34          6           0      -20.187684   -1.128315    1.103225
     35          6           0      -19.922177    0.250803    1.178328
     36          6           0      -18.591392    0.485707    0.742031
     37          6           0      -21.395574   -1.864838    1.456140
     38          6           0      -20.562517    1.513340    1.532818
     39          8           0      -21.669826    1.716781    2.001818
     40          6           0      -19.502322    2.678925    1.145584
     41          6           0      -19.442284    3.423000    2.481788
     42          8           0      -18.905823    3.061237    3.544550
     43          8           0      -20.131398    4.545657    2.374284
     44          6           0      -19.999351    5.604939    3.455214
     45          1           0      -12.955293    2.326011   -1.430023
     46          1           0      -13.344250   -4.244873   -1.598130
     47          1           0      -19.296725   -3.803893    0.619499
     48          1           0      -17.462340    4.307323   -0.683194
     49          1           0      -14.432466    4.190534   -0.488018
     50          1           0      -14.628177    4.857907   -2.772658
     51          1           0      -16.381967    4.416222   -2.751110
     52          1           0      -15.135466    3.386431   -3.201766
     53          1           0      -15.366129    5.005172    1.008579
     54          1           0      -16.571503    4.134953    2.026145
     55          1           0      -18.011623    6.244055    0.754843
     56          1           0      -16.363356    6.607364    0.381019
     57          1           0      -11.148851    1.612842   -2.109846
     58          1           0      -10.684862    0.395618   -3.285717
     59          1           0       -9.941128    0.466725   -1.744368
     60          1           0       -9.035824   -1.665611   -1.489106
     61          1           0       -9.668327   -1.656298   -3.214264
     62          1           0       -8.948805   -3.130440   -2.637433
     63          1           0      -15.111240   -5.808256   -0.869888
     64          1           0      -18.168499   -5.131492   -1.117168
     65          1           0      -15.245192   -6.265778   -3.076544
     66          1           0      -15.878242   -4.664717   -3.507636
     67          1           0      -16.975559   -5.828500   -2.869232
     68          1           0      -17.306809   -7.013552    0.438764
     69          1           0      -18.357975   -5.897377    1.152206
     70          1           0      -15.785050   -4.706380    1.737037
     71          1           0      -15.848067   -6.399225    2.177827
     72          1           0      -16.992306   -5.114233    2.792071
     73          1           0      -22.238775   -1.246947    1.765542
     74          1           0      -21.093845   -2.526163    2.268270
     75          1           0      -21.662352   -2.485497    0.599561
     76          1           0      -19.922872    3.407913    0.452920
     77          1           0      -20.375181    6.526564    3.010304
     78          1           0      -18.963416    5.812277    3.721725
     79          1           0      -20.505293    5.342761    4.385127
     80         12           0       16.318253   -0.561765    0.429011
     81          6           0       15.752004    2.494798   -1.348114
     82          6           0       17.785725    1.236981    2.959810
     83          6           0       17.308034   -3.406375    1.957523
     84          6           0       15.697802   -2.251745   -2.604199
     85          7           0       16.695860    1.607558    0.742417
     86          6           0       16.330626    2.701806   -0.057457
     87          6           0       16.687315    3.978140    0.660481
     88          6           0       17.759642    3.482696    1.720067
     89          6           0       17.438699    1.960519    1.784985
     90          6           0       19.187135    3.778692    1.136534
     91          6           0       15.451188    4.773075    1.211306
     92          6           0       15.594167    6.184731    0.935493
     93          1           0       14.251570    7.054289    1.125302
     94          7           0       17.250592   -0.931190    2.313127
     95          6           0       17.737972   -0.063509    3.208050
     96          6           0       18.173479   -0.776543    4.369397
     97          6           0       18.069296   -2.127422    4.112208
     98          6           0       17.448040   -2.242501    2.712659
     99          6           0       18.857178   -0.060170    5.577067
    100          6           0       18.375620   -3.319969    5.041402
    101          8           0       18.251349   -4.440384    4.615741
    102          6           0       18.737030   -3.097627    6.491107
    103          7           0       16.729195   -2.513270   -0.350616
    104          6           0       17.003558   -3.530111    0.557329
    105          6           0       16.822839   -4.870712   -0.077143
    106          6           0       16.281273   -4.508660   -1.545341
    107          6           0       16.161485   -3.003600   -1.498035
    108          6           0       18.051517   -5.714490   -0.025597
    109          6           0       14.906828   -5.226423   -2.036009
    110          6           0       14.961937   -6.091663   -3.232531
    111          7           0       15.775944   -0.057304   -1.576194
    112          6           0       15.575454   -0.877875   -2.663255
    113          6           0       15.123995   -0.002232   -3.830419
    114          6           0       15.068238    1.314006   -3.329776
    115          6           0       15.525351    1.233742   -1.967729
    116          6           0       14.835226   -0.520536   -5.245873
    117          6           0       14.871959    2.668655   -3.749142
    118          8           0       14.518231    3.131334   -4.857118
    119          6           0       15.464964    3.511592   -2.546611
    120          6           0       14.435313    4.654425   -2.297497
    121          8           0       13.619515    4.582706   -1.360173
    122          8           0       14.660391    5.673288   -3.162959
    123          6           0       13.536970    6.664937   -3.041891
    124          1           0       18.046935    1.801907    3.857483
    125          1           0       17.603008   -4.342074    2.438408
    126          1           0       15.390509   -2.690116   -3.555828
    127          1           0       17.240533    4.577479   -0.062243
    128          1           0       17.655235    4.000518    2.672853
    129          1           0       19.478378    3.103305    0.332472
    130          1           0       19.908627    3.763716    1.952329
    131          1           0       19.200416    4.795923    0.744481
    132          1           0       15.520414    4.726370    2.298364
    133          1           0       14.506552    4.341733    0.879237
    134          1           0       15.783716    6.361241   -0.123423
    135          1           0       16.379099    6.566593    1.588771
    136          1           0       18.246065   -0.376160    6.422475
    137          1           0       18.834402    1.028794    5.538177
    138          1           0       19.904808   -0.354762    5.637150
    139          1           0       19.000280   -4.041344    6.968938
    140          1           0       17.770553   -2.696958    6.796712
    141          1           0       19.555402   -2.378711    6.529109
    142          1           0       16.023539   -5.308166    0.521359
    143          1           0       17.061104   -4.808791   -2.244816
    144          1           0       17.806026   -6.504524    0.682977
    145          1           0       18.901752   -5.202339    0.424591
    146          1           0       18.384585   -6.119662   -0.981384
    147          1           0       14.295800   -4.369212   -2.318606
    148          1           0       14.454493   -5.700986   -1.166236
    149          1           0       14.346854   -5.690587   -4.037662
    150          1           0       14.427179   -6.935163   -2.797242
    151          1           0       15.974344   -6.402990   -3.493433
    152          1           0       15.765638   -0.395509   -5.798639
    153          1           0       14.039821    0.036566   -5.740827
    154          1           0       14.495041   -1.554107   -5.181356
    155          1           0       16.406875    3.881826   -2.949060
    156          1           0       12.593863    6.346422   -3.485660
    157          1           0       13.758337    7.655674   -3.437470
    158          1           0       13.420718    6.841701   -1.972431
 ---------------------------------------------------------------------

 SCF Done:  E(RCAM-B3LYP) =  -4069.76460072     A.U. after   19 cycles

 Excitation energies and oscillator strengths:

 Excited State   1:      Singlet-A      1.6510 eV  750.95 nm  f=0.3707  <S**2>=0.000
     310 -> 316        0.18395
     311 -> 313        0.68509
     310 <- 316        0.11252
 This state for optimization and/or second-order correction.
 Total Energy, E(TD-HF/TD-DFT) =  -4069.70392648
 Copying the excited state density for this state as the 1-particle RhoCI density.

 Excited State   2:      Singlet-A      1.7189 eV  721.31 nm  f=0.3544  <S**2>=0.000
     309 -> 315        0.18751
     312 -> 314        0.68226
     309 <- 315        0.10712

 Excited State   3:      Singlet-A      2.2173 eV  559.16 nm  f=0.0908  <S**2>=0.000
     310 -> 313        0.62576
     311 -> 316       -0.32044

 Excited State   4:      Singlet-A      2.2689 eV  546.45 nm  f=0.0058  <S**2>=0.000
     309 -> 314        0.54884
     312 -> 315       -0.43682

 Excited State   5:      Singlet-A      2.8531 eV  434.57 nm  f=0.0000  <S**2>=0.000
     312 -> 313        0.70709

 The electronic state is 1-A.
 Alpha  occ. eigenvalues --  -46.89444 -46.88265 -19.26179 -19.24916 -19.19777
 Alpha  occ. eigenvalues --  -19.19496 -19.19483 -19.19337 -19.18763 -19.17974
 Alpha  occ. eigenvalues --  -14.42430 -14.42281 -14.41926 -14.41522 -14.40075
 Alpha  occ. eigenvalues --  -14.39650 -14.39378 -14.39166 -10.39738 -10.38439
 Alpha  occ. eigenvalues --  -10.35686 -10.35557 -10.35365 -10.34923 -10.32180
 Alpha  occ. eigenvalues --  -10.31557 -10.31386 -10.31375 -10.31342 -10.31320
 Alpha  occ. eigenvalues --  -10.31218 -10.31209 -10.31060 -10.31011 -10.30941
 Alpha  occ. eigenvalues --  -10.30600 -10.30492 -10.29972 -10.29884 -10.29186
 Alpha  occ. eigenvalues --  -10.29016 -10.28985 -10.28841 -10.28780 -10.28749
 Alpha  occ. eigenvalues --  -10.28714 -10.28675 -10.28630 -10.28568 -10.28386
 Alpha  occ. eigenvalues --  -10.28385 -10.28340 -10.28329 -10.28259 -10.28167
 Alpha  occ. eigenvalues --  -10.28126 -10.28123 -10.28109 -10.28052 -10.27817
 Alpha  occ. eigenvalues --  -10.27503 -10.27383 -10.27362 -10.27258 -10.27026
 Alpha  occ. eigenvalues --  -10.26942 -10.26854 -10.26809 -10.26587 -10.26432
 Alpha  occ. eigenvalues --  -10.26399 -10.26304 -10.26262 -10.26191 -10.26067
 Alpha  occ. eigenvalues --  -10.26043 -10.25993 -10.25967 -10.25889 -10.25672
 Alpha  occ. eigenvalues --  -10.25392 -10.25377 -10.25369 -10.25117 -10.25036
 Alpha  occ. eigenvalues --  -10.24943  -3.17781  -3.16956  -1.92677  -1.92223
 Alpha  occ. eigenvalues --   -1.92082  -1.91841  -1.91428  -1.91261  -1.16063
 Alpha  occ. eigenvalues --   -1.15918  -1.11747  -1.11421  -1.10009  -1.07864
 Alpha  occ. eigenvalues --   -1.07146  -1.05259  -1.04094  -1.03761  -1.03098
 Alpha  occ. eigenvalues --   -1.03044  -1.02713  -1.02188  -1.01673  -1.01446
 Alpha  occ. eigenvalues --   -0.91232  -0.90835  -0.89225  -0.88949  -0.88723
 Alpha  occ. eigenvalues --   -0.88700  -0.88200  -0.87967  -0.87514  -0.87327
 Alpha  occ. eigenvalues --   -0.87259  -0.86925  -0.86420  -0.85483  -0.84421
 Alpha  occ. eigenvalues --   -0.84092  -0.83795  -0.83556  -0.82619  -0.82525
 Alpha  occ. eigenvalues --   -0.82338  -0.81474  -0.81002  -0.80686  -0.80472
 Alpha  occ. eigenvalues --   -0.80137  -0.78224  -0.78103  -0.77551  -0.77277
 Alpha  occ. eigenvalues --   -0.76926  -0.76548  -0.75950  -0.75484  -0.75098
 Alpha  occ. eigenvalues --   -0.74934  -0.72566  -0.72179  -0.71619  -0.71449
 Alpha  occ. eigenvalues --   -0.70041  -0.68808  -0.68723  -0.67875  -0.67508
 Alpha  occ. eigenvalues --   -0.67424  -0.66382  -0.66248  -0.65451  -0.65119
 Alpha  occ. eigenvalues --   -0.65092  -0.64969  -0.64541  -0.64444  -0.64307
 Alpha  occ. eigenvalues --   -0.64029  -0.62052  -0.61752  -0.59929  -0.59565
 Alpha  occ. eigenvalues --   -0.59250  -0.59125  -0.58912  -0.58442  -0.58246
 Alpha  occ. eigenvalues --   -0.57676  -0.57430  -0.57335  -0.57106  -0.56214
 Alpha  occ. eigenvalues --   -0.55990  -0.55615  -0.55568  -0.55464  -0.55067
 Alpha  occ. eigenvalues --   -0.54995  -0.54640  -0.54336  -0.54014  -0.53984
 Alpha  occ. eigenvalues --   -0.53938  -0.53559  -0.53298  -0.53186  -0.52977
 Alpha  occ. eigenvalues --   -0.52867  -0.52751  -0.52691  -0.52600  -0.52464
 Alpha  occ. eigenvalues --   -0.52400  -0.52089  -0.51921  -0.51491  -0.51260
 Alpha  occ. eigenvalues --   -0.50940  -0.50867  -0.50561  -0.50429  -0.50223
 Alpha  occ. eigenvalues --   -0.50129  -0.50083  -0.49770  -0.49576  -0.49521
 Alpha  occ. eigenvalues --   -0.49258  -0.49199  -0.49128  -0.48941  -0.48923
 Alpha  occ. eigenvalues --   -0.48657  -0.48626  -0.48410  -0.48208  -0.48102
 Alpha  occ. eigenvalues --   -0.48009  -0.47853  -0.47493  -0.47442  -0.47425
 Alpha  occ. eigenvalues --   -0.46696  -0.46626  -0.46625  -0.46554  -0.46313
 Alpha  occ. eigenvalues --   -0.46241  -0.46157  -0.46102  -0.45857  -0.45801
 Alpha  occ. eigenvalues --   -0.45475  -0.45392  -0.45211  -0.44884  -0.44645
 Alpha  occ. eigenvalues --   -0.44555  -0.44385  -0.44358  -0.44133  -0.44094
 Alpha  occ. eigenvalues --   -0.43938  -0.43756  -0.43610  -0.43499  -0.43466
 Alpha  occ. eigenvalues --   -0.43163  -0.43127  -0.43034  -0.42963  -0.42940
 Alpha  occ. eigenvalues --   -0.42851  -0.42464  -0.42377  -0.42117  -0.42013
 Alpha  occ. eigenvalues --   -0.41927  -0.41787  -0.41475  -0.41381  -0.41138
 Alpha  occ. eigenvalues --   -0.40885  -0.40789  -0.40341  -0.40235  -0.40160
 Alpha  occ. eigenvalues --   -0.39850  -0.39552  -0.39173  -0.38852  -0.38607
 Alpha  occ. eigenvalues --   -0.38560  -0.38020  -0.37876  -0.37492  -0.37280
 Alpha  occ. eigenvalues --   -0.37097  -0.36966  -0.36595  -0.36156  -0.36030
 Alpha  occ. eigenvalues --   -0.35610  -0.34800  -0.34010  -0.33877  -0.33834
 Alpha  occ. eigenvalues --   -0.33109  -0.33098  -0.32701  -0.31742  -0.31410
 Alpha  occ. eigenvalues --   -0.31407  -0.30955  -0.30770  -0.30642  -0.30327
 Alpha  occ. eigenvalues --   -0.30089  -0.29953  -0.29345  -0.24264  -0.24079
 Alpha  occ. eigenvalues --   -0.20928  -0.20215
 Alpha virt. eigenvalues --   -0.08670  -0.07586  -0.02521  -0.02004  -0.00006
 Alpha virt. eigenvalues --    0.00684   0.01802   0.02389   0.02421   0.03437
 Alpha virt. eigenvalues --    0.04846   0.05182   0.05293   0.05441   0.06000

 Mulliken charges:
               1
     1  Mg  12.000688
     2  C    5.977937
     3  C    6.023443
     4  C    6.028335
     5  C    5.992607
     6  N    6.990799
     7  C    6.029339
     8  C    5.995183
     9  C    6.006221
    10  C    5.966768
    11  C    6.002559
    12  C    5.994223
    13  C    5.998069
    14  H    1.000583
    15  N    7.009898
    16  C    5.948222
    17  C    5.985481
    18  C    5.981513
    19  C    5.956334
    20  C    6.006949
    21  C    5.987791
    22  O    7.973511
    23  C    6.003662
    24  N    7.012217
    25  C    5.957495
    26  C    6.007228
    27  C    5.995861
    28  C    6.033653
    29  C    6.005429
    30  C    5.994467
    31  C    5.993061
    32  N    6.994306
    33  C    6.040964
    34  C    6.028472
    35  C    6.004143
    36  C    6.036193
    37  C    5.997914
    38  C    6.014374
    39  O    8.028287
    40  C    6.002923
    41  C    6.003484
    42  O    8.005002
    43  O    8.000107
    44  C    5.997592
    45  H    0.989779
    46  H    0.993883
    47  H    1.012746
    48  H    0.996374
    49  H    1.001217
    50  H    0.997120
    51  H    0.987021
    52  H    1.002359
    53  H    1.009731
    54  H    0.996324
    55  H    0.996656
    56  H    1.005873
    57  H    0.981595
    58  H    0.979354
    59  H    0.980444
    60  H    0.992261
    61  H    0.995024
    62  H    0.985524
    63  H    1.002487
    64  H    0.997553
    65  H    1.000076
    66  H    1.001218
    67  H    0.986111
    68  H    1.010554
    69  H    0.995891
    70  H    1.011758
    71  H    1.008732
    72  H    0.995796
    73  H    1.015448
    74  H    1.018648
    75  H    1.018757
    76  H    1.008852
    77  H    1.004629
    78  H    1.005310
    79  H    1.001608
    80  Mg  12.000171
    81  C    5.999540
    82  C    6.000151
    83  C    6.000557
    84  C    5.999796
    85  N    6.999742
    86  C    6.000636
    87  C    5.999929
    88  C    6.000243
    89  C    5.999459
    90  C    6.000104
    91  C    5.999923
    92  C    5.999965
    93  H    1.000132
    94  N    7.000314
    95  C    5.999393
    96  C    5.999723
    97  C    5.999754
    98  C    5.999249
    99  C    6.000058
   100  C    5.999820
   101  O    7.999606
   102  C    6.000006
   103  N    7.000085
   104  C    5.999225
   105  C    6.000227
   106  C    5.999743
   107  C    6.000553
   108  C    6.000061
   109  C    5.999944
   110  C    5.999926
   111  N    6.999897
   112  C    6.000638
   113  C    6.000661
   114  C    6.000038
   115  C    6.000627
   116  C    5.999878
   117  C    6.000358
   118  O    8.000506
   119  C    5.999970
   120  C    6.000076
   121  O    8.000240
   122  O    7.999925
   123  C    5.999940
   124  H    0.999737
   125  H    0.999851
   126  H    1.000191
   127  H    0.999890
   128  H    0.999868
   129  H    0.999820
   130  H    0.999892
   131  H    0.999722
   132  H    1.000162
   133  H    1.000075
   134  H    0.999911
   135  H    0.999969
   136  H    0.999743
   137  H    0.999689
   138  H    0.999607
   139  H    0.999684
   140  H    0.999965
   141  H    0.999833
   142  H    1.000051
   143  H    1.000013
   144  H    0.999956
   145  H    0.999957
   146  H    0.999756
   147  H    1.000060
   148  H    1.000246
   149  H    1.000079
   150  H    1.000153
   151  H    0.999927
   152  H    1.000227
   153  H    1.000468
   154  H    1.000408
   155  H    1.000019
   156  H    1.000214
   157  H    0.999994
   158  H    1.000071
 Sum of Mulliken charges = 624.00000

 Dipole moment (field-independent basis, Debye):
    X=            -10.1918    Y=              0.1940    Z=              3.8084  Tot=             10.8818
 Quadrupole moment (field-independent basis, Debye-Ang):
   XX=            319.5812   YY=              1.9942   ZZ=             -2.0893
   XY=              6.1344   XZ=            -64.0559   YZ=             -2.0071

 Normal termination of Gaussian 16 at Wed Sep 22 10:54:46 2021.
