 Gaussian 16, Revision A.03,
 Gaussian 16:  ES64L-G16RevA.03 25-Dec-2016

 -----------------------------------
 #p cam-b3lyp/Def2SVP td=(nstates=5)
 -----------------------------------

 --------------------------------
 TDDFT excited states in gaussian
 --------------------------------
 Symbolic Z-matrix:
 Charge =  0 Multiplicity = 1

                         Standard orientation:
 ---------------------------------------------------------------------
 Center     Atomic      Atomic             Coordinates (Angstroms)
 Number     Number       Type             X           Y           Z
 ---------------------------------------------------------------------
      1         12           0      -28.319357    0.349994    0.363278
      2          6           0      -26.777225   -2.073115   -1.643664
      3          6           0      -27.455543    2.767429   -2.075128
      4          6           0      -29.493015    2.769693    2.436215
      5          6           0      -28.429298   -1.949554    2.936412
      6          7           0      -27.404777    0.272415   -1.654008
      7          6           0      -27.020064   -0.899098   -2.312454
      8          6           0      -26.875965   -0.602333   -3.848629
      9          6           0      -27.005531    0.924172   -3.906337
     10          6           0      -27.263503    1.376455   -2.426695
     11          6           0      -25.710909    1.555857   -4.485270
     12          6           0      -27.935669   -1.399401   -4.599433
     13          6           0      -27.639660   -1.808728   -6.032967
     14          1           0      -26.446468   -1.140583   -6.752874
     15          7           0      -28.488125    2.473789    0.243044
     16          6           0      -28.047717    3.275752   -0.826987
     17          6           0      -28.284359    4.680437   -0.543683
     18          6           0      -28.948409    4.755831    0.743556
     19          6           0      -28.981155    3.300876    1.201870
     20          6           0      -28.048603    5.816724   -1.546933
     21          6           0      -29.496429    5.944014    1.510454
     22          8           0      -30.046143    5.781005    2.591631
     23          6           0      -29.545561    7.261474    0.836921
     24          7           0      -28.944003    0.351687    2.401895
     25          6           0      -29.472006    1.461102    2.989959
     26          6           0      -30.050557    1.090969    4.380753
     27          6           0      -29.772286   -0.454720    4.533603
     28          6           0      -29.098150   -0.772868    3.173907
     29          6           0      -29.400418    1.952840    5.477847
     30          6           0      -31.039434   -1.332789    4.710932
     31          6           0      -31.188609   -1.705896    6.182615
     32          7           0      -27.652639   -1.600144    0.723966
     33          6           0      -27.683829   -2.407271    1.811879
     34          6           0      -26.857030   -3.599048    1.502302
     35          6           0      -26.577744   -3.571569    0.167312
     36          6           0      -27.050321   -2.300617   -0.248562
     37          6           0      -26.624669   -4.692748    2.531165
     38          6           0      -25.996848   -4.284589   -0.978160
     39          8           0      -25.441497   -5.376118   -1.009658
     40          6           0      -26.199110   -3.365506   -2.167341
     41          6           0      -24.881331   -3.263959   -2.814079
     42          8           0      -23.884926   -2.598585   -2.500726
     43          8           0      -24.874620   -4.143252   -3.877494
     44          6           0      -23.638196   -4.256625   -4.620145
     45          1           0      -27.245567    3.469140   -2.884768
     46          1           0      -29.947639    3.591206    2.993849
     47          1           0      -28.421560   -2.585621    3.824086
     48          1           0      -25.856612   -0.950668   -4.019354
     49          1           0      -27.757169    1.129048   -4.668618
     50          1           0      -25.119658    2.128581   -3.770570
     51          1           0      -26.037355    2.371669   -5.129616
     52          1           0      -25.048165    0.809549   -4.922900
     53          1           0      -28.838891   -0.795974   -4.504092
     54          1           0      -28.181335   -2.288733   -4.020252
     55          1           0      -28.544864   -1.678798   -6.624574
     56          1           0      -27.479103   -2.880944   -5.915013
     57          1           0      -27.532328    5.505064   -2.455112
     58          1           0      -27.448507    6.601164   -1.083874
     59          1           0      -29.002804    6.300317   -1.752715
     60          1           0      -30.238687    7.195934   -0.002128
     61          1           0      -28.542344    7.644881    0.650910
     62          1           0      -30.004581    8.022083    1.468563
     63          1           0      -31.109612    1.347728    4.373419
     64          1           0      -29.033497   -0.530726    5.332493
     65          1           0      -28.899634    1.419255    6.285166
     66          1           0      -30.299496    2.412115    5.888173
     67          1           0      -28.617344    2.623074    5.124441
     68          1           0      -30.874636   -2.322414    4.284433
     69          1           0      -31.955199   -0.860330    4.355098
     70          1           0      -32.238169   -1.500924    6.393035
     71          1           0      -30.677155   -1.032222    6.869705
     72          1           0      -30.941236   -2.738110    6.432053
     73          1           0      -26.901073   -4.436882    3.554350
     74          1           0      -25.591673   -5.037950    2.550024
     75          1           0      -27.328152   -5.501582    2.330560
     76          1           0      -26.941302   -3.826555   -2.818210
     77          1           0      -22.838096   -4.434380   -3.901118
     78          1           0      -23.393660   -3.365068   -5.197995
     79          1           0      -23.682308   -5.246117   -5.073915
     80         12           0       28.325186    0.414269   -0.680781
     81          6           0       26.310562   -2.491818   -0.264740
     82          6           0       25.550111    2.167308   -1.659840
     83          6           0       30.049647    3.395451   -0.059615
     84          6           0       30.976370   -1.282429    0.881561
     85          7           0       26.061426   -0.157590   -0.665103
     86          6           0       25.533036   -1.391723   -0.703418
     87          6           0       24.182058   -1.338681   -1.393061
     88          6           0       23.883568    0.185677   -1.793276
     89          6           0       25.361680    0.737488   -1.462734
     90          6           0       23.516997    0.243749   -3.293286
     91          6           0       23.095922   -1.919272   -0.501821
     92          6           0       23.198435   -1.616280    1.011942
     93          1           0       22.179447   -0.598668    1.593672
     94          7           0       27.892439    2.537421   -0.923279
     95          6           0       26.656516    2.991568   -1.329400
     96          6           0       26.809208    4.397543   -1.536511
     97          6           0       28.075196    4.845674   -0.997914
     98          6           0       28.783389    3.584392   -0.662642
     99          6           0       25.673417    5.280571   -1.999056
    100          6           0       28.514609    6.280054   -0.699807
    101          8           0       27.745670    7.203263   -0.886695
    102          6           0       29.807124    6.618594   -0.183882
    103          7           0       30.191516    0.999074    0.364100
    104          6           0       30.705959    2.219503    0.330870
    105          6           0       32.049276    2.327058    1.034045
    106          6           0       32.143968    0.864679    1.648936
    107          6           0       31.103504    0.115724    0.897144
    108          6           0       33.270204    2.683005    0.052770
    109          6           0       31.968046    0.912994    3.236365
    110          6           0       33.122657    0.590472    4.142106
    111          7           0       28.694377   -1.474174   -0.100354
    112          6           0       29.873812   -2.055782    0.407738
    113          6           0       29.716768   -3.515866    0.543862
    114          6           0       28.359953   -3.676600    0.263554
    115          6           0       27.706995   -2.423455   -0.006750
    116          6           0       30.800136   -4.617361    0.810292
    117          6           0       27.319759   -4.707765    0.192334
    118          8           0       27.332420   -5.939503    0.352232
    119          6           0       25.966628   -4.008404   -0.164232
    120          6           0       25.189310   -4.324492    1.066741
    121          8           0       25.506428   -4.019024    2.187687
    122          8           0       24.156528   -5.106365    0.765490
    123          6           0       23.177772   -5.484643    1.843856
    124          1           0       24.765685    2.649577   -2.246568
    125          1           0       30.725185    4.233184    0.124564
    126          1           0       31.810296   -1.683733    1.462111
    127          1           0       24.404501   -2.008728   -2.223550
    128          1           0       23.108933    0.637306   -1.172968
    129          1           0       22.513782    0.660413   -3.380754
    130          1           0       23.483769   -0.726664   -3.789230
    131          1           0       24.230006    0.932357   -3.745854
    132          1           0       23.081262   -3.004231   -0.605861
    133          1           0       22.119293   -1.523707   -0.782309
    134          1           0       24.099582   -1.118437    1.369706
    135          1           0       23.080518   -2.588783    1.490026
    136          1           0       24.744035    4.721393   -2.110062
    137          1           0       26.006897    5.801382   -2.897291
    138          1           0       25.579445    6.090022   -1.275985
    139          1           0       30.026875    6.238945    0.814185
    140          1           0       29.901659    7.703203   -0.134650
    141          1           0       30.480605    6.142648   -0.897446
    142          1           0       32.048442    2.997040    1.893453
    143          1           0       33.201512    0.645022    1.501370
    144          1           0       32.888998    2.853172   -0.954543
    145          1           0       33.918765    1.807463    0.017319
    146          1           0       33.909414    3.510529    0.364373
    147          1           0       31.264387    0.154054    3.578574
    148          1           0       31.601053    1.886337    3.559071
    149          1           0       33.085937   -0.414017    4.563790
    150          1           0       32.951466    1.334831    4.920443
    151          1           0       34.100023    0.891219    3.764373
    152          1           0       31.063410   -4.572069    1.866696
    153          1           0       31.626260   -4.424575    0.125660
    154          1           0       30.342213   -5.593512    0.651520
    155          1           0       25.625572   -4.472170   -1.090543
    156          1           0       23.497822   -6.353409    2.419558
    157          1           0       22.196451   -5.709108    1.423878
    158          1           0       23.099399   -4.595129    2.468909
 ---------------------------------------------------------------------

 SCF Done:  E(RCAM-B3LYP) =  -4069.76599752     A.U. after   19 cycles

 Excitation energies and oscillator strengths:

 Excited State   1:      Singlet-A      1.6782 eV  738.79 nm  f=0.3819  <S**2>=0.000
     310 -> 316        0.17295
     312 -> 314        0.68702
     310 <- 316        0.10453
 This state for optimization and/or second-order correction.
 Total Energy, E(TD-HF/TD-DFT) =  -4069.70432495
 Copying the excited state density for this state as the 1-particle RhoCI density.

 Excited State   2:      Singlet-A      1.6890 eV  734.08 nm  f=0.3657  <S**2>=0.000
     309 -> 315       -0.20073
     311 -> 313        0.68038
     309 <- 315       -0.11490

 Excited State   3:      Singlet-A      2.1968 eV  564.39 nm  f=0.1210  <S**2>=0.000
     310 -> 314        0.64512
     312 -> 316       -0.27388

 Excited State   4:      Singlet-A      2.1999 eV  563.59 nm  f=0.0720  <S**2>=0.000
     309 -> 313        0.61851
     311 -> 315        0.32991

 Excited State   5:      Singlet-A      3.1441 eV  394.34 nm  f=0.0000  <S**2>=0.000
     312 -> 313        0.70711

 The electronic state is 1-A.
 Alpha  occ. eigenvalues --  -46.90212 -46.89111 -19.25076 -19.24449 -19.19787
 Alpha  occ. eigenvalues --  -19.19291 -19.19199 -19.18857 -19.18853 -19.18070
 Alpha  occ. eigenvalues --  -14.42431 -14.42183 -14.41975 -14.41734 -14.40140
 Alpha  occ. eigenvalues --  -14.40113 -14.39540 -14.39196 -10.39355 -10.38726
 Alpha  occ. eigenvalues --  -10.35473 -10.35397 -10.34969 -10.34323 -10.32457
 Alpha  occ. eigenvalues --  -10.32007 -10.31986 -10.31390 -10.31199 -10.31149
 Alpha  occ. eigenvalues --  -10.30985 -10.30980 -10.30963 -10.30929 -10.30738
 Alpha  occ. eigenvalues --  -10.30705 -10.30643 -10.30078 -10.29955 -10.29850
 Alpha  occ. eigenvalues --  -10.29532 -10.29339 -10.29050 -10.28855 -10.28819
 Alpha  occ. eigenvalues --  -10.28728 -10.28587 -10.28401 -10.28398 -10.28383
 Alpha  occ. eigenvalues --  -10.28164 -10.28155 -10.28098 -10.28064 -10.28040
 Alpha  occ. eigenvalues --  -10.27850 -10.27770 -10.27764 -10.27670 -10.27663
 Alpha  occ. eigenvalues --  -10.27607 -10.27590 -10.27556 -10.27440 -10.27392
 Alpha  occ. eigenvalues --  -10.27014 -10.26989 -10.26911 -10.26798 -10.26789
 Alpha  occ. eigenvalues --  -10.26592 -10.26520 -10.26488 -10.26415 -10.26285
 Alpha  occ. eigenvalues --  -10.26221 -10.26191 -10.25786 -10.25638 -10.25522
 Alpha  occ. eigenvalues --  -10.25518 -10.25501 -10.25254 -10.25050 -10.25001
 Alpha  occ. eigenvalues --  -10.24767  -3.18519  -3.17509  -1.93383  -1.93006
 Alpha  occ. eigenvalues --   -1.92796  -1.92422  -1.91923  -1.91840  -1.17062
 Alpha  occ. eigenvalues --   -1.15787  -1.10452  -1.10215  -1.10004  -1.08818
 Alpha  occ. eigenvalues --   -1.07703  -1.06859  -1.04601  -1.04315  -1.03677
 Alpha  occ. eigenvalues --   -1.02781  -1.02632  -1.02397  -1.01621  -1.01602
 Alpha  occ. eigenvalues --   -0.93363  -0.91945  -0.89262  -0.88951  -0.88818
 Alpha  occ. eigenvalues --   -0.88775  -0.88253  -0.87959  -0.87101  -0.87088
 Alpha  occ. eigenvalues --   -0.86848  -0.86119  -0.85591  -0.85357  -0.84686
 Alpha  occ. eigenvalues --   -0.84303  -0.84044  -0.83876  -0.82853  -0.82721
 Alpha  occ. eigenvalues --   -0.82618  -0.82377  -0.81093  -0.80889  -0.80253
 Alpha  occ. eigenvalues --   -0.80014  -0.78091  -0.77900  -0.77348  -0.77254
 Alpha  occ. eigenvalues --   -0.76808  -0.76388  -0.76299  -0.75951  -0.74965
 Alpha  occ. eigenvalues --   -0.74530  -0.72856  -0.72529  -0.71721  -0.71001
 Alpha  occ. eigenvalues --   -0.69055  -0.68899  -0.68526  -0.68483  -0.68119
 Alpha  occ. eigenvalues --   -0.67918  -0.67065  -0.66681  -0.65583  -0.65418
 Alpha  occ. eigenvalues --   -0.65193  -0.64911  -0.64755  -0.64627  -0.64029
 Alpha  occ. eigenvalues --   -0.63890  -0.62417  -0.62121  -0.60284  -0.60117
 Alpha  occ. eigenvalues --   -0.59640  -0.59271  -0.59087  -0.58978  -0.58788
 Alpha  occ. eigenvalues --   -0.58690  -0.58345  -0.57802  -0.57632  -0.57262
 Alpha  occ. eigenvalues --   -0.56315  -0.55880  -0.55840  -0.55760  -0.55082
 Alpha  occ. eigenvalues --   -0.55034  -0.54905  -0.54767  -0.54508  -0.53863
 Alpha  occ. eigenvalues --   -0.53625  -0.53592  -0.53532  -0.53409  -0.53311
 Alpha  occ. eigenvalues --   -0.53056  -0.52903  -0.52811  -0.52616  -0.52490
 Alpha  occ. eigenvalues --   -0.52018  -0.51882  -0.51749  -0.51715  -0.51525
 Alpha  occ. eigenvalues --   -0.51369  -0.50765  -0.50669  -0.50326  -0.50158
 Alpha  occ. eigenvalues --   -0.49821  -0.49801  -0.49687  -0.49612  -0.49481
 Alpha  occ. eigenvalues --   -0.49299  -0.49244  -0.49212  -0.49018  -0.48947
 Alpha  occ. eigenvalues --   -0.48639  -0.48506  -0.48256  -0.48158  -0.47854
 Alpha  occ. eigenvalues --   -0.47796  -0.47392  -0.47301  -0.47124  -0.46949
 Alpha  occ. eigenvalues --   -0.46899  -0.46726  -0.46593  -0.46391  -0.46288
 Alpha  occ. eigenvalues --   -0.46026  -0.45880  -0.45800  -0.45597  -0.45305
 Alpha  occ. eigenvalues --   -0.45227  -0.45178  -0.45093  -0.44983  -0.44890
 Alpha  occ. eigenvalues --   -0.44728  -0.44443  -0.44384  -0.44352  -0.44212
 Alpha  occ. eigenvalues --   -0.43945  -0.43672  -0.43587  -0.43572  -0.43392
 Alpha  occ. eigenvalues --   -0.43209  -0.43170  -0.43031  -0.42883  -0.42797
 Alpha  occ. eigenvalues --   -0.42613  -0.42386  -0.42356  -0.41992  -0.41872
 Alpha  occ. eigenvalues --   -0.41522  -0.41490  -0.41402  -0.41282  -0.41237
 Alpha  occ. eigenvalues --   -0.41064  -0.40856  -0.40429  -0.40117  -0.40019
 Alpha  occ. eigenvalues --   -0.39969  -0.39799  -0.38922  -0.38639  -0.38459
 Alpha  occ. eigenvalues --   -0.38016  -0.37986  -0.37954  -0.37751  -0.37415
 Alpha  occ. eigenvalues --   -0.37107  -0.36743  -0.36441  -0.36378  -0.36303
 Alpha  occ. eigenvalues --   -0.35840  -0.35705  -0.34358  -0.34246  -0.34100
 Alpha  occ. eigenvalues --   -0.34081  -0.33345  -0.32612  -0.31569  -0.31452
 Alpha  occ. eigenvalues --   -0.31378  -0.31269  -0.30740  -0.30674  -0.30271
 Alpha  occ. eigenvalues --   -0.30270  -0.29978  -0.28920  -0.24279  -0.23797
 Alpha  occ. eigenvalues --   -0.21313  -0.20931
 Alpha virt. eigenvalues --   -0.08764  -0.08663  -0.02552  -0.01457   0.00190
 Alpha virt. eigenvalues --    0.00269   0.01035   0.01830   0.02432   0.02516
 Alpha virt. eigenvalues --    0.04789   0.05141   0.05194   0.05210   0.05877

 Mulliken charges:
               1
     1  Mg   0.819601
     2  C   -0.001597
     3  C   -0.062422
     4  C   -0.049435
     5  C   -0.063050
     6  N   -0.299551
     7  C   -0.121810
     8  C    0.023405
     9  C   -0.072151
    10  C    0.088165
    11  C    0.047575
    12  C    0.044029
    13  C   -0.030763
    14  H    0.030284
    15  N   -0.363604
    16  C    0.139375
    17  C   -0.154983
    18  C   -0.043585
    19  C    0.067672
    20  C    0.127889
    21  C    0.011802
    22  O   -0.199333
    23  C    0.049163
    24  N   -0.300411
    25  C    0.068921
    26  C   -0.058276
    27  C   -0.010014
    28  C    0.028458
    29  C    0.054652
    30  C    0.057282
    31  C   -0.011241
    32  N   -0.319285
    33  C    0.103424
    34  C   -0.191849
    35  C    0.027761
    36  C    0.105684
    37  C    0.107766
    38  C    0.039850
    39  O   -0.159281
    40  C    0.037410
    41  C    0.197731
    42  O   -0.232010
    43  O   -0.337877
    44  C    0.191730
    45  H   -0.027673
    46  H   -0.005023
    47  H   -0.030831
    48  H    0.010646
    49  H    0.014869
    50  H    0.011769
    51  H    0.006960
    52  H    0.029383
    53  H   -0.005472
    54  H    0.003361
    55  H    0.027381
    56  H    0.033816
    57  H    0.020963
    58  H    0.019233
    59  H    0.028881
    60  H    0.047475
    61  H    0.037047
    62  H    0.017623
    63  H    0.015757
    64  H    0.017506
    65  H    0.007131
    66  H    0.020792
    67  H    0.033857
    68  H    0.010939
    69  H    0.016090
    70  H    0.002406
    71  H    0.006564
    72  H    0.025374
    73  H   -0.003249
    74  H    0.037529
    75  H    0.027402
    76  H    0.052209
    77  H    0.027338
    78  H    0.040721
    79  H    0.034126
    80  Mg   0.809058
    81  C   -0.024280
    82  C   -0.063367
    83  C   -0.069255
    84  C   -0.046411
    85  N   -0.259845
    86  C   -0.095455
    87  C    0.047067
    88  C   -0.094975
    89  C    0.038558
    90  C    0.067252
    91  C    0.028246
    92  C   -0.086709
    93  H   -0.003172
    94  N   -0.383457
    95  C    0.151034
    96  C   -0.160425
    97  C   -0.041640
    98  C    0.173096
    99  C    0.133633
   100  C   -0.013002
   101  O   -0.204464
   102  C    0.070712
   103  N   -0.255755
   104  C    0.022698
   105  C   -0.100958
   106  C   -0.016279
   107  C    0.028507
   108  C    0.062469
   109  C    0.013442
   110  C    0.006258
   111  N   -0.412706
   112  C    0.143973
   113  C   -0.181415
   114  C    0.017264
   115  C    0.150127
   116  C    0.132503
   117  C    0.023751
   118  O   -0.196822
   119  C    0.022547
   120  C    0.168908
   121  O   -0.207064
   122  O   -0.315698
   123  C    0.170845
   124  H   -0.008627
   125  H   -0.041495
   126  H   -0.025251
   127  H    0.008615
   128  H    0.035957
   129  H    0.010343
   130  H    0.022947
   131  H    0.020735
   132  H    0.017520
   133  H    0.016129
   134  H    0.065841
   135  H    0.027703
   136  H    0.007263
   137  H    0.023918
   138  H    0.038906
   139  H    0.044554
   140  H    0.029500
   141  H    0.034960
   142  H    0.015068
   143  H   -0.005474
   144  H    0.022370
   145  H    0.010542
   146  H    0.024185
   147  H    0.012536
   148  H    0.009691
   149  H    0.031455
   150  H    0.006066
   151  H    0.005300
   152  H    0.031934
   153  H    0.034989
   154  H    0.039152
   155  H    0.037223
   156  H    0.053537
   157  H    0.040967
   158  H    0.052148
 Sum of Mulliken charges =  -0.00000

 Dipole moment (field-independent basis, Debye):
    X=             -1.5975    Y=              2.9960    Z=             -3.5633  Tot=              4.9219
 Quadrupole moment (field-independent basis, Debye-Ang):
   XX=           -198.8498   YY=           -560.3463   ZZ=           -484.6322
   XY=            -39.6239   XZ=             32.2742   YZ=             -8.4428

 Normal termination of Gaussian 16 at Wed Sep 15 20:05:04 2021.
