 Gaussian 16, Revision A.03,
 Gaussian 16:  ES64L-G16RevA.03 25-Dec-2016

 -----------------------------------
 #p cam-b3lyp/Def2SVP td=(nstates=5)
 -----------------------------------

 --------------------------------
 TDDFT excited states in gaussian
 --------------------------------
 Symbolic Z-matrix:
 Charge =  0 Multiplicity = 1

                         Standard orientation:
 ---------------------------------------------------------------------
 Center     Atomic      Atomic             Coordinates (Angstroms)
 Number     Number       Type             X           Y           Z
 ---------------------------------------------------------------------
      1         12           0      -26.534854    0.430064   -0.532838
      2          6           0      -25.078208   -1.899436    1.602768
      3          6           0      -27.039595    2.518562    2.062319
      4          6           0      -28.328016    2.414171   -2.600052
      5          6           0      -26.425473   -1.950438   -3.025033
      6          7           0      -26.098489    0.275621    1.634439
      7          6           0      -25.312939   -0.677186    2.231620
      8          6           0      -25.060765   -0.324345    3.648173
      9          6           0      -25.706837    1.047033    3.876823
     10          6           0      -26.329350    1.367048    2.449935
     11          6           0      -26.679371    1.219573    5.033248
     12          6           0      -23.467640   -0.377598    4.002033
     13          6           0      -23.002979   -1.391490    5.073655
     14          1           0      -21.939551   -1.022577    6.078604
     15          7           0      -27.437206    2.266819   -0.337065
     16          6           0      -27.561461    2.988017    0.840933
     17          6           0      -28.307946    4.168700    0.598883
     18          6           0      -28.706530    4.165930   -0.765347
     19          6           0      -28.138045    2.924367   -1.300114
     20          6           0      -28.429754    5.229193    1.762051
     21          6           0      -29.599615    5.215033   -1.425387
     22          8           0      -30.012469    5.173770   -2.594259
     23          6           0      -29.962189    6.426610   -0.685017
     24          7           0      -27.515428    0.208977   -2.469163
     25          6           0      -28.084936    1.181747   -3.150209
     26          6           0      -28.611500    0.670959   -4.510338
     27          6           0      -27.554122   -0.483155   -4.721999
     28          6           0      -27.093754   -0.765975   -3.295490
     29          6           0      -30.075986    0.111544   -4.646741
     30          6           0      -26.317920   -0.168515   -5.693716
     31          6           0      -25.429155    0.954968   -5.347376
     32          7           0      -25.925954   -1.617217   -0.763906
     33          6           0      -25.930189   -2.476173   -1.880406
     34          6           0      -25.379340   -3.739845   -1.506947
     35          6           0      -25.091413   -3.607685   -0.163124
     36          6           0      -25.346935   -2.249593    0.217533
     37          6           0      -25.412157   -4.959525   -2.290524
     38          6           0      -24.433148   -4.218066    0.894015
     39          8           0      -23.933693   -5.341661    1.012831
     40          6           0      -24.461631   -3.211610    2.133047
     41          6           0      -25.397667   -3.825866    3.120764
     42          8           0      -26.569139   -4.131342    3.042810
     43          8           0      -24.657523   -4.037973    4.210379
     44          6           0      -25.374088   -4.630562    5.386927
     45          1           0      -26.942044    3.188685    2.918953
     46          1           0      -28.774484    3.153624   -3.267078
     47          1           0      -26.337899   -2.669829   -3.841637
     48          1           0      -25.578142   -1.093065    4.220843
     49          1           0      -24.920115    1.787588    4.019155
     50          1           0      -27.583889    1.040223    4.453253
     51          1           0      -26.623546    2.171662    5.561290
     52          1           0      -26.675864    0.503213    5.854330
     53          1           0      -23.140189    0.622637    4.284046
     54          1           0      -22.845291   -0.704746    3.168733
     55          1           0      -22.539790   -2.212734    4.525975
     56          1           0      -23.842649   -1.856339    5.588634
     57          1           0      -29.484151    5.467456    1.900691
     58          1           0      -27.944586    6.051447    1.235972
     59          1           0      -28.100494    4.943536    2.761145
     60          1           0      -30.470526    6.179236    0.245886
     61          1           0      -30.792165    6.866757   -1.237241
     62          1           0      -29.162729    7.158917   -0.569476
     63          1           0      -28.331767    1.394831   -5.275882
     64          1           0      -28.137846   -1.279826   -5.182558
     65          1           0      -30.428960   -0.498604   -3.816207
     66          1           0      -30.022012   -0.448971   -5.580714
     67          1           0      -30.792252    0.927201   -4.749054
     68          1           0      -26.620576    0.062596   -6.715327
     69          1           0      -25.561574   -0.951091   -5.634267
     70          1           0      -24.766501    0.521641   -4.599543
     71          1           0      -25.854754    1.854488   -4.901553
     72          1           0      -24.770151    1.353107   -6.118234
     73          1           0      -26.411248   -5.355032   -2.103669
     74          1           0      -24.674883   -5.713520   -2.016320
     75          1           0      -25.181287   -4.804128   -3.344968
     76          1           0      -23.471597   -2.981803    2.527047
     77          1           0      -25.480355   -3.798193    6.082967
     78          1           0      -24.795639   -5.462488    5.788031
     79          1           0      -26.387629   -4.998098    5.224001
     80         12           0       26.751904   -0.671093    0.386272
     81          6           0       25.656683    2.629339    0.966107
     82          6           0       23.560733   -1.433323   -0.531655
     83          6           0       27.947746   -3.609251   -0.885988
     84          6           0       30.054699    0.566143    0.896965
     85          7           0       24.826277    0.533470    0.098513
     86          6           0       24.539849    1.798567    0.525057
     87          6           0       23.104764    2.223177    0.168516
     88          6           0       22.479490    0.746303    0.066554
     89          6           0       23.700461   -0.116716   -0.133501
     90          6           0       21.651922    0.278827    1.293798
     91          6           0       22.968217    3.005733   -1.214357
     92          6           0       21.776326    3.926988   -1.423624
     93          1           0       20.647203    3.596492   -2.422813
     94          7           0       25.911308   -2.398805   -0.579130
     95          6           0       24.560173   -2.530651   -0.717947
     96          6           0       24.219509   -3.825551   -1.112537
     97          6           0       25.479153   -4.528573   -1.208638
     98          6           0       26.546412   -3.528589   -0.922386
     99          6           0       22.798698   -4.326640   -1.341912
    100          6           0       25.567129   -5.993623   -1.571900
    101          8           0       24.512425   -6.642613   -1.793539
    102          6           0       26.908364   -6.808253   -1.585740
    103          7           0       28.696621   -1.347930    0.087050
    104          6           0       28.936958   -2.647707   -0.435091
    105          6           0       30.373586   -3.031526   -0.213553
    106          6           0       31.099782   -1.687021    0.008276
    107          6           0       29.920085   -0.765073    0.433923
    108          6           0       30.750128   -3.953752    0.968015
    109          6           0       31.781220   -1.124516   -1.347938
    110          6           0       33.163079   -1.632326   -1.731132
    111          7           0       27.636388    1.185992    1.021479
    112          6           0       28.970155    1.526441    1.189943
    113          6           0       29.119534    2.861238    1.516090
    114          6           0       27.806357    3.361733    1.499334
    115          6           0       26.947029    2.300722    1.167540
    116          6           0       30.421950    3.539276    1.803265
    117          6           0       27.041367    4.460100    1.776472
    118          8           0       27.353397    5.530899    2.258989
    119          6           0       25.658348    4.099279    1.194675
    120          6           0       25.529832    4.938317   -0.041562
    121          8           0       26.296452    4.906025   -0.953332
    122          8           0       24.439608    5.802648    0.073261
    123          6           0       24.374553    6.734341   -0.998508
    124          1           0       22.528341   -1.775006   -0.633416
    125          1           0       28.368896   -4.596973   -1.086991
    126          1           0       31.076734    0.833211    1.172874
    127          1           0       22.590174    2.696116    1.004286
    128          1           0       21.787772    0.764896   -0.775177
    129          1           0       20.627831    0.469537    0.971684
    130          1           0       21.850698    0.880757    2.180436
    131          1           0       21.774765   -0.788590    1.477917
    132          1           0       22.887706    2.301488   -2.042455
    133          1           0       23.916624    3.520304   -1.370291
    134          1           0       22.228930    4.877083   -1.711156
    135          1           0       21.317899    4.084503   -0.447470
    136          1           0       22.536098   -5.349752   -1.070788
    137          1           0       22.729307   -4.099233   -2.405410
    138          1           0       22.103171   -3.770246   -0.713569
    139          1           0       27.331676   -6.825888   -0.581815
    140          1           0       27.502739   -6.259311   -2.315875
    141          1           0       26.859771   -7.807236   -2.018863
    142          1           0       30.725212   -3.451105   -1.155551
    143          1           0       31.865611   -1.752751    0.781205
    144          1           0       31.338824   -3.482185    1.754689
    145          1           0       30.961346   -4.967854    0.628138
    146          1           0       29.800593   -4.120301    1.476434
    147          1           0       31.801494   -0.059980   -1.115461
    148          1           0       31.132549   -1.295698   -2.207230
    149          1           0       33.137251   -1.996434   -2.757841
    150          1           0       33.442367   -2.449591   -1.065589
    151          1           0       33.901019   -0.829942   -1.711208
    152          1           0       30.427929    4.442990    1.194557
    153          1           0       31.282171    2.954100    1.475823
    154          1           0       30.527182    3.830848    2.848402
    155          1           0       24.902077    4.381599    1.926292
    156          1           0       24.898317    7.648458   -0.720270
    157          1           0       23.370472    7.120356   -1.178405
    158          1           0       24.812873    6.344430   -1.915587
 ---------------------------------------------------------------------

 SCF Done:  E(RCAM-B3LYP) =  -4069.76190015     A.U. after   19 cycles

 Excitation energies and oscillator strengths:

 Excited State   1:      Singlet-A      1.7046 eV  727.34 nm  f=0.2933  <S**2>=0.000
     310 -> 316        0.17366
     312 -> 314        0.68009
     310 <- 316        0.10523
 This state for optimization and/or second-order correction.
 Total Energy, E(TD-HF/TD-DFT) =  -4069.69925593
 Copying the excited state density for this state as the 1-particle RhoCI density.

 Excited State   2:      Singlet-A      1.7067 eV  726.47 nm  f=0.4827  <S**2>=0.000
     309 -> 315       -0.18380
     311 -> 313        0.67649
     309 <- 315       -0.10727

 Excited State   3:      Singlet-A      2.1433 eV  578.46 nm  f=0.1304  <S**2>=0.000
     309 -> 313        0.65034
     311 -> 315        0.26015

 Excited State   4:      Singlet-A      2.1769 eV  569.53 nm  f=0.1386  <S**2>=0.000
     310 -> 314        0.65147
     312 -> 316       -0.26314

 Excited State   5:      Singlet-A      3.0513 eV  406.33 nm  f=0.0000  <S**2>=0.000
     312 -> 313        0.70711

 The electronic state is 1-A.
 Alpha  occ. eigenvalues --  -46.90332 -46.89366 -19.25412 -19.25069 -19.20942
 Alpha  occ. eigenvalues --  -19.19098 -19.18694 -19.18235 -19.18113 -19.17902
 Alpha  occ. eigenvalues --  -14.43195 -14.42688 -14.42025 -14.41854 -14.39839
 Alpha  occ. eigenvalues --  -14.39728 -14.39224 -14.39012 -10.39718 -10.38637
 Alpha  occ. eigenvalues --  -10.35100 -10.35043 -10.34181 -10.33375 -10.32420
 Alpha  occ. eigenvalues --  -10.32345 -10.31724 -10.31654 -10.31450 -10.31232
 Alpha  occ. eigenvalues --  -10.31007 -10.30959 -10.30734 -10.30651 -10.30309
 Alpha  occ. eigenvalues --  -10.30246 -10.30130 -10.29965 -10.29816 -10.29253
 Alpha  occ. eigenvalues --  -10.29131 -10.29117 -10.29012 -10.28696 -10.28576
 Alpha  occ. eigenvalues --  -10.28565 -10.28342 -10.28322 -10.28308 -10.28228
 Alpha  occ. eigenvalues --  -10.28180 -10.28080 -10.28071 -10.27976 -10.27910
 Alpha  occ. eigenvalues --  -10.27890 -10.27882 -10.27858 -10.27823 -10.27686
 Alpha  occ. eigenvalues --  -10.27568 -10.27549 -10.27532 -10.27505 -10.27498
 Alpha  occ. eigenvalues --  -10.27470 -10.27429 -10.27357 -10.27182 -10.26608
 Alpha  occ. eigenvalues --  -10.26525 -10.26509 -10.26498 -10.26488 -10.26403
 Alpha  occ. eigenvalues --  -10.26384 -10.26289 -10.26101 -10.26061 -10.25861
 Alpha  occ. eigenvalues --  -10.25831 -10.25677 -10.25608 -10.24757 -10.24682
 Alpha  occ. eigenvalues --  -10.24184  -3.18623  -3.17775  -1.93522  -1.93071
 Alpha  occ. eigenvalues --   -1.92921  -1.92678  -1.92209  -1.92092  -1.17660
 Alpha  occ. eigenvalues --   -1.17031  -1.10066  -1.09527  -1.09151  -1.08587
 Alpha  occ. eigenvalues --   -1.07383  -1.07338  -1.05775  -1.05448  -1.04669
 Alpha  occ. eigenvalues --   -1.04284  -1.03941  -1.03411  -1.02655  -1.01935
 Alpha  occ. eigenvalues --   -0.94361  -0.92239  -0.89246  -0.88987  -0.88775
 Alpha  occ. eigenvalues --   -0.88743  -0.88701  -0.88397  -0.87991  -0.87626
 Alpha  occ. eigenvalues --   -0.87585  -0.87121  -0.86890  -0.85930  -0.84664
 Alpha  occ. eigenvalues --   -0.84407  -0.84314  -0.83657  -0.83099  -0.82937
 Alpha  occ. eigenvalues --   -0.82034  -0.81910  -0.81589  -0.80767  -0.80713
 Alpha  occ. eigenvalues --   -0.80371  -0.78779  -0.78093  -0.77691  -0.77410
 Alpha  occ. eigenvalues --   -0.77408  -0.76971  -0.75989  -0.75975  -0.75714
 Alpha  occ. eigenvalues --   -0.75393  -0.73634  -0.73507  -0.72277  -0.71704
 Alpha  occ. eigenvalues --   -0.69510  -0.69414  -0.69118  -0.68499  -0.68457
 Alpha  occ. eigenvalues --   -0.67801  -0.67238  -0.67187  -0.66334  -0.65785
 Alpha  occ. eigenvalues --   -0.65417  -0.65388  -0.64843  -0.64772  -0.64243
 Alpha  occ. eigenvalues --   -0.63996  -0.62837  -0.62086  -0.60548  -0.60463
 Alpha  occ. eigenvalues --   -0.60176  -0.59951  -0.59636  -0.59336  -0.59209
 Alpha  occ. eigenvalues --   -0.59048  -0.58644  -0.58287  -0.58085  -0.57951
 Alpha  occ. eigenvalues --   -0.56527  -0.56464  -0.55807  -0.55804  -0.55508
 Alpha  occ. eigenvalues --   -0.55334  -0.55105  -0.55082  -0.54857  -0.54730
 Alpha  occ. eigenvalues --   -0.53870  -0.53576  -0.53416  -0.53280  -0.53220
 Alpha  occ. eigenvalues --   -0.53018  -0.52817  -0.52719  -0.52628  -0.52300
 Alpha  occ. eigenvalues --   -0.52215  -0.51931  -0.51854  -0.51466  -0.51243
 Alpha  occ. eigenvalues --   -0.51193  -0.51117  -0.50842  -0.50630  -0.50396
 Alpha  occ. eigenvalues --   -0.50173  -0.49854  -0.49827  -0.49768  -0.49754
 Alpha  occ. eigenvalues --   -0.49481  -0.49375  -0.49226  -0.49020  -0.49018
 Alpha  occ. eigenvalues --   -0.48836  -0.48530  -0.48458  -0.48380  -0.48100
 Alpha  occ. eigenvalues --   -0.47964  -0.47397  -0.47368  -0.47249  -0.47140
 Alpha  occ. eigenvalues --   -0.47029  -0.46864  -0.46696  -0.46622  -0.46420
 Alpha  occ. eigenvalues --   -0.46369  -0.46266  -0.46044  -0.46020  -0.45840
 Alpha  occ. eigenvalues --   -0.45806  -0.45306  -0.45277  -0.45100  -0.44740
 Alpha  occ. eigenvalues --   -0.44662  -0.44616  -0.44501  -0.44139  -0.44084
 Alpha  occ. eigenvalues --   -0.43872  -0.43790  -0.43750  -0.43390  -0.43356
 Alpha  occ. eigenvalues --   -0.43275  -0.43218  -0.42970  -0.42963  -0.42610
 Alpha  occ. eigenvalues --   -0.42532  -0.42522  -0.42246  -0.42206  -0.42137
 Alpha  occ. eigenvalues --   -0.41856  -0.41632  -0.41569  -0.41344  -0.41209
 Alpha  occ. eigenvalues --   -0.41096  -0.41037  -0.40995  -0.40740  -0.40526
 Alpha  occ. eigenvalues --   -0.40326  -0.40190  -0.39550  -0.39420  -0.38965
 Alpha  occ. eigenvalues --   -0.38510  -0.38090  -0.38052  -0.37827  -0.37720
 Alpha  occ. eigenvalues --   -0.37665  -0.37157  -0.37042  -0.36976  -0.36603
 Alpha  occ. eigenvalues --   -0.36396  -0.36148  -0.35520  -0.35073  -0.34503
 Alpha  occ. eigenvalues --   -0.34330  -0.33506  -0.33430  -0.31505  -0.31464
 Alpha  occ. eigenvalues --   -0.31064  -0.30557  -0.30482  -0.30466  -0.30049
 Alpha  occ. eigenvalues --   -0.30012  -0.29943  -0.29535  -0.24340  -0.24043
 Alpha  occ. eigenvalues --   -0.22054  -0.21467
 Alpha virt. eigenvalues --   -0.09609  -0.09005  -0.02498  -0.01644  -0.00096
 Alpha virt. eigenvalues --    0.00255   0.01405   0.01988   0.02437   0.02581
 Alpha virt. eigenvalues --    0.04281   0.05135   0.05316   0.05487   0.06075

 Mulliken charges:
               1
     1  Mg   0.804305
     2  C   -0.001836
     3  C   -0.056882
     4  C   -0.056472
     5  C   -0.102531
     6  N   -0.309904
     7  C   -0.028071
     8  C   -0.016358
     9  C   -0.002646
    10  C   -0.048516
    11  C    0.052473
    12  C    0.041287
    13  C   -0.079839
    14  H    0.019986
    15  N   -0.378181
    16  C    0.181713
    17  C   -0.165956
    18  C   -0.026646
    19  C    0.105808
    20  C    0.128343
    21  C    0.003910
    22  O   -0.216823
    23  C    0.054121
    24  N   -0.227515
    25  C    0.004220
    26  C    0.006873
    27  C   -0.066203
    28  C    0.078640
    29  C    0.091295
    30  C    0.063807
    31  C   -0.038708
    32  N   -0.322739
    33  C    0.102248
    34  C   -0.118860
    35  C    0.060278
    36  C    0.066505
    37  C    0.105461
    38  C    0.014136
    39  O   -0.191320
    40  C   -0.024979
    41  C    0.199675
    42  O   -0.213050
    43  O   -0.318127
    44  C    0.160234
    45  H   -0.030917
    46  H   -0.012897
    47  H   -0.027857
    48  H    0.022314
    49  H    0.007322
    50  H    0.027510
    51  H    0.019899
    52  H    0.018110
    53  H    0.017762
    54  H    0.019228
    55  H    0.036294
    56  H    0.017776
    57  H    0.016268
    58  H    0.039242
    59  H    0.030104
    60  H    0.018191
    61  H    0.019414
    62  H    0.052919
    63  H   -0.008461
    64  H   -0.003708
    65  H    0.027776
    66  H    0.020257
    67  H    0.028561
    68  H    0.010821
    69  H    0.003891
    70  H    0.002572
    71  H    0.016306
    72  H    0.015336
    73  H    0.051128
    74  H    0.031511
    75  H    0.014506
    76  H    0.028965
    77  H    0.030125
    78  H    0.050335
    79  H    0.056242
    80  Mg   0.815286
    81  C    0.014424
    82  C   -0.065245
    83  C   -0.076244
    84  C   -0.071976
    85  N   -0.233134
    86  C   -0.080877
    87  C    0.006789
    88  C   -0.104053
    89  C    0.065282
    90  C    0.076817
    91  C    0.039644
    92  C   -0.043143
    93  H    0.028187
    94  N   -0.343524
    95  C    0.106403
    96  C   -0.141781
    97  C   -0.040948
    98  C    0.143941
    99  C    0.134045
   100  C   -0.011071
   101  O   -0.242981
   102  C    0.048392
   103  N   -0.357493
   104  C    0.064214
   105  C   -0.039293
   106  C   -0.064041
   107  C    0.055473
   108  C    0.104240
   109  C    0.008800
   110  C    0.034454
   111  N   -0.298988
   112  C    0.103988
   113  C   -0.159969
   114  C    0.083445
   115  C    0.089605
   116  C    0.137605
   117  C   -0.048538
   118  O   -0.168381
   119  C   -0.001937
   120  C    0.189512
   121  O   -0.180551
   122  O   -0.329029
   123  C    0.162239
   124  H   -0.027405
   125  H   -0.039852
   126  H   -0.015041
   127  H    0.002578
   128  H    0.015782
   129  H    0.016349
   130  H    0.021275
   131  H    0.022336
   132  H    0.019976
   133  H    0.022645
   134  H    0.026585
   135  H    0.021090
   136  H    0.045657
   137  H    0.041296
   138  H    0.008727
   139  H    0.046349
   140  H    0.030952
   141  H    0.024849
   142  H    0.004664
   143  H    0.002857
   144  H    0.027597
   145  H    0.021421
   146  H   -0.005821
   147  H    0.000846
   148  H    0.012714
   149  H    0.013762
   150  H    0.012287
   151  H    0.020661
   152  H    0.032757
   153  H    0.002698
   154  H    0.040532
   155  H    0.015284
   156  H    0.028746
   157  H    0.030547
   158  H    0.044707
 Sum of Mulliken charges =  -0.00000

 Dipole moment (field-independent basis, Debye):
    X=              1.5636    Y=              2.1113    Z=              1.9825  Tot=              3.2913
 Quadrupole moment (field-independent basis, Debye-Ang):
   XX=           -486.2218   YY=           -564.3581   ZZ=           -487.2166
   XY=           -144.8956   XZ=            -32.0578   YZ=              1.5644

 Normal termination of Gaussian 16 at Tue Sep 14 22:32:59 2021.
