 Gaussian 16, Revision A.03,
 Gaussian 16:  ES64L-G16RevA.03 25-Dec-2016

 -----------------------------------
 #p cam-b3lyp/Def2SVP td=(nstates=5)
 -----------------------------------

 --------------------------------
 TDDFT excited states in gaussian
 --------------------------------
 Symbolic Z-matrix:
 Charge =  0 Multiplicity = 1

                         Standard orientation:
 ---------------------------------------------------------------------
 Center     Atomic      Atomic             Coordinates (Angstroms)
 Number     Number       Type             X           Y           Z
 ---------------------------------------------------------------------
      1         12           0       20.350249   -0.780933    0.014875
      2          6           0       19.531491    2.479217   -1.257761
      3          6           0       21.707326    0.901586    2.825276
      4          6           0       21.357169   -3.835299    1.376224
      5          6           0       19.403004   -2.227849   -2.843353
      6          7           0       20.756044    1.539122    0.574398
      7          6           0       20.223856    2.612847   -0.047853
      8          6           0       20.655132    3.929202    0.693359
      9          6           0       21.522221    3.329830    1.857643
     10          6           0       21.266386    1.805639    1.821222
     11          6           0       23.037181    3.717120    1.733260
     12          6           0       19.473150    4.755387    1.199923
     13          6           0       19.554385    6.229903    0.976752
     14          1           0       18.355721    7.104409    1.372154
     15          7           0       21.178159   -1.419619    1.883242
     16          6           0       21.665134   -0.567540    2.868863
     17          6           0       22.144675   -1.380236    3.969115
     18          6           0       21.973415   -2.716543    3.647674
     19          6           0       21.549865   -2.714228    2.206845
     20          6           0       22.851599   -0.846744    5.181862
     21          6           0       22.332037   -4.035687    4.446836
     22          8           0       22.155447   -5.178181    4.100953
     23          6           0       22.802959   -3.907188    5.879304
     24          7           0       20.529832   -2.687087   -0.644211
     25          6           0       20.948564   -3.808701    0.022900
     26          6           0       21.059041   -5.036871   -0.910505
     27          6           0       20.207912   -4.588226   -2.173702
     28          6           0       20.005719   -3.059568   -1.846626
     29          6           0       22.536730   -5.448270   -1.206720
     30          6           0       18.859945   -5.351382   -2.350348
     31          6           0       17.797725   -5.073175   -1.289170
     32          7           0       19.654946   -0.108782   -1.706086
     33          6           0       19.215303   -0.840808   -2.844131
     34          6           0       18.721064    0.065628   -3.878211
     35          6           0       18.780698    1.335681   -3.276954
     36          6           0       19.330980    1.200880   -1.974824
     37          6           0       18.220825   -0.320175   -5.192338
     38          6           0       18.486856    2.738229   -3.553026
     39          8           0       17.956900    3.242311   -4.529002
     40          6           0       19.046176    3.573428   -2.279386
     41          6           0       17.784565    4.360580   -1.916863
     42          8           0       16.737342    3.942796   -1.390643
     43          8           0       17.934663    5.611390   -2.316537
     44          6           0       16.958272    6.668941   -1.830565
     45          1           0       22.054226    1.426307    3.717562
     46          1           0       21.645459   -4.833215    1.715723
     47          1           0       19.043903   -2.772820   -3.718519
     48          1           0       21.148219    4.519311   -0.078396
     49          1           0       21.165581    3.657329    2.835116
     50          1           0       23.477490    4.208274    2.601012
     51          1           0       23.291314    4.223714    0.802004
     52          1           0       23.744348    2.887638    1.711393
     53          1           0       19.677940    4.772374    2.270524
     54          1           0       18.506183    4.298359    0.986802
     55          1           0       19.840311    6.617922   -0.002235
     56          1           0       20.362368    6.531272    1.643507
     57          1           0       22.802251    0.241017    5.224064
     58          1           0       23.903329   -1.124803    5.265957
     59          1           0       22.431651   -1.146644    6.142108
     60          1           0       22.066355   -3.417781    6.516390
     61          1           0       23.735527   -3.357707    5.750510
     62          1           0       23.091923   -4.926310    6.136257
     63          1           0       20.662518   -5.853710   -0.306447
     64          1           0       20.741595   -4.447230   -3.113857
     65          1           0       22.807707   -6.399934   -0.749621
     66          1           0       23.323351   -4.721359   -1.007467
     67          1           0       22.511850   -5.529784   -2.293534
     68          1           0       19.101300   -6.384345   -2.601410
     69          1           0       18.408546   -4.997488   -3.277068
     70          1           0       18.114270   -4.457102   -0.448318
     71          1           0       17.530552   -6.048808   -0.883903
     72          1           0       16.943661   -4.481706   -1.617068
     73          1           0       17.903284    0.507874   -5.826381
     74          1           0       17.380607   -0.983986   -4.989031
     75          1           0       19.000958   -0.906181   -5.680297
     76          1           0       19.764631    4.339922   -2.569865
     77          1           0       17.449810    7.625755   -2.008003
     78          1           0       16.786260    6.625549   -0.755526
     79          1           0       15.975321    6.600986   -2.298156
     80         12           0      -20.584579   -0.682042   -0.201302
     81          6           0      -18.497153    2.114292    0.035565
     82          6           0      -23.190872    1.435428    0.671366
     83          6           0      -22.454887   -3.333730    0.003076
     84          6           0      -17.713040   -2.650995   -0.850272
     85          7           0      -20.754873    1.491866    0.702014
     86          6           0      -19.810014    2.421556    0.527833
     87          6           0      -20.393451    3.740001    0.912486
     88          6           0      -21.772875    3.405057    1.531010
     89          6           0      -21.964985    2.030795    0.920843
     90          6           0      -21.951561    3.422902    3.050126
     91          6           0      -20.523751    4.700114   -0.312286
     92          6           0      -19.985261    6.162173   -0.189850
     93          1           0      -19.991073    6.860806    1.205600
     94          7           0      -22.629350   -0.902862    0.136205
     95          6           0      -23.529702    0.143210    0.288724
     96          6           0      -24.828360   -0.444768    0.346594
     97          6           0      -24.646864   -1.884424    0.283403
     98          6           0      -23.219911   -2.121692    0.124046
     99          6           0      -26.137817    0.340443    0.578680
    100          6           0      -25.693193   -3.027524    0.421399
    101          8           0      -25.433876   -4.188063    0.373248
    102          6           0      -27.138276   -2.591039    0.561411
    103          7           0      -20.114044   -2.677636   -0.413257
    104          6           0      -21.076330   -3.605924   -0.214090
    105          6           0      -20.585116   -5.069881   -0.384710
    106          6           0      -19.115267   -4.802039   -0.925750
    107          6           0      -18.942591   -3.296820   -0.760404
    108          6           0      -20.692990   -5.883397    1.030630
    109          6           0      -18.851206   -5.392642   -2.346407
    110          6           0      -18.961348   -4.456176   -3.536301
    111          7           0      -18.487724   -0.399535   -0.426739
    112          6           0      -17.484662   -1.264873   -0.771143
    113          6           0      -16.203920   -0.480599   -0.870817
    114          6           0      -16.579366    0.845990   -0.560310
    115          6           0      -17.979513    0.866092   -0.250161
    116          6           0      -14.809333   -1.013044   -1.059034
    117          6           0      -16.091243    2.213812   -0.402640
    118          8           0      -14.935795    2.627540   -0.534329
    119          6           0      -17.333590    3.070944   -0.179130
    120          6           0      -17.037327    3.907957    1.032194
    121          8           0      -17.086930    3.517214    2.184093
    122          8           0      -16.542813    5.045284    0.571788
    123          6           0      -15.788944    5.888069    1.486625
    124          1           0      -23.984824    2.061401    1.082848
    125          1           0      -23.091628   -4.212979   -0.112301
    126          1           0      -16.830376   -3.257343   -1.065504
    127          1           0      -19.731443    4.214485    1.636161
    128          1           0      -22.456580    4.173913    1.170902
    129          1           0      -21.082880    3.722580    3.636645
    130          1           0      -22.266251    2.440751    3.404006
    131          1           0      -22.757788    4.128744    3.248612
    132          1           0      -21.528862    4.735996   -0.731963
    133          1           0      -19.917749    4.145197   -1.028344
    134          1           0      -20.635610    6.726033   -0.859776
    135          1           0      -18.964121    6.188114   -0.569390
    136          1           0      -26.729520   -0.044483    1.409292
    137          1           0      -26.834914    0.237699   -0.253090
    138          1           0      -26.001669    1.412597    0.726327
    139          1           0      -27.442614   -1.882393   -0.209126
    140          1           0      -27.274387   -2.200980    1.570164
    141          1           0      -27.795391   -3.460283    0.587507
    142          1           0      -21.169907   -5.624438   -1.118390
    143          1           0      -18.346112   -5.300839   -0.336258
    144          1           0      -19.658096   -6.000088    1.352588
    145          1           0      -21.035529   -6.911998    0.915562
    146          1           0      -21.187246   -5.326641    1.827568
    147          1           0      -19.674550   -6.092070   -2.492012
    148          1           0      -17.915987   -5.949550   -2.400287
    149          1           0      -19.862974   -3.877488   -3.331902
    150          1           0      -19.068834   -5.167730   -4.354647
    151          1           0      -18.207111   -3.690723   -3.716995
    152          1           0      -14.657490   -2.092450   -1.063633
    153          1           0      -14.171304   -0.633451   -0.260830
    154          1           0      -14.447961   -0.539193   -1.971165
    155          1           0      -17.505583    3.833521   -0.938988
    156          1           0      -15.560254    5.535531    2.491860
    157          1           0      -16.461202    6.733592    1.635639
    158          1           0      -15.060805    6.452909    0.904368
 ---------------------------------------------------------------------

 SCF Done:  E(RCAM-B3LYP) =  -4069.79336472     A.U. after   19 cycles

 Excitation energies and oscillator strengths:

 Excited State   1:      Singlet-A      1.6510 eV  750.98 nm  f=0.3703  <S**2>=0.000
     309 -> 315       -0.18397
     312 -> 313        0.68516
     309 <- 315       -0.11254
 This state for optimization and/or second-order correction.
 Total Energy, E(TD-HF/TD-DFT) =  -4069.73269281
 Copying the excited state density for this state as the 1-particle RhoCI density.

 Excited State   2:      Singlet-A      1.7294 eV  716.93 nm  f=0.3968  <S**2>=0.000
     310 -> 316        0.18710
     311 -> 314        0.68374
     310 <- 316        0.10972

 Excited State   3:      Singlet-A      2.2139 eV  560.02 nm  f=0.0940  <S**2>=0.000
     310 -> 314        0.64211
     311 -> 316       -0.28216

 Excited State   4:      Singlet-A      2.2173 eV  559.17 nm  f=0.0974  <S**2>=0.000
     309 -> 313        0.62550
     312 -> 315        0.32014

 Excited State   5:      Singlet-A      3.1380 eV  395.11 nm  f=0.0000  <S**2>=0.000
     311 -> 313        0.70710

 The electronic state is 1-A.
 Alpha  occ. eigenvalues --  -46.88772 -46.88279 -19.26236 -19.24924 -19.19622
 Alpha  occ. eigenvalues --  -19.19501 -19.19391 -19.19349 -19.18606 -19.17983
 Alpha  occ. eigenvalues --  -14.42444 -14.41763 -14.41578 -14.41535 -14.40089
 Alpha  occ. eigenvalues --  -14.39663 -14.39294 -14.38719 -10.39131 -10.38448
 Alpha  occ. eigenvalues --  -10.35576 -10.35442 -10.35376 -10.34478 -10.32188
 Alpha  occ. eigenvalues --  -10.32032 -10.31389 -10.31356 -10.31245 -10.31223
 Alpha  occ. eigenvalues --  -10.31072 -10.31052 -10.31024 -10.30769 -10.30620
 Alpha  occ. eigenvalues --  -10.30613 -10.29987 -10.29898 -10.29717 -10.29541
 Alpha  occ. eigenvalues --  -10.29463 -10.29362 -10.29237 -10.28957 -10.28853
 Alpha  occ. eigenvalues --  -10.28761 -10.28727 -10.28583 -10.28400 -10.28396
 Alpha  occ. eigenvalues --  -10.28356 -10.28352 -10.28344 -10.28273 -10.28259
 Alpha  occ. eigenvalues --  -10.28187 -10.28124 -10.28032 -10.27543 -10.27518
 Alpha  occ. eigenvalues --  -10.27271 -10.27127 -10.27103 -10.26993 -10.26876
 Alpha  occ. eigenvalues --  -10.26819 -10.26676 -10.26668 -10.26600 -10.26585
 Alpha  occ. eigenvalues --  -10.26465 -10.26321 -10.26286 -10.26208 -10.26080
 Alpha  occ. eigenvalues --  -10.26056 -10.26003 -10.25928 -10.25885 -10.25774
 Alpha  occ. eigenvalues --  -10.25695 -10.25406 -10.25385 -10.25368 -10.25193
 Alpha  occ. eigenvalues --  -10.25056  -3.17228  -3.16969  -1.92136  -1.91855
 Alpha  occ. eigenvalues --   -1.91719  -1.91489  -1.91441  -1.91274  -1.18313
 Alpha  occ. eigenvalues --   -1.15926  -1.11440  -1.11348  -1.10020  -1.09590
 Alpha  occ. eigenvalues --   -1.08649  -1.05268  -1.04998  -1.03774  -1.03757
 Alpha  occ. eigenvalues --   -1.03112  -1.02582  -1.02202  -1.01843  -1.01687
 Alpha  occ. eigenvalues --   -0.93333  -0.90848  -0.89239  -0.88735  -0.88701
 Alpha  occ. eigenvalues --   -0.88598  -0.88004  -0.87981  -0.87340  -0.87078
 Alpha  occ. eigenvalues --   -0.86940  -0.86434  -0.86216  -0.85515  -0.84423
 Alpha  occ. eigenvalues --   -0.84106  -0.83709  -0.83567  -0.82599  -0.82351
 Alpha  occ. eigenvalues --   -0.81493  -0.81393  -0.81014  -0.80767  -0.80151
 Alpha  occ. eigenvalues --   -0.80006  -0.78119  -0.77890  -0.77321  -0.77289
 Alpha  occ. eigenvalues --   -0.76989  -0.76940  -0.76290  -0.75963  -0.75111
 Alpha  occ. eigenvalues --   -0.75097  -0.72657  -0.72579  -0.71690  -0.71633
 Alpha  occ. eigenvalues --   -0.70052  -0.69508  -0.68874  -0.68737  -0.68024
 Alpha  occ. eigenvalues --   -0.67522  -0.66263  -0.66082  -0.65465  -0.65248
 Alpha  occ. eigenvalues --   -0.65105  -0.64948  -0.64630  -0.64554  -0.64320
 Alpha  occ. eigenvalues --   -0.64042  -0.62788  -0.61763  -0.59832  -0.59638
 Alpha  occ. eigenvalues --   -0.59580  -0.59264  -0.59186  -0.58925  -0.58443
 Alpha  occ. eigenvalues --   -0.58081  -0.57689  -0.57349  -0.57290  -0.56846
 Alpha  occ. eigenvalues --   -0.56225  -0.55985  -0.55629  -0.55475  -0.55010
 Alpha  occ. eigenvalues --   -0.54940  -0.54773  -0.54657  -0.54652  -0.53950
 Alpha  occ. eigenvalues --   -0.53573  -0.53317  -0.53238  -0.53200  -0.52919
 Alpha  occ. eigenvalues --   -0.52879  -0.52704  -0.52501  -0.52411  -0.52105
 Alpha  occ. eigenvalues --   -0.52008  -0.51680  -0.51505  -0.51322  -0.51219
 Alpha  occ. eigenvalues --   -0.51023  -0.50952  -0.50878  -0.50110  -0.50098
 Alpha  occ. eigenvalues --   -0.49785  -0.49661  -0.49592  -0.49383  -0.49274
 Alpha  occ. eigenvalues --   -0.49212  -0.49180  -0.48937  -0.48826  -0.48650
 Alpha  occ. eigenvalues --   -0.48637  -0.48424  -0.48351  -0.48118  -0.48096
 Alpha  occ. eigenvalues --   -0.47945  -0.47507  -0.47437  -0.47282  -0.46875
 Alpha  occ. eigenvalues --   -0.46711  -0.46640  -0.46387  -0.46326  -0.46170
 Alpha  occ. eigenvalues --   -0.45997  -0.45881  -0.45846  -0.45816  -0.45636
 Alpha  occ. eigenvalues --   -0.45571  -0.45488  -0.45333  -0.45223  -0.44982
 Alpha  occ. eigenvalues --   -0.44897  -0.44803  -0.44431  -0.44397  -0.44145
 Alpha  occ. eigenvalues --   -0.43952  -0.43732  -0.43626  -0.43515  -0.43309
 Alpha  occ. eigenvalues --   -0.43238  -0.43141  -0.43042  -0.42975  -0.42953
 Alpha  occ. eigenvalues --   -0.42925  -0.42692  -0.42483  -0.42146  -0.42131
 Alpha  occ. eigenvalues --   -0.41800  -0.41734  -0.41630  -0.41393  -0.41183
 Alpha  occ. eigenvalues --   -0.40982  -0.40896  -0.40703  -0.40351  -0.40258
 Alpha  occ. eigenvalues --   -0.40173  -0.39598  -0.39566  -0.39272  -0.39186
 Alpha  occ. eigenvalues --   -0.38618  -0.38371  -0.38034  -0.37505  -0.37135
 Alpha  occ. eigenvalues --   -0.37085  -0.36696  -0.36608  -0.36371  -0.36195
 Alpha  occ. eigenvalues --   -0.36041  -0.35621  -0.34375  -0.34039  -0.33890
 Alpha  occ. eigenvalues --   -0.33130  -0.33111  -0.32712  -0.31424  -0.31383
 Alpha  occ. eigenvalues --   -0.30971  -0.30783  -0.30757  -0.30360  -0.30341
 Alpha  occ. eigenvalues --   -0.29967  -0.29898  -0.28930  -0.24093  -0.23768
 Alpha  occ. eigenvalues --   -0.21049  -0.20942
 Alpha virt. eigenvalues --   -0.08684  -0.08461  -0.02017  -0.01495   0.00219
 Alpha virt. eigenvalues --    0.00670   0.02406   0.02842   0.02899   0.03427
 Alpha virt. eigenvalues --    0.05090   0.05170   0.05282   0.05629   0.05922

 Mulliken charges:
               1
     1  Mg   0.847270
     2  C    0.045363
     3  C   -0.060548
     4  C   -0.047702
     5  C   -0.098791
     6  N   -0.248837
     7  C   -0.052991
     8  C   -0.041267
     9  C   -0.032684
    10  C    0.025028
    11  C    0.061903
    12  C    0.091701
    13  C   -0.097213
    14  H    0.015915
    15  N   -0.370673
    16  C    0.163342
    17  C   -0.136138
    18  C   -0.047588
    19  C    0.113905
    20  C    0.100995
    21  C    0.008291
    22  O   -0.184750
    23  C    0.055711
    24  N   -0.324698
    25  C    0.018156
    26  C   -0.032836
    27  C   -0.028959
    28  C    0.038304
    29  C    0.074280
    30  C    0.042206
    31  C    0.003859
    32  N   -0.436342
    33  C    0.150834
    34  C   -0.152943
    35  C    0.006760
    36  C    0.125980
    37  C    0.128413
    38  C    0.055362
    39  O   -0.163315
    40  C   -0.066581
    41  C    0.185894
    42  O   -0.258952
    43  O   -0.310143
    44  C    0.186771
    45  H   -0.026641
    46  H   -0.004536
    47  H   -0.031264
    48  H    0.015136
    49  H    0.010161
    50  H    0.011116
    51  H    0.016485
    52  H    0.004587
    53  H   -0.000455
    54  H    0.045826
    55  H    0.026991
    56  H    0.015929
    57  H   -0.001698
    58  H    0.033546
    59  H    0.015873
    60  H    0.054934
    61  H    0.014224
    62  H    0.026505
    63  H    0.013908
    64  H    0.017077
    65  H    0.026032
    66  H    0.025169
    67  H    0.002866
    68  H    0.013547
    69  H   -0.002120
    70  H    0.021592
    71  H    0.022765
    72  H    0.019906
    73  H    0.040182
    74  H    0.029359
    75  H    0.021981
    76  H    0.037303
    77  H    0.039477
    78  H    0.037724
    79  H    0.054220
    80  Mg   0.807177
    81  C    0.010121
    82  C   -0.042636
    83  C   -0.040224
    84  C   -0.078412
    85  N   -0.217026
    86  C   -0.014041
    87  C   -0.051637
    88  C   -0.035673
    89  C   -0.041062
    90  C    0.091915
    91  C    0.029467
    92  C   -0.055142
    93  H    0.020712
    94  N   -0.403181
    95  C    0.176101
    96  C   -0.142593
    97  C   -0.065083
    98  C    0.100898
    99  C    0.112274
   100  C    0.006119
   101  O   -0.163619
   102  C    0.038904
   103  N   -0.314212
   104  C    0.051139
   105  C   -0.056833
   106  C   -0.004280
   107  C    0.059403
   108  C    0.060122
   109  C    0.013051
   110  C    0.020701
   111  N   -0.344780
   112  C    0.108672
   113  C   -0.166482
   114  C    0.012400
   115  C    0.108761
   116  C    0.113976
   117  C    0.067814
   118  O   -0.178260
   119  C   -0.028054
   120  C    0.157574
   121  O   -0.218722
   122  O   -0.295395
   123  C    0.187434
   124  H   -0.031112
   125  H   -0.001852
   126  H   -0.034022
   127  H    0.016160
   128  H   -0.005356
   129  H    0.024654
   130  H    0.019617
   131  H    0.007975
   132  H    0.014557
   133  H    0.002825
   134  H    0.029674
   135  H    0.038950
   136  H    0.016294
   137  H    0.018545
   138  H    0.011098
   139  H    0.037278
   140  H    0.030731
   141  H    0.013000
   142  H    0.024796
   143  H    0.004428
   144  H   -0.001473
   145  H    0.023636
   146  H    0.037584
   147  H   -0.001805
   148  H    0.004106
   149  H    0.009607
   150  H    0.020960
   151  H    0.019984
   152  H    0.016263
   153  H    0.039070
   154  H    0.036377
   155  H    0.044879
   156  H    0.067419
   157  H    0.009490
   158  H    0.038273
 Sum of Mulliken charges =  -0.00000

 Dipole moment (field-independent basis, Debye):
    X=              2.1929    Y=              2.0549    Z=              0.8428  Tot=              3.1212
 Quadrupole moment (field-independent basis, Debye-Ang):
   XX=           -330.7789   YY=           -474.3470   ZZ=           -512.3563
   XY=            -48.6849   XZ=             67.2949   YZ=             37.1901

 Normal termination of Gaussian 16 at Wed Sep 15 11:50:00 2021.
