 Gaussian 16, Revision A.03,
 Gaussian 16:  ES64L-G16RevA.03 25-Dec-2016

 -----------------------------------
 #p cam-b3lyp/Def2SVP td=(nstates=5)
 -----------------------------------

 --------------------------------
 TDDFT excited states in gaussian
 --------------------------------
 Symbolic Z-matrix:
 Charge =  0 Multiplicity = 1

                         Standard orientation:
 ---------------------------------------------------------------------
 Center     Atomic      Atomic             Coordinates (Angstroms)
 Number     Number       Type             X           Y           Z
 ---------------------------------------------------------------------
      1         12           0      -21.466686    0.229854    0.068413
      2          6           0      -18.461236    1.422327   -0.986616
      3          6           0      -22.211769   -0.626210   -3.281288
      4          6           0      -23.823025   -1.837841    1.220147
      5          6           0      -20.399710    0.637108    3.494537
      6          7           0      -20.447660    0.422071   -1.843709
      7          6           0      -19.274148    0.899412   -2.096169
      8          6           0      -19.003927    1.105978   -3.628958
      9          6           0      -20.357518    0.704106   -4.329287
     10          6           0      -21.127139    0.140173   -3.085533
     11          6           0      -21.013627    1.772571   -5.204924
     12          6           0      -17.670123    0.294622   -4.138447
     13          6           0      -17.192757   -0.903158   -3.333335
     14          1           0      -16.264862   -1.942661   -3.962072
     15          7           0      -22.819089   -1.058541   -0.911054
     16          6           0      -23.024177   -1.223347   -2.259819
     17          6           0      -24.023907   -2.178052   -2.470696
     18          6           0      -24.508209   -2.601469   -1.173153
     19          6           0      -23.680872   -1.851908   -0.191359
     20          6           0      -24.544713   -2.464886   -3.867083
     21          6           0      -25.632273   -3.632252   -0.963904
     22          8           0      -26.157344   -4.136441   -1.981986
     23          6           0      -26.136879   -4.074765    0.303771
     24          7           0      -21.953352   -0.647545    2.131599
     25          6           0      -23.079310   -1.291325    2.254144
     26          6           0      -23.490448   -1.521347    3.736314
     27          6           0      -22.424241   -0.683998    4.475928
     28          6           0      -21.483717   -0.136805    3.327346
     29          6           0      -24.866632   -1.072158    4.072552
     30          6           0      -21.648485   -1.518725    5.600603
     31          6           0      -21.937751   -1.103556    7.101624
     32          7           0      -19.862279    0.982185    1.121800
     33          6           0      -19.549925    1.131180    2.478867
     34          6           0      -18.230419    1.827428    2.590763
     35          6           0      -17.789084    1.901463    1.261987
     36          6           0      -18.784767    1.351234    0.401317
     37          6           0      -17.520885    2.263580    3.778387
     38          6           0      -16.679393    2.296443    0.522502
     39          8           0      -15.597457    2.826434    0.815009
     40          6           0      -17.088080    2.097484   -0.964737
     41          6           0      -16.951203    3.458722   -1.687355
     42          8           0      -16.318497    3.700892   -2.701053
     43          8           0      -17.657749    4.457801   -1.053374
     44          6           0      -17.579000    5.810124   -1.618415
     45          1           0      -22.328127   -0.892711   -4.333703
     46          1           0      -24.672589   -2.368122    1.654990
     47          1           0      -20.169174    0.907622    4.526966
     48          1           0      -18.944071    2.183771   -3.782556
     49          1           0      -20.246698   -0.176230   -4.963159
     50          1           0      -21.962562    2.076017   -4.763151
     51          1           0      -21.235862    1.404877   -6.207348
     52          1           0      -20.408389    2.656503   -5.406252
     53          1           0      -16.943693    1.105109   -4.202244
     54          1           0      -17.759014   -0.178419   -5.116657
     55          1           0      -18.125144   -1.383151   -3.037223
     56          1           0      -16.758236   -0.480537   -2.427240
     57          1           0      -25.606556   -2.347782   -4.085154
     58          1           0      -24.203193   -3.455680   -4.167650
     59          1           0      -24.046573   -1.799740   -4.572183
     60          1           0      -26.594525   -3.332088    0.957052
     61          1           0      -25.318258   -4.403666    0.943125
     62          1           0      -26.775949   -4.954729    0.237559
     63          1           0      -23.498077   -2.539787    4.124451
     64          1           0      -22.820983    0.236244    4.904876
     65          1           0      -25.597228   -1.872208    4.190899
     66          1           0      -25.315013   -0.544247    3.230147
     67          1           0      -24.853289   -0.464636    4.977302
     68          1           0      -20.580801   -1.329592    5.481340
     69          1           0      -21.885026   -2.581778    5.616091
     70          1           0      -22.114242   -1.996572    7.699871
     71          1           0      -22.890063   -0.573552    7.123189
     72          1           0      -21.015086   -0.633882    7.443002
     73          1           0      -18.311105    2.508644    4.488417
     74          1           0      -16.931499    3.156776    3.568118
     75          1           0      -16.832927    1.458257    4.034108
     76          1           0      -16.330177    1.580587   -1.552929
     77          1           0      -17.795389    6.525446   -0.824721
     78          1           0      -18.283612    6.081569   -2.404339
     79          1           0      -16.628782    6.028769   -2.106519
     80         12           0       20.622667   -0.924597   -0.251087
     81          6           0       21.457733    2.515127    0.289608
     82          6           0       17.454697   -0.289148    0.912562
     83          6           0       19.884412   -4.220290   -0.285823
     84          6           0       24.084746   -1.563390   -0.468595
     85          7           0       19.606472    0.908848    0.492285
     86          6           0       20.086494    2.225629    0.571286
     87          6           0       18.965506    3.133681    1.007769
     88          6           0       17.940139    2.115354    1.663289
     89          6           0       18.395647    0.772540    1.020169
     90          6           0       18.154855    2.148273    3.218497
     91          6           0       18.417945    4.070197   -0.126451
     92          6           0       18.223945    5.411787    0.375336
     93          1           0       18.010321    6.537301   -0.757054
     94          7           0       18.809788   -1.994908    0.100378
     95          6           0       17.624638   -1.546478    0.531222
     96          6           0       16.678101   -2.619112    0.512890
     97          6           0       17.346803   -3.780902    0.188924
     98          6           0       18.799492   -3.367052   -0.087409
     99          6           0       15.212268   -2.443242    1.022307
    100          6           0       16.785368   -5.205440    0.002140
    101          8           0       17.545518   -6.105370   -0.251355
    102          6           0       15.297268   -5.461519    0.043112
    103          7           0       21.875889   -2.653267   -0.089220
    104          6           0       21.286498   -3.900559   -0.263818
    105          6           0       22.318824   -4.937182   -0.567369
    106          6           0       23.677573   -4.084595   -0.650305
    107          6           0       23.196938   -2.665889   -0.455226
    108          6           0       22.317696   -6.068373    0.404574
    109          6           0       24.588963   -4.253841   -1.986629
    110          6           0       25.963955   -4.771921   -1.830642
    111          7           0       22.441824    0.195382   -0.175334
    112          6           0       23.744072   -0.239122   -0.278251
    113          6           0       24.649438    0.990356   -0.239065
    114          6           0       23.790167    2.102349   -0.132481
    115          6           0       22.459801    1.561162   -0.044111
    116          6           0       26.182875    0.943149   -0.282381
    117          6           0       23.805711    3.519413    0.070394
    118          8           0       24.764269    4.323831    0.100134
    119          6           0       22.321709    3.838823    0.522053
    120          6           0       21.916386    5.118073   -0.270120
    121          8           0       21.197963    5.038065   -1.283388
    122          8           0       22.380455    6.220604    0.367715
    123          6           0       22.156992    7.417125   -0.514613
    124          1           0       16.397261   -0.061051    1.064187
    125          1           0       19.667306   -5.290534   -0.320967
    126          1           0       25.162203   -1.647835   -0.623992
    127          1           0       19.367266    3.721342    1.832894
    128          1           0       16.907456    2.385388    1.445373
    129          1           0       19.064151    1.643655    3.544115
    130          1           0       17.271909    1.732989    3.702484
    131          1           0       18.211550    3.188011    3.541561
    132          1           0       17.401141    3.734865   -0.332196
    133          1           0       19.020692    4.010138   -1.032957
    134          1           0       19.131004    5.790169    0.846993
    135          1           0       17.362191    5.388666    1.042834
    136          1           0       14.619353   -2.782774    0.173077
    137          1           0       14.922208   -1.415783    1.241549
    138          1           0       15.067279   -3.017177    1.937458
    139          1           0       15.090849   -6.529807   -0.023048
    140          1           0       15.053418   -4.903022   -0.860561
    141          1           0       14.904441   -5.026093    0.961865
    142          1           0       22.026236   -5.276274   -1.561280
    143          1           0       24.291925   -4.399943    0.192670
    144          1           0       21.934764   -6.913383   -0.166231
    145          1           0       21.595727   -5.937230    1.210447
    146          1           0       23.280156   -6.295269    0.863722
    147          1           0       24.697681   -3.220275   -2.315182
    148          1           0       23.994330   -4.790012   -2.725043
    149          1           0       26.701676   -4.029655   -2.134346
    150          1           0       25.902632   -5.519184   -2.621067
    151          1           0       26.130980   -5.271169   -0.875227
    152          1           0       26.505091    0.944858    0.758302
    153          1           0       26.613083    1.801504   -0.798286
    154          1           0       26.493785    0.059517   -0.839774
    155          1           0       22.426640    4.027398    1.589603
    156          1           0       22.829975    7.489511   -1.368830
    157          1           0       22.189669    8.376490    0.000746
    158          1           0       21.120407    7.344278   -0.844295
 ---------------------------------------------------------------------

 SCF Done:  E(RCAM-B3LYP) =  -4069.74789214     A.U. after   19 cycles

 Excitation energies and oscillator strengths:

 Excited State   1:      Singlet-A      1.7058 eV  726.83 nm  f=0.4649  <S**2>=0.000
     309 -> 316       -0.16071
     311 -> 313        0.68815
     309 <- 316       -0.10264
 This state for optimization and/or second-order correction.
 Total Energy, E(TD-HF/TD-DFT) =  -4069.68520420
 Copying the excited state density for this state as the 1-particle RhoCI density.

 Excited State   2:      Singlet-A      1.7189 eV  721.30 nm  f=0.3255  <S**2>=0.000
     310 -> 315        0.18737
     312 -> 314        0.68172
     310 <- 315        0.10704

 Excited State   3:      Singlet-A      2.2508 eV  550.84 nm  f=0.1195  <S**2>=0.000
     309 -> 313        0.64223
     311 -> 316        0.27237

 Excited State   4:      Singlet-A      2.2689 eV  546.45 nm  f=0.0058  <S**2>=0.000
     310 -> 314        0.54882
     312 -> 315       -0.43684

 Excited State   5:      Singlet-A      2.6604 eV  466.04 nm  f=0.0000  <S**2>=0.000
     312 -> 313        0.70710

 The electronic state is 1-A.
 Alpha  occ. eigenvalues --  -46.90364 -46.89395 -19.26124 -19.24947 -19.20164
 Alpha  occ. eigenvalues --  -19.19722 -19.19449 -19.19020 -19.18713 -19.17469
 Alpha  occ. eigenvalues --  -14.43248 -14.42232 -14.41975 -14.41878 -14.40589
 Alpha  occ. eigenvalues --  -14.39872 -14.39330 -14.39117 -10.39772 -10.39684
 Alpha  occ. eigenvalues --  -10.35638 -10.34872 -10.34767 -10.34306 -10.33052
 Alpha  occ. eigenvalues --  -10.31821 -10.31556 -10.31500 -10.31337 -10.31317
 Alpha  occ. eigenvalues --  -10.31273 -10.31170 -10.30892 -10.30802 -10.30790
 Alpha  occ. eigenvalues --  -10.30696 -10.30445 -10.30428 -10.29685 -10.29351
 Alpha  occ. eigenvalues --  -10.29316 -10.29138 -10.29077 -10.28967 -10.28933
 Alpha  occ. eigenvalues --  -10.28857 -10.28731 -10.28626 -10.28581 -10.28518
 Alpha  occ. eigenvalues --  -10.28474 -10.28344 -10.28118 -10.28075 -10.28067
 Alpha  occ. eigenvalues --  -10.28001 -10.27771 -10.27769 -10.27612 -10.27331
 Alpha  occ. eigenvalues --  -10.27318 -10.27224 -10.27143 -10.27118 -10.27089
 Alpha  occ. eigenvalues --  -10.26982 -10.26957 -10.26894 -10.26886 -10.26756
 Alpha  occ. eigenvalues --  -10.26452 -10.26385 -10.26352 -10.26255 -10.26212
 Alpha  occ. eigenvalues --  -10.26204 -10.26054 -10.25918 -10.25846 -10.25697
 Alpha  occ. eigenvalues --  -10.25662 -10.25327 -10.25063 -10.24994 -10.24958
 Alpha  occ. eigenvalues --  -10.24894  -3.18771  -3.17733  -1.93649  -1.93259
 Alpha  occ. eigenvalues --   -1.93038  -1.92629  -1.92175  -1.92034  -1.16191
 Alpha  occ. eigenvalues --   -1.16008  -1.11700  -1.09106  -1.07813  -1.07663
 Alpha  occ. eigenvalues --   -1.07403  -1.07092  -1.05085  -1.04560  -1.04046
 Alpha  occ. eigenvalues --   -1.03692  -1.02995  -1.02666  -1.02299  -1.01397
 Alpha  occ. eigenvalues --   -0.93050  -0.91183  -0.89721  -0.89479  -0.89038
 Alpha  occ. eigenvalues --   -0.88898  -0.88650  -0.88375  -0.88155  -0.87851
 Alpha  occ. eigenvalues --   -0.87465  -0.87212  -0.85434  -0.85346  -0.84698
 Alpha  occ. eigenvalues --   -0.84373  -0.84243  -0.83747  -0.83002  -0.82569
 Alpha  occ. eigenvalues --   -0.82560  -0.82476  -0.81512  -0.80637  -0.80420
 Alpha  occ. eigenvalues --   -0.80321  -0.78531  -0.78175  -0.77504  -0.77446
 Alpha  occ. eigenvalues --   -0.77017  -0.76498  -0.76406  -0.75433  -0.75330
 Alpha  occ. eigenvalues --   -0.74886  -0.73451  -0.72131  -0.72004  -0.71400
 Alpha  occ. eigenvalues --   -0.69616  -0.68972  -0.68760  -0.68460  -0.67830
 Alpha  occ. eigenvalues --   -0.67375  -0.66890  -0.66331  -0.66085  -0.65706
 Alpha  occ. eigenvalues --   -0.65070  -0.64921  -0.64920  -0.64595  -0.64395
 Alpha  occ. eigenvalues --   -0.64258  -0.63387  -0.62000  -0.60952  -0.60008
 Alpha  occ. eigenvalues --   -0.59880  -0.59075  -0.58996  -0.58573  -0.58394
 Alpha  occ. eigenvalues --   -0.58197  -0.58074  -0.57379  -0.57304  -0.57055
 Alpha  occ. eigenvalues --   -0.56380  -0.55942  -0.55667  -0.55653  -0.55516
 Alpha  occ. eigenvalues --   -0.55018  -0.54865  -0.54596  -0.54283  -0.53966
 Alpha  occ. eigenvalues --   -0.53935  -0.53917  -0.53556  -0.53509  -0.53303
 Alpha  occ. eigenvalues --   -0.52928  -0.52928  -0.52706  -0.52647  -0.52550
 Alpha  occ. eigenvalues --   -0.52414  -0.52281  -0.51871  -0.51538  -0.51301
 Alpha  occ. eigenvalues --   -0.51211  -0.50985  -0.50734  -0.50515  -0.50379
 Alpha  occ. eigenvalues --   -0.50315  -0.50176  -0.50082  -0.49951  -0.49615
 Alpha  occ. eigenvalues --   -0.49472  -0.49273  -0.49078  -0.49045  -0.48891
 Alpha  occ. eigenvalues --   -0.48870  -0.48611  -0.48602  -0.48343  -0.48158
 Alpha  occ. eigenvalues --   -0.47960  -0.47803  -0.47704  -0.47455  -0.47392
 Alpha  occ. eigenvalues --   -0.47233  -0.46885  -0.46802  -0.46579  -0.46505
 Alpha  occ. eigenvalues --   -0.46233  -0.46193  -0.46053  -0.45932  -0.45808
 Alpha  occ. eigenvalues --   -0.45771  -0.45346  -0.45298  -0.45059  -0.44915
 Alpha  occ. eigenvalues --   -0.44647  -0.44597  -0.44503  -0.44502  -0.44309
 Alpha  occ. eigenvalues --   -0.44045  -0.43871  -0.43706  -0.43638  -0.43416
 Alpha  occ. eigenvalues --   -0.43115  -0.42985  -0.42800  -0.42739  -0.42715
 Alpha  occ. eigenvalues --   -0.42326  -0.42299  -0.42120  -0.42052  -0.41962
 Alpha  occ. eigenvalues --   -0.41876  -0.41534  -0.41426  -0.41089  -0.40999
 Alpha  occ. eigenvalues --   -0.40898  -0.40762  -0.40742  -0.40184  -0.40030
 Alpha  occ. eigenvalues --   -0.39881  -0.39803  -0.39115  -0.38806  -0.38767
 Alpha  occ. eigenvalues --   -0.38510  -0.38083  -0.37891  -0.37832  -0.37229
 Alpha  occ. eigenvalues --   -0.37046  -0.36916  -0.36908  -0.36571  -0.36441
 Alpha  occ. eigenvalues --   -0.36108  -0.34858  -0.34747  -0.34343  -0.34086
 Alpha  occ. eigenvalues --   -0.33957  -0.33785  -0.33059  -0.31694  -0.31654
 Alpha  occ. eigenvalues --   -0.31360  -0.31125  -0.30964  -0.30592  -0.30216
 Alpha  occ. eigenvalues --   -0.30040  -0.29296  -0.29064  -0.24983  -0.24216
 Alpha  occ. eigenvalues --   -0.21710  -0.20166
 Alpha virt. eigenvalues --   -0.09568  -0.07537  -0.02473  -0.01939  -0.00072
 Alpha virt. eigenvalues --    0.00043   0.00584   0.01852   0.02170   0.02437
 Alpha virt. eigenvalues --    0.04901   0.04965   0.05217   0.05391   0.05493

 Mulliken charges:
               1
     1  Mg   0.825826
     2  C    0.014953
     3  C   -0.064103
     4  C   -0.034108
     5  C   -0.085234
     6  N   -0.280196
     7  C   -0.033785
     8  C   -0.003287
     9  C   -0.057036
    10  C    0.024091
    11  C    0.073099
    12  C    0.009606
    13  C   -0.045376
    14  H    0.044557
    15  N   -0.376611
    16  C    0.139191
    17  C   -0.133917
    18  C   -0.051310
    19  C    0.178985
    20  C    0.140051
    21  C    0.018702
    22  O   -0.238736
    23  C    0.063172
    24  N   -0.229416
    25  C   -0.016350
    26  C   -0.028453
    27  C    0.002441
    28  C    0.020958
    29  C    0.047830
    30  C    0.001345
    31  C   -0.010168
    32  N   -0.376977
    33  C    0.118807
    34  C   -0.164102
    35  C    0.035753
    36  C    0.123873
    37  C    0.127105
    38  C    0.044556
    39  O   -0.184400
    40  C   -0.043132
    41  C    0.174919
    42  O   -0.212617
    43  O   -0.339377
    44  C    0.178545
    45  H   -0.011501
    46  H   -0.063571
    47  H   -0.026499
    48  H    0.025725
    49  H    0.012388
    50  H    0.017809
    51  H    0.012589
    52  H    0.020259
    53  H    0.032811
    54  H    0.016819
    55  H    0.030201
    56  H    0.016146
    57  H    0.037020
    58  H    0.022641
    59  H   -0.021574
    60  H    0.042216
    61  H    0.019885
    62  H    0.027740
    63  H    0.019240
    64  H    0.008152
    65  H    0.006297
    66  H    0.010293
    67  H    0.018343
    68  H    0.012602
    69  H    0.017224
    70  H    0.010730
    71  H    0.016239
    72  H    0.026500
    73  H    0.022325
    74  H    0.042563
    75  H    0.050551
    76  H    0.029725
    77  H    0.033959
    78  H    0.019762
    79  H    0.044716
    80  Mg   0.811222
    81  C    0.053140
    82  C   -0.122992
    83  C   -0.063845
    84  C   -0.065446
    85  N   -0.267882
    86  C   -0.054890
    87  C   -0.044054
    88  C   -0.099879
    89  C    0.112760
    90  C    0.068885
    91  C    0.138571
    92  C   -0.083146
    93  H   -0.006552
    94  N   -0.362796
    95  C    0.148161
    96  C   -0.139259
    97  C   -0.064753
    98  C    0.139376
    99  C    0.103284
   100  C   -0.015283
   101  O   -0.185063
   102  C    0.069089
   103  N   -0.322260
   104  C    0.034117
   105  C   -0.049010
   106  C   -0.011807
   107  C    0.064128
   108  C    0.078942
   109  C    0.007249
   110  C    0.029991
   111  N   -0.332850
   112  C    0.080369
   113  C   -0.182304
   114  C    0.030885
   115  C    0.076653
   116  C    0.117220
   117  C    0.052314
   118  O   -0.200709
   119  C   -0.080737
   120  C    0.223762
   121  O   -0.248569
   122  O   -0.310004
   123  C    0.170750
   124  H   -0.034971
   125  H    0.002002
   126  H   -0.033108
   127  H   -0.004815
   128  H   -0.000915
   129  H    0.028197
   130  H    0.011875
   131  H    0.014441
   132  H   -0.009201
   133  H    0.049581
   134  H    0.031219
   135  H    0.021257
   136  H    0.030283
   137  H    0.013524
   138  H    0.050668
   139  H    0.035189
   140  H    0.045143
   141  H    0.034474
   142  H    0.016507
   143  H    0.007005
   144  H    0.017631
   145  H    0.024262
   146  H    0.016105
   147  H    0.003795
   148  H    0.003978
   149  H    0.022767
   150  H    0.008354
   151  H    0.020777
   152  H    0.040121
   153  H    0.033929
   154  H    0.013494
   155  H    0.060415
   156  H    0.051624
   157  H    0.033590
   158  H    0.044027
 Sum of Mulliken charges =  -0.00000

 Dipole moment (field-independent basis, Debye):
    X=             -6.9276    Y=             -0.3509    Z=              4.6391  Tot=              8.3449
 Quadrupole moment (field-independent basis, Debye-Ang):
   XX=           -567.9919   YY=           -521.8704   ZZ=           -483.7917
   XY=           -126.9486   XZ=            -79.0300   YZ=             -8.5546

 Normal termination of Gaussian 16 at Wed Sep 15 00:32:06 2021.
