 Gaussian 16, Revision A.03,
 Gaussian 16:  ES64L-G16RevA.03 25-Dec-2016

 -----------------------------------
 #p cam-b3lyp/Def2SVP td=(nstates=5)
 -----------------------------------

 --------------------------------
 TDDFT excited states in gaussian
 --------------------------------
 Symbolic Z-matrix:
 Charge =  0 Multiplicity = 1

                         Standard orientation:
 ---------------------------------------------------------------------
 Center     Atomic      Atomic             Coordinates (Angstroms)
 Number     Number       Type             X           Y           Z
 ---------------------------------------------------------------------
      1         12           0      -13.461612   -0.662274   -0.269350
      2          6           0      -12.092318    2.141311    1.271478
      3          6           0      -15.645462    1.295125   -1.927908
      4          6           0      -15.005391   -3.466307   -1.355457
      5          6           0      -11.535432   -2.615058    1.820209
      6          7           0      -13.817333    1.525104   -0.283340
      7          6           0      -12.996592    2.477762    0.264731
      8          6           0      -13.434445    3.832874   -0.143516
      9          6           0      -14.600041    3.637908   -1.120113
     10          6           0      -14.734822    2.055110   -1.170388
     11          6           0      -15.909378    4.366247   -0.859214
     12          6           0      -12.193906    4.702909   -0.751956
     13          6           0      -11.792701    5.998963   -0.009298
     14          1           0      -11.401292    7.239537   -0.773938
     15          7           0      -15.014060   -1.038741   -1.563342
     16          6           0      -15.827968   -0.083414   -2.153381
     17          6           0      -16.833419   -0.723939   -2.920607
     18          6           0      -16.675254   -2.128263   -2.769412
     19          6           0      -15.515132   -2.262708   -1.882468
     20          6           0      -17.772523    0.170885   -3.820504
     21          6           0      -17.601849   -3.188946   -3.361226
     22          8           0      -17.511497   -4.410587   -3.166692
     23          6           0      -18.650526   -2.789826   -4.303831
     24          7           0      -13.503226   -2.763841    0.314978
     25          6           0      -14.118591   -3.725201   -0.341954
     26          6           0      -13.871598   -5.097381    0.324560
     27          6           0      -12.449087   -4.779443    0.933003
     28          6           0      -12.465900   -3.256433    1.016737
     29          6           0      -14.842585   -5.635961    1.439632
     30          6           0      -11.174039   -5.315668    0.121743
     31          6           0      -10.986747   -4.852945   -1.264936
     32          7           0      -12.062365   -0.387366    1.337524
     33          6           0      -11.325603   -1.309066    2.106969
     34          6           0      -10.500853   -0.599881    3.032505
     35          6           0      -10.795832    0.730303    2.809282
     36          6           0      -11.680868    0.809474    1.684538
     37          6           0       -9.767891   -1.170367    4.146060
     38          6           0      -10.383313    2.021115    3.104325
     39          8           0       -9.564537    2.456184    3.920634
     40          6           0      -11.249819    3.025418    2.215783
     41          6           0      -12.159567    3.718885    3.175220
     42          8           0      -13.003084    3.297222    3.938382
     43          8           0      -11.845232    5.011591    3.074363
     44          6           0      -12.646178    5.951407    3.925317
     45          1           0      -16.135289    2.032284   -2.567493
     46          1           0      -15.430523   -4.340787   -1.851034
     47          1           0      -10.884216   -3.246100    2.428269
     48          1           0      -13.779192    4.301173    0.777574
     49          1           0      -14.275469    3.929985   -2.118590
     50          1           0      -16.394418    3.548321   -0.327758
     51          1           0      -16.425672    4.743742   -1.742025
     52          1           0      -15.923884    5.232928   -0.198899
     53          1           0      -12.410052    4.935214   -1.794329
     54          1           0      -11.237503    4.180240   -0.722891
     55          1           0      -10.881303    5.758425    0.538821
     56          1           0      -12.508026    6.263168    0.768416
     57          1           0      -18.808025   -0.085891   -3.597922
     58          1           0      -17.492838   -0.272258   -4.776354
     59          1           0      -17.744284    1.252110   -3.685025
     60          1           0      -19.321235   -2.057633   -3.856368
     61          1           0      -19.324735   -3.643670   -4.366539
     62          1           0      -18.302245   -2.517301   -5.300421
     63          1           0      -13.640503   -5.818628   -0.459466
     64          1           0      -12.464656   -5.292351    1.894365
     65          1           0      -15.203656   -4.894561    2.151399
     66          1           0      -14.239378   -6.409866    1.915664
     67          1           0      -15.730404   -6.085047    0.993650
     68          1           0      -11.150286   -6.401345    0.024565
     69          1           0      -10.249710   -4.897756    0.520469
     70          1           0      -10.527653   -3.873713   -1.136583
     71          1           0      -11.860032   -4.705721   -1.901118
     72          1           0      -10.305488   -5.406700   -1.910121
     73          1           0      -10.526314   -1.274985    4.922830
     74          1           0       -8.948686   -0.562691    4.529339
     75          1           0       -9.251226   -2.097613    3.895914
     76          1           0      -10.644752    3.691541    1.600647
     77          1           0      -13.313691    6.448020    3.220757
     78          1           0      -11.976872    6.635142    4.446971
     79          1           0      -13.301020    5.512057    4.678343
     80         12           0       13.874766   -0.624074    0.056653
     81          6           0       11.876749    2.256523   -0.561543
     82          6           0       16.662906    1.382420   -0.094479
     83          6           0       15.568403   -3.413929    0.573553
     84          6           0       10.938601   -2.664116   -0.312796
     85          7           0       14.259932    1.631347   -0.367108
     86          6           0       13.244991    2.564193   -0.476679
     87          6           0       13.947851    3.961527   -0.574226
     88          6           0       15.539625    3.676865   -0.463715
     89          6           0       15.485007    2.152832   -0.316645
     90          6           0       16.409949    4.228678   -1.611984
     91          6           0       13.402993    5.110143    0.371607
     92          6           0       12.910084    6.345964   -0.323402
     93          1           0       13.422333    6.812792   -1.660366
     94          7           0       15.926549   -0.962538    0.353495
     95          6           0       16.887305   -0.007887    0.237798
     96          6           0       18.113466   -0.629469    0.667584
     97          6           0       17.850888   -2.013105    0.763645
     98          6           0       16.385907   -2.238579    0.539298
     99          6           0       19.406127    0.199077    0.757028
    100          6           0       18.854274   -3.115254    0.920681
    101          8           0       18.516140   -4.321843    0.875324
    102          6           0       20.290100   -2.775173    1.076207
    103          7           0       13.271634   -2.762836    0.047374
    104          6           0       14.139077   -3.661691    0.359206
    105          6           0       13.599088   -5.182204    0.512905
    106          6           0       12.117382   -4.918511    0.204416
    107          6           0       12.078487   -3.427680   -0.026434
    108          6           0       14.345608   -6.112631   -0.511864
    109          6           0       11.076610   -5.368078    1.289295
    110          6           0       11.019964   -4.524896    2.585274
    111          7           0       11.922518   -0.303674   -0.460136
    112          6           0       10.876070   -1.247219   -0.587748
    113          6           0        9.630868   -0.506232   -0.830926
    114          6           0        9.977245    0.866265   -0.819196
    115          6           0       11.384724    0.943589   -0.545816
    116          6           0        8.220754   -1.143239   -1.013700
    117          6           0        9.427299    2.111242   -0.938045
    118          8           0        8.299823    2.485821   -1.188400
    119          6           0       10.590336    3.119667   -0.723330
    120          6           0       10.625015    4.024147   -1.849314
    121          8           0       11.246625    3.821511   -2.898463
    122          8           0        9.672783    5.034869   -1.671710
    123          6           0        9.487029    5.913427   -2.853114
    124          1           0       17.615064    1.845451   -0.363211
    125          1           0       16.159071   -4.332447    0.580999
    126          1           0       10.015874   -3.236115   -0.430054
    127          1           0       13.578864    4.247543   -1.558336
    128          1           0       15.927862    4.195790    0.411565
    129          1           0       17.198006    4.874199   -1.222102
    130          1           0       15.891297    4.759711   -2.409993
    131          1           0       16.849376    3.335524   -2.056152
    132          1           0       14.168734    5.392701    1.094302
    133          1           0       12.536824    4.679306    0.873893
    134          1           0       13.309196    7.191377    0.238161
    135          1           0       11.821724    6.303035   -0.345346
    136          1           0       19.206669    1.270770    0.774913
    137          1           0       20.050600   -0.034524   -0.089458
    138          1           0       19.864520   -0.116383    1.693740
    139          1           0       20.369118   -2.134983    1.954871
    140          1           0       20.656455   -2.197088    0.226987
    141          1           0       20.896492   -3.678950    1.120443
    142          1           0       13.724965   -5.547019    1.532598
    143          1           0       11.879225   -5.301257   -0.788263
    144          1           0       14.616573   -5.504669   -1.374989
    145          1           0       13.641610   -6.871787   -0.854523
    146          1           0       15.245386   -6.627770   -0.174525
    147          1           0       11.164749   -6.440054    1.463080
    148          1           0       10.090776   -5.332903    0.826675
    149          1           0       11.954306   -4.075637    2.920164
    150          1           0       10.548503   -5.129411    3.360947
    151          1           0       10.298404   -3.736036    2.373350
    152          1           0        7.457434   -0.681877   -0.387047
    153          1           0        8.211654   -2.221744   -0.860160
    154          1           0        7.808274   -0.818736   -1.969363
    155          1           0       10.266272    3.634497    0.180524
    156          1           0        9.007348    5.367374   -3.665014
    157          1           0       10.412854    6.296341   -3.280911
    158          1           0        9.005640    6.820221   -2.486528
 ---------------------------------------------------------------------

 SCF Done:  E(RCAM-B3LYP) =  -4069.78575071     A.U. after   19 cycles

 Excitation energies and oscillator strengths:

 Excited State   1:      Singlet-A      1.7046 eV  727.34 nm  f=0.4041  <S**2>=0.000
     309 -> 316       -0.17497
     311 -> 313        0.68539
     309 <- 316       -0.10602
 This state for optimization and/or second-order correction.
 Total Energy, E(TD-HF/TD-DFT) =  -4069.72310718
 Copying the excited state density for this state as the 1-particle RhoCI density.

 Excited State   2:      Singlet-A      1.7535 eV  707.05 nm  f=0.3508  <S**2>=0.000
     310 -> 315       -0.18823
     312 -> 314        0.68127
     310 <- 315       -0.10749

 Excited State   3:      Singlet-A      2.1768 eV  569.56 nm  f=0.1345  <S**2>=0.000
     309 -> 313        0.65143
     311 -> 316        0.26301

 Excited State   4:      Singlet-A      2.2093 eV  561.19 nm  f=0.1107  <S**2>=0.000
     310 -> 314        0.64200
     312 -> 315        0.28090

 Excited State   5:      Singlet-A      2.9847 eV  415.39 nm  f=0.0000  <S**2>=0.000
     312 -> 313        0.70707

 The electronic state is 1-A.
 Alpha  occ. eigenvalues --  -46.89790 -46.89302 -19.25001 -19.24238 -19.19264
 Alpha  occ. eigenvalues --  -19.19031 -19.18747 -19.18637 -19.18166 -19.17494
 Alpha  occ. eigenvalues --  -14.42648 -14.41959 -14.41855 -14.41791 -14.39737
 Alpha  occ. eigenvalues --  -14.39664 -14.39649 -14.38946 -10.38582 -10.38570
 Alpha  occ. eigenvalues --  -10.35042 -10.35042 -10.34111 -10.33269 -10.31876
 Alpha  occ. eigenvalues --  -10.31690 -10.31658 -10.31390 -10.31383 -10.31166
 Alpha  occ. eigenvalues --  -10.31072 -10.30870 -10.30759 -10.30589 -10.30245
 Alpha  occ. eigenvalues --  -10.30175 -10.30067 -10.29827 -10.29750 -10.29333
 Alpha  occ. eigenvalues --  -10.29068 -10.28946 -10.28799 -10.28748 -10.28633
 Alpha  occ. eigenvalues --  -10.28507 -10.28498 -10.28349 -10.28228 -10.28116
 Alpha  occ. eigenvalues --  -10.28079 -10.28031 -10.27961 -10.27953 -10.27949
 Alpha  occ. eigenvalues --  -10.27924 -10.27840 -10.27823 -10.27766 -10.27659
 Alpha  occ. eigenvalues --  -10.27490 -10.27469 -10.27439 -10.27429 -10.27377
 Alpha  occ. eigenvalues --  -10.27309 -10.27201 -10.27118 -10.27109 -10.26998
 Alpha  occ. eigenvalues --  -10.26568 -10.26462 -10.26436 -10.26343 -10.26331
 Alpha  occ. eigenvalues --  -10.26307 -10.26226 -10.25995 -10.25977 -10.25943
 Alpha  occ. eigenvalues --  -10.25841 -10.25768 -10.25555 -10.24692 -10.24617
 Alpha  occ. eigenvalues --  -10.23868  -3.18125  -3.17710  -1.93040  -1.92616
 Alpha  occ. eigenvalues --   -1.92613  -1.92382  -1.92145  -1.92027  -1.16964
 Alpha  occ. eigenvalues --   -1.14324  -1.09216  -1.09094  -1.08516  -1.08439
 Alpha  occ. eigenvalues --   -1.07316  -1.06281  -1.06083  -1.05386  -1.04219
 Alpha  occ. eigenvalues --   -1.03671  -1.03345  -1.03004  -1.02590  -1.01674
 Alpha  occ. eigenvalues --   -0.92252  -0.92172  -0.89722  -0.89183  -0.88706
 Alpha  occ. eigenvalues --   -0.88331  -0.88257  -0.87928  -0.87797  -0.87562
 Alpha  occ. eigenvalues --   -0.87225  -0.86828  -0.86764  -0.85449  -0.84597
 Alpha  occ. eigenvalues --   -0.84293  -0.84253  -0.83344  -0.83032  -0.82509
 Alpha  occ. eigenvalues --   -0.82198  -0.81972  -0.81525  -0.80703  -0.80645
 Alpha  occ. eigenvalues --   -0.80020  -0.78715  -0.78295  -0.77626  -0.77551
 Alpha  occ. eigenvalues --   -0.77345  -0.76415  -0.75909  -0.75701  -0.75333
 Alpha  occ. eigenvalues --   -0.74951  -0.73442  -0.72495  -0.71641  -0.71531
 Alpha  occ. eigenvalues --   -0.70438  -0.69352  -0.69055  -0.69009  -0.67810
 Alpha  occ. eigenvalues --   -0.67731  -0.67171  -0.66886  -0.65720  -0.65351
 Alpha  occ. eigenvalues --   -0.65289  -0.64877  -0.64780  -0.64614  -0.64207
 Alpha  occ. eigenvalues --   -0.63932  -0.62020  -0.61387  -0.60402  -0.60200
 Alpha  occ. eigenvalues --   -0.59885  -0.59475  -0.59269  -0.58579  -0.58576
 Alpha  occ. eigenvalues --   -0.58222  -0.58101  -0.57910  -0.57885  -0.57496
 Alpha  occ. eigenvalues --   -0.56400  -0.56253  -0.55993  -0.55737  -0.55446
 Alpha  occ. eigenvalues --   -0.55241  -0.55017  -0.54921  -0.54794  -0.54666
 Alpha  occ. eigenvalues --   -0.53563  -0.53354  -0.53220  -0.53213  -0.52986
 Alpha  occ. eigenvalues --   -0.52956  -0.52809  -0.52655  -0.52597  -0.52151
 Alpha  occ. eigenvalues --   -0.51995  -0.51863  -0.51523  -0.51260  -0.51128
 Alpha  occ. eigenvalues --   -0.51046  -0.50778  -0.50428  -0.50337  -0.49822
 Alpha  occ. eigenvalues --   -0.49760  -0.49689  -0.49481  -0.49418  -0.49221
 Alpha  occ. eigenvalues --   -0.49186  -0.49166  -0.48950  -0.48927  -0.48834
 Alpha  occ. eigenvalues --   -0.48542  -0.48467  -0.48320  -0.48038  -0.47952
 Alpha  occ. eigenvalues --   -0.47899  -0.47478  -0.47336  -0.47285  -0.47076
 Alpha  occ. eigenvalues --   -0.46801  -0.46707  -0.46629  -0.46581  -0.46485
 Alpha  occ. eigenvalues --   -0.46205  -0.46135  -0.45957  -0.45792  -0.45772
 Alpha  occ. eigenvalues --   -0.45458  -0.45214  -0.44899  -0.44595  -0.44566
 Alpha  occ. eigenvalues --   -0.44435  -0.44193  -0.44077  -0.44018  -0.43751
 Alpha  occ. eigenvalues --   -0.43718  -0.43688  -0.43415  -0.43325  -0.43174
 Alpha  occ. eigenvalues --   -0.43154  -0.42903  -0.42693  -0.42465  -0.42448
 Alpha  occ. eigenvalues --   -0.42335  -0.42186  -0.42078  -0.41834  -0.41792
 Alpha  occ. eigenvalues --   -0.41790  -0.41571  -0.41553  -0.41346  -0.41226
 Alpha  occ. eigenvalues --   -0.41114  -0.41027  -0.40932  -0.40676  -0.40560
 Alpha  occ. eigenvalues --   -0.40123  -0.40090  -0.39746  -0.39485  -0.39089
 Alpha  occ. eigenvalues --   -0.38897  -0.38028  -0.37982  -0.37655  -0.36975
 Alpha  occ. eigenvalues --   -0.36912  -0.36601  -0.36335  -0.36328  -0.36083
 Alpha  occ. eigenvalues --   -0.36066  -0.35463  -0.34438  -0.34264  -0.33905
 Alpha  occ. eigenvalues --   -0.33642  -0.33442  -0.33018  -0.31441  -0.31286
 Alpha  occ. eigenvalues --   -0.31179  -0.31007  -0.30493  -0.30412  -0.30299
 Alpha  occ. eigenvalues --   -0.29946  -0.29931  -0.29527  -0.23978  -0.23762
 Alpha  occ. eigenvalues --   -0.21403  -0.21215
 Alpha virt. eigenvalues --   -0.08941  -0.08513  -0.01756  -0.01580   0.00171
 Alpha virt. eigenvalues --    0.00320   0.02058   0.02353   0.02503   0.02615
 Alpha virt. eigenvalues --    0.05041   0.05382   0.05567   0.06148   0.06479

 Mulliken charges:
               1
     1  Mg   0.804461
     2  C   -0.001822
     3  C   -0.056932
     4  C   -0.056528
     5  C   -0.102498
     6  N   -0.309928
     7  C   -0.028002
     8  C   -0.016418
     9  C   -0.002619
    10  C   -0.048498
    11  C    0.052487
    12  C    0.041228
    13  C   -0.079915
    14  H    0.020134
    15  N   -0.378184
    16  C    0.181700
    17  C   -0.165992
    18  C   -0.026672
    19  C    0.105808
    20  C    0.128359
    21  C    0.003866
    22  O   -0.216915
    23  C    0.054174
    24  N   -0.227564
    25  C    0.004239
    26  C    0.006917
    27  C   -0.066239
    28  C    0.078665
    29  C    0.091301
    30  C    0.063806
    31  C   -0.038744
    32  N   -0.322773
    33  C    0.102251
    34  C   -0.118670
    35  C    0.060226
    36  C    0.066581
    37  C    0.105413
    38  C    0.014246
    39  O   -0.191140
    40  C   -0.024981
    41  C    0.199665
    42  O   -0.213161
    43  O   -0.318046
    44  C    0.160280
    45  H   -0.030932
    46  H   -0.012972
    47  H   -0.027906
    48  H    0.022260
    49  H    0.007376
    50  H    0.027440
    51  H    0.019858
    52  H    0.018071
    53  H    0.017809
    54  H    0.019423
    55  H    0.036435
    56  H    0.017656
    57  H    0.016166
    58  H    0.039236
    59  H    0.030080
    60  H    0.018139
    61  H    0.019304
    62  H    0.052916
    63  H   -0.008508
    64  H   -0.003808
    65  H    0.027737
    66  H    0.020169
    67  H    0.028483
    68  H    0.010703
    69  H    0.003965
    70  H    0.002722
    71  H    0.016292
    72  H    0.015362
    73  H    0.051005
    74  H    0.031655
    75  H    0.014527
    76  H    0.029178
    77  H    0.030089
    78  H    0.050369
    79  H    0.056135
    80  Mg   0.811814
    81  C    0.029196
    82  C   -0.077327
    83  C   -0.042146
    84  C   -0.080997
    85  N   -0.244463
    86  C   -0.056762
    87  C   -0.021355
    88  C   -0.054995
    89  C    0.051309
    90  C    0.065166
    91  C    0.043243
    92  C   -0.087133
    93  H    0.017070
    94  N   -0.401992
    95  C    0.117191
    96  C   -0.164240
    97  C   -0.023766
    98  C    0.133575
    99  C    0.120913
   100  C   -0.011745
   101  O   -0.231026
   102  C    0.068126
   103  N   -0.203169
   104  C   -0.004709
   105  C   -0.058795
   106  C    0.082961
   107  C   -0.064805
   108  C    0.045411
   109  C    0.013634
   110  C    0.021060
   111  N   -0.385633
   112  C    0.134139
   113  C   -0.166499
   114  C    0.054427
   115  C    0.106932
   116  C    0.127385
   117  C   -0.040127
   118  O   -0.163377
   119  C    0.002713
   120  C    0.206291
   121  O   -0.236010
   122  O   -0.349637
   123  C    0.191062
   124  H   -0.014135
   125  H    0.003571
   126  H   -0.032131
   127  H    0.035310
   128  H    0.018446
   129  H    0.012691
   130  H    0.029341
   131  H    0.013506
   132  H    0.007460
   133  H    0.012084
   134  H    0.024971
   135  H    0.041509
   136  H    0.024809
   137  H    0.041235
   138  H    0.023658
   139  H    0.030392
   140  H    0.029295
   141  H    0.031535
   142  H    0.025056
   143  H    0.007549
   144  H    0.023912
   145  H    0.014007
   146  H    0.042002
   147  H    0.005519
   148  H    0.000323
   149  H    0.029229
   150  H    0.017402
   151  H    0.017778
   152  H    0.021322
   153  H    0.010567
   154  H    0.028556
   155  H    0.044179
   156  H    0.045732
   157  H    0.025204
   158  H    0.035207
 Sum of Mulliken charges =  -0.00000

 Dipole moment (field-independent basis, Debye):
    X=              2.4864    Y=              0.9974    Z=             -0.8930  Tot=              2.8239
 Quadrupole moment (field-independent basis, Debye-Ang):
   XX=           -384.1885   YY=           -478.8929   ZZ=           -524.3879
   XY=            -12.9262   XZ=             69.7014   YZ=            -15.3020

 Normal termination of Gaussian 16 at Tue Sep 14 22:15:39 2021.
