 Gaussian 16, Revision A.03,
 Gaussian 16:  ES64L-G16RevA.03 25-Dec-2016

 -----------------------------------
 #p cam-b3lyp/Def2SVP td=(nstates=5)
 -----------------------------------

 --------------------------------
 TDDFT excited states in gaussian
 --------------------------------
 Symbolic Z-matrix:
 Charge =  0 Multiplicity = 1

                         Standard orientation:
 ---------------------------------------------------------------------
 Center     Atomic      Atomic             Coordinates (Angstroms)
 Number     Number       Type             X           Y           Z
 ---------------------------------------------------------------------
      1         12           0      -19.438652    0.065148   -0.369825
      2          6           0      -16.878098   -1.066327    1.556007
      3          6           0      -19.884192    2.919063    1.516902
      4          6           0      -22.118681    0.898273   -2.331128
      5          6           0      -19.363071   -3.082657   -2.152098
      6          7           0      -18.620943    0.708746    1.446870
      7          6           0      -17.372196    0.212706    1.951312
      8          6           0      -16.780557    1.158186    2.918665
      9          6           0      -17.988052    2.175433    3.140854
     10          6           0      -18.926966    1.954372    1.975880
     11          6           0      -18.752656    1.955276    4.540533
     12          6           0      -15.388743    1.729052    2.506910
     13          6           0      -14.361989    1.751994    3.593058
     14          1           0      -14.878664    2.159136    5.029082
     15          7           0      -20.768881    1.725650   -0.445934
     16          6           0      -20.748860    2.752831    0.450093
     17          6           0      -21.767613    3.670841    0.071098
     18          6           0      -22.413623    3.169953   -1.125983
     19          6           0      -21.724558    1.871652   -1.431703
     20          6           0      -22.115355    4.911104    0.923059
     21          6           0      -23.493585    3.711846   -2.009375
     22          8           0      -24.058234    3.159419   -2.960193
     23          6           0      -23.921982    5.197668   -1.707322
     24          7           0      -20.686305   -1.007018   -1.984191
     25          6           0      -21.630020   -0.400139   -2.659921
     26          6           0      -22.042038   -1.174960   -3.909933
     27          6           0      -21.148181   -2.445656   -3.834126
     28          6           0      -20.346476   -2.184336   -2.560552
     29          6           0      -23.615068   -1.526371   -3.964366
     30          6           0      -20.230153   -2.503978   -5.133759
     31          6           0      -19.121050   -1.450581   -5.376160
     32          7           0      -18.458115   -1.791698   -0.221925
     33          6           0      -18.503913   -2.907955   -1.035611
     34          6           0      -17.406135   -3.790992   -0.591856
     35          6           0      -16.706276   -3.168215    0.397532
     36          6           0      -17.411071   -1.924445    0.587149
     37          6           0      -17.225575   -5.195504   -1.055030
     38          6           0      -15.583157   -3.241724    1.331719
     39          8           0      -14.757097   -4.117297    1.527753
     40          6           0      -15.682030   -1.861567    2.118323
     41          6           0      -15.942679   -2.186542    3.535402
     42          8           0      -16.871847   -2.864984    4.006926
     43          8           0      -14.910513   -1.572205    4.215163
     44          6           0      -15.048072   -1.594684    5.677291
     45          1           0      -20.022896    3.858542    2.055694
     46          1           0      -22.902468    1.280543   -2.989393
     47          1           0      -19.274290   -4.004970   -2.728865
     48          1           0      -16.615996    0.557984    3.814426
     49          1           0      -17.585882    3.186792    3.089971
     50          1           0      -18.203380    1.330626    5.244955
     51          1           0      -19.629917    1.350706    4.310725
     52          1           0      -19.005302    2.968386    4.850624
     53          1           0      -15.502703    2.753755    2.153102
     54          1           0      -15.075120    1.044008    1.719346
     55          1           0      -13.580167    2.491665    3.425140
     56          1           0      -13.733018    0.886712    3.802759
     57          1           0      -21.424838    5.750656    0.843671
     58          1           0      -22.186073    4.489421    1.925560
     59          1           0      -23.034973    5.401593    0.604683
     60          1           0      -24.506100    5.216334   -0.787202
     61          1           0      -24.345783    5.616525   -2.619856
     62          1           0      -23.079690    5.880198   -1.592354
     63          1           0      -21.760749   -0.590975   -4.785931
     64          1           0      -21.714324   -3.376017   -3.788366
     65          1           0      -24.042581   -0.858917   -4.713449
     66          1           0      -24.080051   -1.317930   -3.000264
     67          1           0      -23.936152   -2.520726   -4.271997
     68          1           0      -20.771021   -2.563022   -6.078118
     69          1           0      -19.693525   -3.437767   -4.962797
     70          1           0      -18.212893   -2.051721   -5.329532
     71          1           0      -19.144832   -0.639525   -4.649418
     72          1           0      -19.182396   -0.959682   -6.347397
     73          1           0      -16.143638   -5.318856   -1.018298
     74          1           0      -17.625055   -5.367617   -2.054651
     75          1           0      -17.546749   -5.846292   -0.242802
     76          1           0      -14.651218   -1.525662    2.008799
     77          1           0      -14.095232   -1.174692    6.000779
     78          1           0      -15.068482   -2.647888    5.957385
     79          1           0      -15.959998   -1.148902    6.075029
     80         12           0       19.316960   -0.328663    0.341190
     81          6           0       17.964733    2.692024   -0.442866
     82          6           0       16.060050   -1.512517    1.047954
     83          6           0       20.487884   -3.442924    0.050498
     84          6           0       22.508836    0.799472   -0.916529
     85          7           0       17.317519    0.527622    0.317055
     86          6           0       16.945836    1.717651   -0.021178
     87          6           0       15.451751    2.030035    0.346597
     88          6           0       14.948434    0.738744    1.097204
     89          6           0       16.189700   -0.189337    0.862289
     90          6           0       14.412512    0.941698    2.515101
     91          6           0       14.571409    2.480346   -0.964559
     92          6           0       15.048428    2.056666   -2.344309
     93          1           0       14.085615    2.049914   -3.531666
     94          7           0       18.384605   -2.212196    0.518196
     95          6           0       17.088210   -2.498517    0.872834
     96          6           0       16.894756   -3.883422    0.871360
     97          6           0       18.161395   -4.503926    0.542652
     98          6           0       19.094776   -3.370607    0.308904
     99          6           0       15.587787   -4.487682    1.351059
    100          6           0       18.383102   -6.024964    0.458332
    101          8           0       17.403719   -6.770027    0.686562
    102          6           0       19.621126   -6.673847    0.136321
    103          7           0       21.242933   -1.238793   -0.510691
    104          6           0       21.450528   -2.505966   -0.290631
    105          6           0       22.917061   -2.940195   -0.572588
    106          6           0       23.588630   -1.574200   -0.833416
    107          6           0       22.405341   -0.527739   -0.744004
    108          6           0       23.572660   -3.665546    0.546681
    109          6           0       24.385513   -1.528216   -2.221336
    110          6           0       25.963800   -1.442847   -2.117276
    111          7           0       20.178913    1.388938   -0.404889
    112          6           0       21.461017    1.745140   -0.841609
    113          6           0       21.454349    3.195986   -1.206819
    114          6           0       20.102683    3.551975   -1.096496
    115          6           0       19.352728    2.427129   -0.641326
    116          6           0       22.551956    4.036832   -1.645402
    117          6           0       19.256929    4.631109   -1.329804
    118          8           0       19.438239    5.797107   -1.710083
    119          6           0       17.857504    4.167428   -0.834729
    120          6           0       17.377981    5.160422    0.250583
    121          8           0       16.326340    5.776615    0.280629
    122          8           0       18.298411    5.305995    1.265925
    123          6           0       17.980207    6.252351    2.341753
    124          1           0       15.015844   -1.794774    1.196626
    125          1           0       20.967579   -4.422605    0.097020
    126          1           0       23.513699    1.169439   -1.130094
    127          1           0       15.485583    2.787288    1.130330
    128          1           0       14.157604    0.226405    0.548421
    129          1           0       15.066419    0.441035    3.228868
    130          1           0       13.417731    0.513979    2.645142
    131          1           0       14.266378    1.977386    2.821983
    132          1           0       14.523073    3.560346   -0.823415
    133          1           0       13.556936    2.082878   -1.002334
    134          1           0       15.418044    1.045983   -2.173062
    135          1           0       15.921355    2.677922   -2.545461
    136          1           0       15.590803   -5.207971    2.169565
    137          1           0       15.057520   -4.894944    0.489895
    138          1           0       14.934794   -3.686074    1.695668
    139          1           0       20.469041   -6.511912    0.801606
    140          1           0       20.031653   -6.268644   -0.788000
    141          1           0       19.515436   -7.736882   -0.077960
    142          1           0       23.111155   -3.614903   -1.406271
    143          1           0       24.240410   -1.252811   -0.020928
    144          1           0       23.676368   -4.740784    0.401888
    145          1           0       22.934232   -3.665330    1.430871
    146          1           0       24.553938   -3.236632    0.749071
    147          1           0       24.110172   -0.606251   -2.735253
    148          1           0       24.252880   -2.410249   -2.846395
    149          1           0       26.414203   -2.156955   -2.805545
    150          1           0       26.252642   -1.803047   -1.129808
    151          1           0       26.210480   -0.435142   -2.452123
    152          1           0       23.425943    3.620825   -1.143671
    153          1           0       22.401718    5.066654   -1.319396
    154          1           0       22.529879    4.021472   -2.734669
    155          1           0       17.058460    4.381019   -1.544290
    156          1           0       18.915160    6.579031    2.797389
    157          1           0       17.396955    5.891733    3.188871
    158          1           0       17.374866    7.099596    2.018177
 ---------------------------------------------------------------------

 SCF Done:  E(RCAM-B3LYP) =  -4069.77433320     A.U. after   19 cycles

 Excitation energies and oscillator strengths:

 Excited State   1:      Singlet-A      1.6990 eV  729.76 nm  f=0.3331  <S**2>=0.000
     310 -> 315        0.18531
     312 -> 314        0.68063
     310 <- 315        0.10849
 This state for optimization and/or second-order correction.
 Total Energy, E(TD-HF/TD-DFT) =  -4069.71189678
 Copying the excited state density for this state as the 1-particle RhoCI density.

 Excited State   2:      Singlet-A      1.7060 eV  726.77 nm  f=0.4816  <S**2>=0.000
     309 -> 316        0.15999
     311 -> 313        0.68528
     309 <- 316        0.10218

 Excited State   3:      Singlet-A      2.2509 eV  550.83 nm  f=0.1201  <S**2>=0.000
     309 -> 313        0.64221
     311 -> 316       -0.27235

 Excited State   4:      Singlet-A      2.2666 eV  547.01 nm  f=0.0451  <S**2>=0.000
     310 -> 314        0.60927
     312 -> 315       -0.34928

 Excited State   5:      Singlet-A      2.8649 eV  432.76 nm  f=0.0000  <S**2>=0.000
     312 -> 313        0.70710

 The electronic state is 1-A.
 Alpha  occ. eigenvalues --  -46.90337 -46.89252 -19.25652 -19.24923 -19.20257
 Alpha  occ. eigenvalues --  -19.20139 -19.19553 -19.19500 -19.18993 -19.17441
 Alpha  occ. eigenvalues --  -14.43221 -14.42293 -14.42193 -14.41948 -14.40562
 Alpha  occ. eigenvalues --  -14.39844 -14.39503 -14.39484 -10.39747 -10.39520
 Alpha  occ. eigenvalues --  -10.35707 -10.35408 -10.34740 -10.34278 -10.33025
 Alpha  occ. eigenvalues --  -10.31982 -10.31833 -10.31794 -10.31775 -10.31534
 Alpha  occ. eigenvalues --  -10.31290 -10.30870 -10.30775 -10.30763 -10.30669
 Alpha  occ. eigenvalues --  -10.30401 -10.30336 -10.30177 -10.29895 -10.29658
 Alpha  occ. eigenvalues --  -10.29590 -10.29324 -10.29290 -10.29237 -10.29085
 Alpha  occ. eigenvalues --  -10.29050 -10.28831 -10.28818 -10.28492 -10.28446
 Alpha  occ. eigenvalues --  -10.28335 -10.28333 -10.28319 -10.28130 -10.27888
 Alpha  occ. eigenvalues --  -10.27841 -10.27757 -10.27744 -10.27585 -10.27585
 Alpha  occ. eigenvalues --  -10.27558 -10.27494 -10.27416 -10.27379 -10.27351
 Alpha  occ. eigenvalues --  -10.27197 -10.27116 -10.27091 -10.27061 -10.26929
 Alpha  occ. eigenvalues --  -10.26860 -10.26729 -10.26590 -10.26491 -10.26428
 Alpha  occ. eigenvalues --  -10.26228 -10.26177 -10.26028 -10.25850 -10.25843
 Alpha  occ. eigenvalues --  -10.25669 -10.25635 -10.25570 -10.25490 -10.24930
 Alpha  occ. eigenvalues --  -10.24731  -3.18744  -3.17655  -1.93622  -1.93233
 Alpha  occ. eigenvalues --   -1.93011  -1.92559  -1.92100  -1.91957  -1.16167
 Alpha  occ. eigenvalues --   -1.15964  -1.10198  -1.09607  -1.09079  -1.07635
 Alpha  occ. eigenvalues --   -1.07473  -1.07379  -1.05128  -1.05058  -1.04533
 Alpha  occ. eigenvalues --   -1.03778  -1.03665  -1.02894  -1.02272  -1.01715
 Alpha  occ. eigenvalues --   -0.93023  -0.92378  -0.89694  -0.89453  -0.89101
 Alpha  occ. eigenvalues --   -0.89012  -0.88795  -0.88347  -0.88008  -0.87825
 Alpha  occ. eigenvalues --   -0.87279  -0.86911  -0.86250  -0.85319  -0.84670
 Alpha  occ. eigenvalues --   -0.84650  -0.84216  -0.83375  -0.82976  -0.82532
 Alpha  occ. eigenvalues --   -0.82419  -0.81539  -0.81486  -0.81210  -0.80295
 Alpha  occ. eigenvalues --   -0.79968  -0.78504  -0.78087  -0.77420  -0.77360
 Alpha  occ. eigenvalues --   -0.77204  -0.76992  -0.76380  -0.75806  -0.75303
 Alpha  occ. eigenvalues --   -0.74978  -0.73423  -0.72469  -0.72180  -0.71978
 Alpha  occ. eigenvalues --   -0.69870  -0.69590  -0.69264  -0.68945  -0.68434
 Alpha  occ. eigenvalues --   -0.68352  -0.67435  -0.66863  -0.66058  -0.65680
 Alpha  occ. eigenvalues --   -0.65236  -0.65002  -0.64894  -0.64707  -0.64568
 Alpha  occ. eigenvalues --   -0.64393  -0.63363  -0.62538  -0.60925  -0.60303
 Alpha  occ. eigenvalues --   -0.59980  -0.59421  -0.58969  -0.58918  -0.58779
 Alpha  occ. eigenvalues --   -0.58546  -0.58048  -0.57975  -0.57485  -0.57278
 Alpha  occ. eigenvalues --   -0.56353  -0.55926  -0.55640  -0.55627  -0.55540
 Alpha  occ. eigenvalues --   -0.55068  -0.54880  -0.54839  -0.54571  -0.54423
 Alpha  occ. eigenvalues --   -0.53891  -0.53542  -0.53529  -0.53277  -0.53194
 Alpha  occ. eigenvalues --   -0.53155  -0.52902  -0.52620  -0.52396  -0.52287
 Alpha  occ. eigenvalues --   -0.52254  -0.52131  -0.51945  -0.51511  -0.51504
 Alpha  occ. eigenvalues --   -0.51274  -0.51057  -0.50957  -0.50892  -0.50707
 Alpha  occ. eigenvalues --   -0.50289  -0.49925  -0.49858  -0.49654  -0.49589
 Alpha  occ. eigenvalues --   -0.49336  -0.49247  -0.49019  -0.48920  -0.48843
 Alpha  occ. eigenvalues --   -0.48585  -0.48574  -0.48521  -0.48475  -0.48316
 Alpha  occ. eigenvalues --   -0.48121  -0.47699  -0.47678  -0.47429  -0.47384
 Alpha  occ. eigenvalues --   -0.47240  -0.47207  -0.46859  -0.46847  -0.46775
 Alpha  occ. eigenvalues --   -0.46746  -0.46206  -0.46140  -0.45905  -0.45877
 Alpha  occ. eigenvalues --   -0.45745  -0.45618  -0.45271  -0.45189  -0.45032
 Alpha  occ. eigenvalues --   -0.44889  -0.44773  -0.44620  -0.44534  -0.44475
 Alpha  occ. eigenvalues --   -0.43911  -0.43845  -0.43611  -0.43463  -0.43220
 Alpha  occ. eigenvalues --   -0.42989  -0.42909  -0.42770  -0.42712  -0.42688
 Alpha  occ. eigenvalues --   -0.42309  -0.42272  -0.42138  -0.42105  -0.42095
 Alpha  occ. eigenvalues --   -0.42026  -0.41937  -0.41689  -0.41537  -0.41507
 Alpha  occ. eigenvalues --   -0.40973  -0.40871  -0.40744  -0.40735  -0.40540
 Alpha  occ. eigenvalues --   -0.40002  -0.39854  -0.39792  -0.39517  -0.39088
 Alpha  occ. eigenvalues --   -0.38740  -0.38056  -0.37871  -0.37864  -0.37495
 Alpha  occ. eigenvalues --   -0.37145  -0.36881  -0.36724  -0.36545  -0.36416
 Alpha  occ. eigenvalues --   -0.36395  -0.36261  -0.34833  -0.34668  -0.34317
 Alpha  occ. eigenvalues --   -0.34209  -0.34059  -0.33479  -0.31627  -0.31220
 Alpha  occ. eigenvalues --   -0.31110  -0.31098  -0.30985  -0.30937  -0.30378
 Alpha  occ. eigenvalues --   -0.30188  -0.29882  -0.29036  -0.24956  -0.24411
 Alpha  occ. eigenvalues --   -0.21683  -0.20955
 Alpha virt. eigenvalues --   -0.09541  -0.08486  -0.02356  -0.01912  -0.00242
 Alpha virt. eigenvalues --   -0.00045   0.00612   0.01951   0.02173   0.02198
 Alpha virt. eigenvalues --    0.04734   0.04939   0.04991   0.05244   0.05417

 Mulliken charges:
               1
     1  Mg   0.798412
     2  C    0.018722
     3  C   -0.098314
     4  C   -0.026582
     5  C   -0.072679
     6  N   -0.371546
     7  C   -0.042133
     8  C   -0.004763
     9  C   -0.083350
    10  C    0.109741
    11  C    0.079491
    12  C    0.115800
    13  C   -0.087217
    14  H   -0.012913
    15  N   -0.377591
    16  C    0.154366
    17  C   -0.133050
    18  C   -0.038221
    19  C    0.104451
    20  C    0.104468
    21  C    0.019101
    22  O   -0.205639
    23  C    0.005666
    24  N   -0.192982
    25  C   -0.005891
    26  C   -0.021515
    27  C    0.004536
    28  C    0.005373
    29  C    0.043650
    30  C   -0.019993
    31  C   -0.000265
    32  N   -0.317244
    33  C    0.124299
    34  C   -0.222822
    35  C    0.035507
    36  C    0.083048
    37  C    0.127707
    38  C    0.060069
    39  O   -0.156760
    40  C   -0.043869
    41  C    0.209644
    42  O   -0.230310
    43  O   -0.341654
    44  C    0.182869
    45  H   -0.025418
    46  H   -0.002708
    47  H   -0.021279
    48  H    0.011619
    49  H    0.000556
    50  H    0.022056
    51  H    0.023889
    52  H    0.028372
    53  H    0.014428
    54  H    0.017241
    55  H    0.020377
    56  H    0.040261
    57  H    0.031539
    58  H    0.040591
    59  H   -0.006195
    60  H    0.059074
    61  H    0.025842
    62  H    0.020798
    63  H    0.023734
    64  H    0.011263
    65  H    0.021386
    66  H    0.027431
    67  H    0.019022
    68  H    0.016325
    69  H   -0.003141
    70  H    0.022499
    71  H    0.020497
    72  H    0.015731
    73  H    0.023509
    74  H    0.018849
    75  H    0.042584
    76  H    0.039269
    77  H    0.040910
    78  H    0.037730
    79  H    0.041739
    80  Mg   0.825828
    81  C    0.014921
    82  C   -0.064101
    83  C   -0.034121
    84  C   -0.085220
    85  N   -0.280192
    86  C   -0.033750
    87  C   -0.003278
    88  C   -0.057066
    89  C    0.024094
    90  C    0.073112
    91  C    0.009619
    92  C   -0.045393
    93  H    0.044595
    94  N   -0.376626
    95  C    0.139178
    96  C   -0.133911
    97  C   -0.051312
    98  C    0.179001
    99  C    0.140042
   100  C    0.018713
   101  O   -0.238714
   102  C    0.063170
   103  N   -0.229444
   104  C   -0.016333
   105  C   -0.028429
   106  C    0.002438
   107  C    0.020947
   108  C    0.047830
   109  C    0.001335
   110  C   -0.010175
   111  N   -0.376986
   112  C    0.118795
   113  C   -0.164100
   114  C    0.035743
   115  C    0.123902
   116  C    0.127110
   117  C    0.044581
   118  O   -0.184381
   119  C   -0.043141
   120  C    0.174912
   121  O   -0.212634
   122  O   -0.339367
   123  C    0.178568
   124  H   -0.011491
   125  H   -0.063570
   126  H   -0.026499
   127  H    0.025690
   128  H    0.012406
   129  H    0.017798
   130  H    0.012585
   131  H    0.020213
   132  H    0.032788
   133  H    0.016807
   134  H    0.030211
   135  H    0.016164
   136  H    0.037025
   137  H    0.022675
   138  H   -0.021581
   139  H    0.042197
   140  H    0.019894
   141  H    0.027752
   142  H    0.019243
   143  H    0.008133
   144  H    0.006296
   145  H    0.010279
   146  H    0.018330
   147  H    0.012624
   148  H    0.017239
   149  H    0.010734
   150  H    0.016217
   151  H    0.026510
   152  H    0.022307
   153  H    0.042559
   154  H    0.050591
   155  H    0.029745
   156  H    0.033945
   157  H    0.019721
   158  H    0.044701
 Sum of Mulliken charges =  -0.00000

 Dipole moment (field-independent basis, Debye):
    X=              5.0501    Y=              3.3913    Z=              2.1849  Tot=              6.4636
 Quadrupole moment (field-independent basis, Debye-Ang):
   XX=           -357.7245   YY=           -564.7842   ZZ=           -493.2119
   XY=            -99.2403   XZ=             39.8497   YZ=             49.0291

 Normal termination of Gaussian 16 at Tue Sep 14 15:35:41 2021.
