 Gaussian 16, Revision A.03,
 Gaussian 16:  ES64L-G16RevA.03 25-Dec-2016

 -----------------------------------
 #p cam-b3lyp/Def2SVP td=(nstates=5)
 -----------------------------------

 --------------------------------
 TDDFT excited states in gaussian
 --------------------------------
 Symbolic Z-matrix:
 Charge =  0 Multiplicity = 1

                         Standard orientation:
 ---------------------------------------------------------------------
 Center     Atomic      Atomic             Coordinates (Angstroms)
 Number     Number       Type             X           Y           Z
 ---------------------------------------------------------------------
      1         12           0       19.162248   -0.196286   -0.067904
      2          6           0       15.880194   -0.960280   -0.825443
      3          6           0       19.048326    2.254630   -2.482517
      4          6           0       22.188255    0.961111    1.073549
      5          6           0       19.159179   -2.590959    2.405298
      6          7           0       17.597669    0.686028   -1.336462
      7          6           0       16.343125    0.136113   -1.511957
      8          6           0       15.539626    0.879967   -2.575386
      9          6           0       16.680763    1.668487   -3.319810
     10          6           0       17.813350    1.569041   -2.308402
     11          6           0       17.039261    1.210718   -4.805796
     12          6           0       14.349051    1.751834   -2.063212
     13          6           0       13.055747    1.619882   -2.839431
     14          1           0       12.728015    2.879583   -3.625910
     15          7           0       20.388710    1.382491   -0.634702
     16          6           0       20.189121    2.239638   -1.642250
     17          6           0       21.328432    3.127361   -1.797620
     18          6           0       22.284723    2.854287   -0.833825
     19          6           0       21.638594    1.728668   -0.031429
     20          6           0       21.362800    4.304351   -2.884626
     21          6           0       23.698764    3.512206   -0.691984
     22          8           0       24.007748    4.457032   -1.472011
     23          6           0       24.656666    3.094330    0.357027
     24          7           0       20.438376   -0.588398    1.725512
     25          6           0       21.659989   -0.124524    1.855361
     26          6           0       22.487915   -0.917545    2.844851
     27          6           0       21.555183   -2.044444    3.404929
     28          6           0       20.308825   -1.813903    2.422835
     29          6           0       23.962638   -1.300476    2.500235
     30          6           0       21.121806   -2.042349    4.899602
     31          6           0       20.590925   -3.382996    5.363520
     32          7           0       17.772344   -1.532599    0.675438
     33          6           0       17.934792   -2.537120    1.657380
     34          6           0       16.731351   -3.322819    1.686772
     35          6           0       15.875919   -2.775601    0.699602
     36          6           0       16.567244   -1.685149    0.179061
     37          6           0       16.524396   -4.636161    2.426455
     38          6           0       14.644782   -2.957623    0.107755
     39          8           0       13.695111   -3.665641    0.304993
     40          6           0       14.504145   -1.663067   -0.849915
     41          6           0       13.594605   -0.721629   -0.061892
     42          8           0       13.942082    0.000285    0.852811
     43          8           0       12.318725   -0.873586   -0.580355
     44          6           0       11.260460   -0.139059    0.105347
     45          1           0       19.145921    2.903949   -3.354865
     46          1           0       23.154048    1.371399    1.374783
     47          1           0       19.063856   -3.469565    3.046697
     48          1           0       15.167426    0.137157   -3.280341
     49          1           0       16.423745    2.725950   -3.248109
     50          1           0       18.064279    1.568526   -4.902189
     51          1           0       16.513413    1.764003   -5.584305
     52          1           0       16.946134    0.148095   -5.029569
     53          1           0       14.734210    2.768262   -2.147120
     54          1           0       14.155178    1.742697   -0.990829
     55          1           0       12.268229    1.396834   -2.119233
     56          1           0       13.087177    0.810378   -3.568956
     57          1           0       20.455247    4.414151   -3.479748
     58          1           0       22.199398    4.167014   -3.570527
     59          1           0       21.410567    5.296837   -2.438677
     60          1           0       24.894043    2.038241    0.232806
     61          1           0       24.330371    3.410002    1.348066
     62          1           0       25.596705    3.549198    0.047216
     63          1           0       22.677116   -0.426148    3.799450
     64          1           0       21.841438   -3.036092    3.053716
     65          1           0       24.228197   -0.704528    1.625977
     66          1           0       24.127865   -2.373805    2.399766
     67          1           0       24.688468   -1.016537    3.262376
     68          1           0       20.408436   -1.224917    5.003650
     69          1           0       22.015218   -1.722142    5.435585
     70          1           0       20.836586   -3.483787    6.420978
     71          1           0       21.006492   -4.252113    4.852203
     72          1           0       19.501383   -3.359438    5.340926
     73          1           0       15.610621   -5.160840    2.147333
     74          1           0       16.543345   -4.418836    3.493616
     75          1           0       17.348310   -5.326376    2.244806
     76          1           0       14.186302   -1.944157   -1.854412
     77          1           0       11.141716   -0.531851    1.115292
     78          1           0       10.324465   -0.161875   -0.451721
     79          1           0       11.564605    0.899498    0.232629
     80         12           0      -18.870354    0.359089    0.416219
     81          6           0      -15.821124   -0.593677   -1.072623
     82          6           0      -20.126942   -2.691810   -0.612190
     83          6           0      -21.918080    1.194435    1.707789
     84          6           0      -17.625981    3.411415    1.051917
     85          7           0      -18.040948   -1.473794   -0.698000
     86          6           0      -16.731174   -1.710630   -1.097502
     87          6           0      -16.551743   -3.163822   -1.488403
     88          6           0      -18.025061   -3.682201   -1.666634
     89          6           0      -18.754226   -2.571524   -0.944518
     90          6           0      -18.482638   -3.949200   -3.154111
     91          6           0      -15.833914   -3.995413   -0.414935
     92          6           0      -14.882973   -5.073869   -0.945042
     93          1           0      -15.491395   -6.310785   -1.662631
     94          7           0      -20.727214   -0.631720    0.616241
     95          6           0      -20.987669   -1.844964    0.077078
     96          6           0      -22.368737   -2.143502    0.275636
     97          6           0      -22.952475   -1.109507    1.086277
     98          6           0      -21.889445   -0.120457    1.115015
     99          6           0      -23.002249   -3.395706   -0.264024
    100          6           0      -24.360016   -0.931885    1.655924
    101          8           0      -24.625598   -0.033428    2.484653
    102          6           0      -25.543341   -1.777396    1.198849
    103          7           0      -19.618179    2.008562    1.328912
    104          6           0      -20.937572    2.187739    1.733512
    105          6           0      -21.107699    3.585967    2.232350
    106          6           0      -19.739928    4.350476    2.118385
    107          6           0      -18.903789    3.213741    1.508553
    108          6           0      -22.343657    4.338160    1.653452
    109          6           0      -19.148080    4.859920    3.450427
    110          6           0      -19.473208    6.337560    3.742531
    111          7           0      -17.157945    1.280030    0.055006
    112          6           0      -16.702505    2.546388    0.419190
    113          6           0      -15.257507    2.774487    0.045378
    114          6           0      -14.944007    1.549612   -0.565799
    115          6           0      -16.074659    0.674012   -0.492368
    116          6           0      -14.437989    4.027173    0.296295
    117          6           0      -13.842446    0.860380   -1.220699
    118          8           0      -12.704077    1.238942   -1.499725
    119          6           0      -14.370303   -0.618013   -1.457610
    120          6           0      -14.102057   -0.909327   -2.947230
    121          8           0      -14.252266   -0.137475   -3.871817
    122          8           0      -13.493689   -2.158709   -3.051955
    123          6           0      -13.188741   -2.531413   -4.433456
    124          1           0      -20.467776   -3.693734   -0.880620
    125          1           0      -22.842841    1.562472    2.156528
    126          1           0      -17.341292    4.457364    1.181165
    127          1           0      -16.031301   -3.319002   -2.433154
    128          1           0      -18.232952   -4.637223   -1.184048
    129          1           0      -17.702935   -3.853635   -3.910325
    130          1           0      -19.263788   -3.299562   -3.548199
    131          1           0      -18.823599   -4.977625   -3.273338
    132          1           0      -16.545936   -4.487569    0.247167
    133          1           0      -15.192323   -3.362075    0.198046
    134          1           0      -14.198956   -5.427782   -0.173825
    135          1           0      -14.171992   -4.657433   -1.658314
    136          1           0      -22.665308   -3.384244   -1.300685
    137          1           0      -24.090718   -3.439579   -0.298702
    138          1           0      -22.653602   -4.319940    0.196210
    139          1           0      -25.607513   -1.799595    0.110840
    140          1           0      -26.381923   -1.259001    1.663538
    141          1           0      -25.440586   -2.809986    1.532443
    142          1           0      -21.459493    3.506449    3.261400
    143          1           0      -19.724881    5.168836    1.397397
    144          1           0      -22.816659    3.682817    0.921763
    145          1           0      -21.999413    5.236132    1.141078
    146          1           0      -22.979988    4.504812    2.523240
    147          1           0      -18.088702    4.604332    3.451713
    148          1           0      -19.621485    4.365793    4.299135
    149          1           0      -20.375823    6.629611    3.205428
    150          1           0      -18.746470    7.074623    3.400425
    151          1           0      -19.687866    6.428792    4.807698
    152          1           0      -14.227163    4.064081    1.365220
    153          1           0      -14.927949    4.968584    0.048516
    154          1           0      -13.520018    3.896428   -0.276491
    155          1           0      -13.893786   -1.391617   -0.855768
    156          1           0      -13.984884   -3.069641   -4.948699
    157          1           0      -12.284393   -3.133141   -4.344110
    158          1           0      -12.973636   -1.748349   -5.160515
 ---------------------------------------------------------------------

 SCF Done:  E(RCAM-B3LYP) =  -4069.84118933     A.U. after   19 cycles

 Excitation energies and oscillator strengths:

 Excited State   1:      Singlet-A      1.7014 eV  728.73 nm  f=0.3801  <S**2>=0.000
     310 -> 316        0.18654
     312 -> 313        0.68386
     310 <- 316        0.10956
 This state for optimization and/or second-order correction.
 Total Energy, E(TD-HF/TD-DFT) =  -4069.77866498
 Copying the excited state density for this state as the 1-particle RhoCI density.

 Excited State   2:      Singlet-A      1.8651 eV  664.77 nm  f=0.3701  <S**2>=0.000
     309 -> 315        0.14278
     311 -> 314        0.68807

 Excited State   3:      Singlet-A      2.2323 eV  555.40 nm  f=0.0995  <S**2>=0.000
     310 -> 313        0.63577
     312 -> 316       -0.29945

 Excited State   4:      Singlet-A      2.2637 eV  547.71 nm  f=0.1277  <S**2>=0.000
     309 -> 314        0.64675
     311 -> 315       -0.24677
     311 -> 318       -0.10339

 Excited State   5:      Singlet-A      3.1888 eV  388.82 nm  f=0.0000  <S**2>=0.000
     312 -> 314        0.70710

 The electronic state is 1-A.
 Alpha  occ. eigenvalues --  -46.89374 -46.87614 -19.25724 -19.24482 -19.20373
 Alpha  occ. eigenvalues --  -19.20200 -19.19840 -19.19175 -19.19060 -19.17690
 Alpha  occ. eigenvalues --  -14.42641 -14.42286 -14.42021 -14.41243 -14.40525
 Alpha  occ. eigenvalues --  -14.39860 -14.39448 -14.38462 -10.39647 -10.39055
 Alpha  occ. eigenvalues --  -10.37006 -10.35815 -10.35043 -10.33371 -10.33049
 Alpha  occ. eigenvalues --  -10.32391 -10.31692 -10.31437 -10.31404 -10.31103
 Alpha  occ. eigenvalues --  -10.31053 -10.30839 -10.30711 -10.30693 -10.30329
 Alpha  occ. eigenvalues --  -10.30293 -10.30243 -10.29774 -10.29769 -10.29551
 Alpha  occ. eigenvalues --  -10.29187 -10.29139 -10.29063 -10.28709 -10.28704
 Alpha  occ. eigenvalues --  -10.28680 -10.28593 -10.28522 -10.28383 -10.28364
 Alpha  occ. eigenvalues --  -10.28341 -10.28322 -10.28258 -10.28040 -10.28032
 Alpha  occ. eigenvalues --  -10.27824 -10.27514 -10.27484 -10.27399 -10.27333
 Alpha  occ. eigenvalues --  -10.27205 -10.27171 -10.27159 -10.27124 -10.27033
 Alpha  occ. eigenvalues --  -10.27014 -10.26928 -10.26911 -10.26897 -10.26835
 Alpha  occ. eigenvalues --  -10.26756 -10.26731 -10.26567 -10.26416 -10.26395
 Alpha  occ. eigenvalues --  -10.26369 -10.26305 -10.25976 -10.25956 -10.25907
 Alpha  occ. eigenvalues --  -10.25780 -10.25659 -10.25632 -10.25532 -10.25270
 Alpha  occ. eigenvalues --  -10.23074  -3.17812  -3.16398  -1.92696  -1.92274
 Alpha  occ. eigenvalues --   -1.92116  -1.91295  -1.90829  -1.90742  -1.16263
 Alpha  occ. eigenvalues --   -1.15426  -1.09772  -1.09195  -1.09121  -1.08898
 Alpha  occ. eigenvalues --   -1.08137  -1.07871  -1.04681  -1.04558  -1.03815
 Alpha  occ. eigenvalues --   -1.03633  -1.03166  -1.03040  -1.02522  -1.01424
 Alpha  occ. eigenvalues --   -0.92539  -0.91533  -0.89398  -0.89158  -0.88989
 Alpha  occ. eigenvalues --   -0.88464  -0.88265  -0.87943  -0.87451  -0.87031
 Alpha  occ. eigenvalues --   -0.86982  -0.86607  -0.86113  -0.85799  -0.84479
 Alpha  occ. eigenvalues --   -0.84381  -0.83610  -0.83517  -0.83179  -0.82266
 Alpha  occ. eigenvalues --   -0.82029  -0.81699  -0.80954  -0.80680  -0.80188
 Alpha  occ. eigenvalues --   -0.80052  -0.78423  -0.77618  -0.77435  -0.77254
 Alpha  occ. eigenvalues --   -0.77137  -0.76711  -0.76119  -0.75300  -0.75116
 Alpha  occ. eigenvalues --   -0.75028  -0.72649  -0.72367  -0.71667  -0.71631
 Alpha  occ. eigenvalues --   -0.69701  -0.69352  -0.69088  -0.68786  -0.68152
 Alpha  occ. eigenvalues --   -0.67875  -0.67327  -0.67284  -0.65754  -0.65584
 Alpha  occ. eigenvalues --   -0.65474  -0.65456  -0.64651  -0.64460  -0.64130
 Alpha  occ. eigenvalues --   -0.64012  -0.62542  -0.61672  -0.60341  -0.60121
 Alpha  occ. eigenvalues --   -0.59946  -0.59445  -0.59001  -0.58903  -0.58468
 Alpha  occ. eigenvalues --   -0.58436  -0.57811  -0.57715  -0.57468  -0.57361
 Alpha  occ. eigenvalues --   -0.56412  -0.55990  -0.55461  -0.55419  -0.55082
 Alpha  occ. eigenvalues --   -0.55011  -0.54657  -0.54157  -0.53901  -0.53771
 Alpha  occ. eigenvalues --   -0.53700  -0.53465  -0.53302  -0.53131  -0.53105
 Alpha  occ. eigenvalues --   -0.52849  -0.52691  -0.52536  -0.52120  -0.51985
 Alpha  occ. eigenvalues --   -0.51821  -0.51719  -0.51566  -0.51191  -0.51003
 Alpha  occ. eigenvalues --   -0.50771  -0.50502  -0.50452  -0.50187  -0.50127
 Alpha  occ. eigenvalues --   -0.50011  -0.49980  -0.49785  -0.49765  -0.49424
 Alpha  occ. eigenvalues --   -0.49336  -0.49040  -0.49001  -0.48872  -0.48677
 Alpha  occ. eigenvalues --   -0.48509  -0.48463  -0.48211  -0.48196  -0.48053
 Alpha  occ. eigenvalues --   -0.47589  -0.47560  -0.47371  -0.47335  -0.47153
 Alpha  occ. eigenvalues --   -0.46821  -0.46630  -0.46519  -0.46494  -0.46244
 Alpha  occ. eigenvalues --   -0.46160  -0.46106  -0.45933  -0.45874  -0.45484
 Alpha  occ. eigenvalues --   -0.45192  -0.45164  -0.45016  -0.44890  -0.44854
 Alpha  occ. eigenvalues --   -0.44635  -0.44592  -0.44499  -0.44325  -0.44312
 Alpha  occ. eigenvalues --   -0.44253  -0.43914  -0.43559  -0.43558  -0.43467
 Alpha  occ. eigenvalues --   -0.43387  -0.43153  -0.43058  -0.42981  -0.42682
 Alpha  occ. eigenvalues --   -0.42653  -0.42528  -0.42450  -0.42324  -0.42147
 Alpha  occ. eigenvalues --   -0.42011  -0.41907  -0.41721  -0.41577  -0.41570
 Alpha  occ. eigenvalues --   -0.41198  -0.41020  -0.40744  -0.40420  -0.40385
 Alpha  occ. eigenvalues --   -0.40210  -0.40130  -0.39834  -0.39661  -0.39247
 Alpha  occ. eigenvalues --   -0.38941  -0.38680  -0.38280  -0.38032  -0.37902
 Alpha  occ. eigenvalues --   -0.37305  -0.37229  -0.36838  -0.36605  -0.36457
 Alpha  occ. eigenvalues --   -0.36297  -0.35304  -0.35127  -0.34920  -0.34390
 Alpha  occ. eigenvalues --   -0.34254  -0.33053  -0.32822  -0.32417  -0.31855
 Alpha  occ. eigenvalues --   -0.31492  -0.30943  -0.30907  -0.30830  -0.30524
 Alpha  occ. eigenvalues --   -0.29967  -0.29630  -0.29073  -0.24040  -0.23920
 Alpha  occ. eigenvalues --   -0.21458  -0.21046
 Alpha virt. eigenvalues --   -0.08542  -0.08423  -0.01765  -0.01749   0.00028
 Alpha virt. eigenvalues --    0.00143   0.01778   0.01831   0.02021   0.03769
 Alpha virt. eigenvalues --    0.04787   0.05063   0.05207   0.05642   0.05867

 Mulliken charges:
               1
     1  Mg   0.828890
     2  C   -0.030251
     3  C   -0.118172
     4  C   -0.096036
     5  C   -0.030500
     6  N   -0.261059
     7  C   -0.046121
     8  C   -0.037648
     9  C   -0.022704
    10  C    0.032237
    11  C    0.082830
    12  C    0.069528
    13  C   -0.053141
    14  H    0.008578
    15  N   -0.381646
    16  C    0.167540
    17  C   -0.137031
    18  C   -0.024703
    19  C    0.115542
    20  C    0.116991
    21  C    0.007372
    22  O   -0.226583
    23  C    0.070467
    24  N   -0.264347
    25  C    0.101558
    26  C   -0.027340
    27  C   -0.054118
    28  C    0.007684
    29  C    0.065027
    30  C    0.060309
    31  C    0.025642
    32  N   -0.347627
    33  C    0.034470
    34  C   -0.140309
    35  C    0.052361
    36  C    0.114913
    37  C    0.104376
    38  C   -0.012358
    39  O   -0.157283
    40  C   -0.046257
    41  C    0.232215
    42  O   -0.211955
    43  O   -0.335430
    44  C    0.185464
    45  H   -0.025982
    46  H   -0.042764
    47  H   -0.041142
    48  H   -0.000713
    49  H    0.006144
    50  H    0.004888
    51  H    0.021666
    52  H    0.031760
    53  H   -0.004012
    54  H    0.028918
    55  H    0.025721
    56  H    0.027211
    57  H   -0.002817
    58  H    0.041056
    59  H    0.035885
    60  H    0.040787
    61  H    0.068736
    62  H    0.028165
    63  H    0.010210
    64  H    0.006655
    65  H    0.011342
    66  H    0.019333
    67  H    0.006898
    68  H    0.016858
    69  H    0.001316
    70  H    0.007749
    71  H    0.022077
    72  H    0.031348
    73  H    0.034200
    74  H    0.016124
    75  H    0.019362
    76  H    0.024867
    77  H    0.038232
    78  H    0.041798
    79  H    0.026748
    80  Mg   0.856980
    81  C   -0.058738
    82  C   -0.109482
    83  C   -0.071398
    84  C   -0.087098
    85  N   -0.241847
    86  C   -0.014029
    87  C    0.014375
    88  C   -0.051394
    89  C   -0.006688
    90  C    0.052937
    91  C    0.064859
    92  C   -0.070568
    93  H    0.002367
    94  N   -0.342950
    95  C    0.211704
    96  C   -0.159431
    97  C   -0.006398
    98  C    0.104275
    99  C    0.108373
   100  C    0.005847
   101  O   -0.228264
   102  C    0.038024
   103  N   -0.379053
   104  C    0.084260
   105  C   -0.051031
   106  C   -0.001749
   107  C    0.029978
   108  C    0.063127
   109  C    0.045018
   110  C   -0.000569
   111  N   -0.392759
   112  C    0.133057
   113  C   -0.159664
   114  C   -0.023282
   115  C    0.156285
   116  C    0.124930
   117  C    0.083877
   118  O   -0.172819
   119  C   -0.034175
   120  C    0.197923
   121  O   -0.193157
   122  O   -0.339657
   123  C    0.167136
   124  H   -0.033797
   125  H   -0.011011
   126  H   -0.037313
   127  H    0.007795
   128  H    0.014693
   129  H    0.013066
   130  H    0.020412
   131  H    0.012813
   132  H    0.016728
   133  H    0.012027
   134  H    0.024864
   135  H    0.028608
   136  H    0.024980
   137  H    0.003779
   138  H    0.034957
   139  H    0.040270
   140  H    0.037923
   141  H    0.041719
   142  H    0.016561
   143  H    0.017661
   144  H    0.022102
   145  H    0.012449
   146  H    0.021682
   147  H    0.012911
   148  H    0.003401
   149  H    0.004409
   150  H    0.019150
   151  H    0.018454
   152  H    0.027704
   153  H    0.025986
   154  H    0.042323
   155  H    0.042821
   156  H    0.025708
   157  H    0.037322
   158  H    0.047713
 Sum of Mulliken charges =  -0.00000

 Dipole moment (field-independent basis, Debye):
    X=              1.5659    Y=             -2.8713    Z=              0.1553  Tot=              3.2742
 Quadrupole moment (field-independent basis, Debye-Ang):
   XX=           -286.3903   YY=           -496.9755   ZZ=           -497.5617
   XY=             25.3306   XZ=             35.2498   YZ=             16.3158

 Normal termination of Gaussian 16 at Wed Sep  1 18:50:10 2021.
