 Gaussian 16, Revision A.03,
 Gaussian 16:  ES64L-G16RevA.03 25-Dec-2016

 -----------------------------------
 #p cam-b3lyp/Def2SVP td=(nstates=5)
 -----------------------------------

 --------------------------------
 TDDFT excited states in gaussian
 --------------------------------
 Symbolic Z-matrix:
 Charge =  0 Multiplicity = 1

                         Standard orientation:
 ---------------------------------------------------------------------
 Center     Atomic      Atomic             Coordinates (Angstroms)
 Number     Number       Type             X           Y           Z
 ---------------------------------------------------------------------
      1         12           0      -17.466615   -0.762116    0.310977
      2          6           0      -17.666562    2.302342   -1.305653
      3          6           0      -16.727413    0.796959    3.208733
      4          6           0      -17.127252   -3.781398    1.715844
      5          6           0      -18.080753   -2.293913   -2.777454
      6          7           0      -17.268186    1.355460    0.822814
      7          6           0      -17.472989    2.413539    0.075300
      8          6           0      -17.286577    3.701346    1.002809
      9          6           0      -16.314073    3.106959    1.999503
     10          6           0      -16.815449    1.629374    2.067994
     11          6           0      -14.861512    3.313041    1.518560
     12          6           0      -18.697533    4.274462    1.456682
     13          6           0      -18.672259    5.731730    1.927957
     14          1           0      -17.329453    6.406416    2.148993
     15          7           0      -17.174305   -1.393516    2.210829
     16          6           0      -16.960253   -0.560904    3.306765
     17          6           0      -17.015627   -1.410432    4.534117
     18          6           0      -17.069673   -2.803269    4.100981
     19          6           0      -17.045853   -2.658973    2.621103
     20          6           0      -16.947023   -0.837210    5.929803
     21          6           0      -17.181729   -4.164090    4.931570
     22          8           0      -17.294874   -5.278542    4.409959
     23          6           0      -17.163295   -4.036662    6.440554
     24          7           0      -17.472375   -2.697960   -0.420002
     25          6           0      -17.297983   -3.778139    0.336663
     26          6           0      -17.258028   -5.098096   -0.493655
     27          6           0      -17.802401   -4.587078   -1.835316
     28          6           0      -17.854771   -3.099337   -1.683096
     29          6           0      -15.858697   -5.769041   -0.579665
     30          6           0      -19.103892   -5.280027   -2.439281
     31          6           0      -20.394984   -4.538365   -2.324145
     32          7           0      -17.604354   -0.185222   -1.693350
     33          6           0      -17.913823   -0.884209   -2.811187
     34          6           0      -17.993447   -0.073373   -3.973573
     35          6           0      -17.904539    1.244614   -3.424839
     36          6           0      -17.683305    1.065841   -2.078355
     37          6           0      -18.141718   -0.361191   -5.445101
     38          6           0      -17.935086    2.654204   -3.678862
     39          8           0      -18.075611    3.291440   -4.700365
     40          6           0      -17.941141    3.422440   -2.318846
     41          6           0      -16.917093    4.471190   -2.342744
     42          8           0      -15.728529    4.223139   -2.477507
     43          8           0      -17.444469    5.787354   -2.379709
     44          6           0      -16.461685    6.872818   -2.523637
     45          1           0      -16.426189    1.334324    4.109138
     46          1           0      -16.968183   -4.748645    2.195484
     47          1           0      -18.220718   -2.808192   -3.730183
     48          1           0      -16.855594    4.514761    0.420660
     49          1           0      -16.424644    3.484619    3.015682
     50          1           0      -14.471988    4.008934    2.262361
     51          1           0      -14.800891    3.747406    0.519817
     52          1           0      -14.360575    2.356583    1.666424
     53          1           0      -19.096164    3.679816    2.279111
     54          1           0      -19.309312    4.255199    0.554462
     55          1           0      -19.245724    5.767656    2.853701
     56          1           0      -19.237794    6.307532    1.195752
     57          1           0      -17.426522    0.140883    5.982910
     58          1           0      -15.959480   -0.742438    6.380165
     59          1           0      -17.540715   -1.470130    6.589212
     60          1           0      -16.273241   -3.437845    6.632285
     61          1           0      -17.024291   -4.976426    6.974205
     62          1           0      -18.099144   -3.596647    6.785438
     63          1           0      -17.920547   -5.853354   -0.071139
     64          1           0      -16.972518   -4.678652   -2.535082
     65          1           0      -15.758666   -6.079290   -1.620064
     66          1           0      -15.671760   -6.609461    0.087006
     67          1           0      -15.117227   -5.028545   -0.279564
     68          1           0      -19.169943   -6.292179   -2.040007
     69          1           0      -18.990321   -5.359449   -3.520195
     70          1           0      -20.689811   -4.241927   -3.331052
     71          1           0      -20.344955   -3.554211   -1.856640
     72          1           0      -21.220479   -5.125513   -1.921608
     73          1           0      -18.110348   -1.428838   -5.665304
     74          1           0      -17.414737    0.235477   -5.996853
     75          1           0      -19.109887   -0.131412   -5.890538
     76          1           0      -18.906202    3.888346   -2.121391
     77          1           0      -16.858819    7.876849   -2.376332
     78          1           0      -16.106824    6.747479   -3.546968
     79          1           0      -15.647713    6.614608   -1.847253
     80         12           0       17.878491   -0.515192    0.088530
     81          6           0       15.542640    2.132384    0.022471
     82          6           0       20.386551    1.724505    0.698083
     83          6           0       20.033874   -2.930286   -0.537357
     84          6           0       15.282519   -2.662337   -1.023473
     85          7           0       17.902885    1.678124    0.443057
     86          6           0       16.865708    2.489240    0.375778
     87          6           0       17.255287    3.813024    1.008410
     88          6           0       18.820089    3.857235    0.815498
     89          6           0       19.090291    2.317733    0.628139
     90          6           0       19.226932    4.817374   -0.366180
     91          6           0       16.927148    3.867392    2.522620
     92          6           0       16.816202    5.324841    3.153049
     93          1           0       17.055515    6.587699    2.321138
     94          7           0       19.873529   -0.641887    0.279457
     95          6           0       20.795243    0.380856    0.620888
     96          6           0       22.144043   -0.224675    0.716720
     97          6           0       22.042896   -1.589836    0.266244
     98          6           0       20.613166   -1.822744   -0.032454
     99          6           0       23.347780    0.505544    1.198291
    100          6           0       23.103549   -2.747032    0.102426
    101          8           0       22.819332   -3.909382   -0.217242
    102          6           0       24.559652   -2.396008    0.203827
    103          7           0       17.701763   -2.510419   -0.792665
    104          6           0       18.723976   -3.318310   -0.890371
    105          6           0       18.405601   -4.698157   -1.394130
    106          6           0       16.847707   -4.630879   -1.569472
    107          6           0       16.550730   -3.203458   -1.009627
    108          6           0       19.268469   -5.076805   -2.601438
    109          6           0       16.073177   -5.695370   -0.802590
    110          6           0       14.842207   -6.337960   -1.536754
    111          7           0       15.758621   -0.397599   -0.359782
    112          6           0       14.835779   -1.383142   -0.761553
    113          6           0       13.528341   -0.823576   -0.729204
    114          6           0       13.737119    0.587012   -0.604905
    115          6           0       15.068754    0.781819   -0.338684
    116          6           0       12.242275   -1.597903   -0.772740
    117          6           0       13.158952    1.944406   -0.457781
    118          8           0       12.006602    2.314936   -0.542965
    119          6           0       14.373146    2.979188   -0.306972
    120          6           0       13.967384    4.152112    0.524113
    121          8           0       13.611963    4.130482    1.665549
    122          8           0       13.951773    5.336672   -0.235772
    123          6           0       12.968045    6.365442    0.163425
    124          1           0       21.252913    2.389880    0.697433
    125          1           0       20.640445   -3.832209   -0.636601
    126          1           0       14.494493   -3.368358   -1.293941
    127          1           0       16.598876    4.523143    0.505572
    128          1           0       19.325706    4.204897    1.717006
    129          1           0       18.337792    5.247314   -0.826140
    130          1           0       19.616999    4.135193   -1.121577
    131          1           0       19.864289    5.653081   -0.076996
    132          1           0       17.761618    3.347021    2.994476
    133          1           0       16.009270    3.298615    2.670827
    134          1           0       17.512718    5.309796    3.992726
    135          1           0       15.817977    5.359777    3.590107
    136          1           0       23.225757    1.483410    1.662718
    137          1           0       24.050143    0.721551    0.393714
    138          1           0       23.763584   -0.157889    1.957031
    139          1           0       24.953189   -2.420829    1.219891
    140          1           0       24.529162   -1.400404   -0.240535
    141          1           0       25.079550   -3.085230   -0.461025
    142          1           0       18.669109   -5.313336   -0.533868
    143          1           0       16.515849   -4.694173   -2.605066
    144          1           0       19.630547   -4.220817   -3.171729
    145          1           0       18.604425   -5.634633   -3.260540
    146          1           0       20.134130   -5.680348   -2.327662
    147          1           0       15.688065   -5.300137    0.137248
    148          1           0       16.846435   -6.380486   -0.455366
    149          1           0       14.621025   -5.822508   -2.471205
    150          1           0       14.010003   -6.185693   -0.849793
    151          1           0       14.864417   -7.403576   -1.767300
    152          1           0       12.358722   -2.282926   -1.612691
    153          1           0       11.352562   -0.991687   -0.944055
    154          1           0       12.145587   -2.207458    0.126264
    155          1           0       14.535316    3.462385   -1.269936
    156          1           0       13.521913    7.241970    0.499952
    157          1           0       12.286892    6.009687    0.937236
    158          1           0       12.410447    6.592899   -0.745081
 ---------------------------------------------------------------------

 SCF Done:  E(RCAM-B3LYP) =  -4069.80947920     A.U. after   19 cycles

 Excitation energies and oscillator strengths:

 Excited State   1:      Singlet-A      1.7356 eV  714.36 nm  f=0.3924  <S**2>=0.000
     309 -> 316       -0.17783
     311 -> 313        0.68648
     309 <- 316       -0.10692
 This state for optimization and/or second-order correction.
 Total Energy, E(TD-HF/TD-DFT) =  -4069.74569748
 Copying the excited state density for this state as the 1-particle RhoCI density.

 Excited State   2:      Singlet-A      1.7948 eV  690.79 nm  f=0.3741  <S**2>=0.000
     310 -> 315        0.18887
     312 -> 314        0.68030
     310 <- 315        0.10306

 Excited State   3:      Singlet-A      2.1692 eV  571.56 nm  f=0.0974  <S**2>=0.000
     310 -> 314        0.64306
     312 -> 315       -0.27290

 Excited State   4:      Singlet-A      2.2152 eV  559.70 nm  f=0.1508  <S**2>=0.000
     309 -> 313        0.65494
     311 -> 316        0.25749

 Excited State   5:      Singlet-A      3.1384 eV  395.05 nm  f=0.0000  <S**2>=0.000
     312 -> 313        0.70710

 The electronic state is 1-A.
 Alpha  occ. eigenvalues --  -46.88525 -46.87715 -19.23861 -19.23250 -19.20431
 Alpha  occ. eigenvalues --  -19.20293 -19.19561 -19.19435 -19.18350 -19.17853
 Alpha  occ. eigenvalues --  -14.41963 -14.41953 -14.41726 -14.41411 -14.40061
 Alpha  occ. eigenvalues --  -14.39730 -14.38584 -14.37989 -10.38821 -10.38533
 Alpha  occ. eigenvalues --  -10.37189 -10.36784 -10.34797 -10.34057 -10.32200
 Alpha  occ. eigenvalues --  -10.31534 -10.31280 -10.31089 -10.31011 -10.30949
 Alpha  occ. eigenvalues --  -10.30867 -10.30801 -10.30621 -10.30596 -10.30544
 Alpha  occ. eigenvalues --  -10.30406 -10.30259 -10.30081 -10.29803 -10.29718
 Alpha  occ. eigenvalues --  -10.29194 -10.28966 -10.28772 -10.28622 -10.28198
 Alpha  occ. eigenvalues --  -10.28175 -10.28077 -10.28070 -10.28047 -10.27968
 Alpha  occ. eigenvalues --  -10.27908 -10.27899 -10.27877 -10.27841 -10.27680
 Alpha  occ. eigenvalues --  -10.27616 -10.27611 -10.27579 -10.27579 -10.27542
 Alpha  occ. eigenvalues --  -10.27496 -10.27373 -10.27244 -10.27195 -10.27116
 Alpha  occ. eigenvalues --  -10.27014 -10.26887 -10.26716 -10.26684 -10.26288
 Alpha  occ. eigenvalues --  -10.26207 -10.26141 -10.26064 -10.25966 -10.25858
 Alpha  occ. eigenvalues --  -10.25850 -10.25845 -10.25716 -10.25694 -10.25613
 Alpha  occ. eigenvalues --  -10.25601 -10.25531 -10.25433 -10.24481 -10.24409
 Alpha  occ. eigenvalues --  -10.24133  -3.16986  -3.16480  -1.91899  -1.91443
 Alpha  occ. eigenvalues --   -1.91391  -1.91282  -1.90900  -1.90828  -1.15186
 Alpha  occ. eigenvalues --   -1.14446  -1.10471  -1.10437  -1.09526  -1.09526
 Alpha  occ. eigenvalues --   -1.06982  -1.06691  -1.05535  -1.05092  -1.04678
 Alpha  occ. eigenvalues --   -1.04506  -1.04100  -1.03113  -1.01679  -1.00956
 Alpha  occ. eigenvalues --   -0.92082  -0.91802  -0.89269  -0.89161  -0.88888
 Alpha  occ. eigenvalues --   -0.88530  -0.88237  -0.87733  -0.87581  -0.87247
 Alpha  occ. eigenvalues --   -0.87222  -0.87072  -0.86213  -0.85426  -0.84283
 Alpha  occ. eigenvalues --   -0.83969  -0.83674  -0.83619  -0.82855  -0.82713
 Alpha  occ. eigenvalues --   -0.82519  -0.81683  -0.80905  -0.80659  -0.80020
 Alpha  occ. eigenvalues --   -0.79851  -0.78586  -0.78539  -0.77195  -0.77175
 Alpha  occ. eigenvalues --   -0.76613  -0.76364  -0.75807  -0.75385  -0.75136
 Alpha  occ. eigenvalues --   -0.75022  -0.72769  -0.72493  -0.71682  -0.71128
 Alpha  occ. eigenvalues --   -0.69813  -0.69207  -0.68703  -0.68608  -0.67882
 Alpha  occ. eigenvalues --   -0.67238  -0.66617  -0.66568  -0.66030  -0.65181
 Alpha  occ. eigenvalues --   -0.65005  -0.64617  -0.64510  -0.64141  -0.63954
 Alpha  occ. eigenvalues --   -0.63451  -0.61199  -0.61033  -0.60588  -0.60190
 Alpha  occ. eigenvalues --   -0.59539  -0.59088  -0.59080  -0.58588  -0.58042
 Alpha  occ. eigenvalues --   -0.57967  -0.57931  -0.57571  -0.57527  -0.56815
 Alpha  occ. eigenvalues --   -0.56443  -0.55753  -0.55623  -0.55422  -0.55392
 Alpha  occ. eigenvalues --   -0.55066  -0.54740  -0.54251  -0.53941  -0.53668
 Alpha  occ. eigenvalues --   -0.53638  -0.53311  -0.53185  -0.53104  -0.52946
 Alpha  occ. eigenvalues --   -0.52810  -0.52613  -0.52290  -0.52165  -0.52086
 Alpha  occ. eigenvalues --   -0.52005  -0.51748  -0.51718  -0.51350  -0.51186
 Alpha  occ. eigenvalues --   -0.51160  -0.50895  -0.50677  -0.50645  -0.50495
 Alpha  occ. eigenvalues --   -0.50297  -0.50161  -0.50018  -0.49838  -0.49457
 Alpha  occ. eigenvalues --   -0.49266  -0.49184  -0.48959  -0.48924  -0.48759
 Alpha  occ. eigenvalues --   -0.48639  -0.48497  -0.48449  -0.48317  -0.48011
 Alpha  occ. eigenvalues --   -0.47824  -0.47706  -0.47506  -0.47327  -0.47302
 Alpha  occ. eigenvalues --   -0.47006  -0.46827  -0.46545  -0.46478  -0.46406
 Alpha  occ. eigenvalues --   -0.46242  -0.46137  -0.45972  -0.45739  -0.45546
 Alpha  occ. eigenvalues --   -0.45523  -0.45433  -0.45028  -0.44893  -0.44861
 Alpha  occ. eigenvalues --   -0.44595  -0.44277  -0.44238  -0.43962  -0.43930
 Alpha  occ. eigenvalues --   -0.43897  -0.43706  -0.43396  -0.43315  -0.43272
 Alpha  occ. eigenvalues --   -0.43174  -0.43061  -0.42929  -0.42724  -0.42587
 Alpha  occ. eigenvalues --   -0.42429  -0.42242  -0.42017  -0.41998  -0.41742
 Alpha  occ. eigenvalues --   -0.41675  -0.41539  -0.41360  -0.41342  -0.41135
 Alpha  occ. eigenvalues --   -0.40977  -0.40963  -0.40922  -0.40478  -0.40168
 Alpha  occ. eigenvalues --   -0.40123  -0.39987  -0.39927  -0.39134  -0.39045
 Alpha  occ. eigenvalues --   -0.38774  -0.38143  -0.38008  -0.37710  -0.37546
 Alpha  occ. eigenvalues --   -0.37519  -0.36573  -0.36365  -0.36100  -0.35741
 Alpha  occ. eigenvalues --   -0.35572  -0.35388  -0.34389  -0.34158  -0.33884
 Alpha  occ. eigenvalues --   -0.33782  -0.33202  -0.33086  -0.32146  -0.31889
 Alpha  occ. eigenvalues --   -0.31176  -0.31103  -0.30461  -0.30456  -0.30131
 Alpha  occ. eigenvalues --   -0.29908  -0.29511  -0.28286  -0.23846  -0.23713
 Alpha  occ. eigenvalues --   -0.21342  -0.21315
 Alpha virt. eigenvalues --   -0.08786  -0.08475  -0.02011  -0.01205  -0.00111
 Alpha virt. eigenvalues --    0.00032   0.02524   0.02733   0.03022   0.03553
 Alpha virt. eigenvalues --    0.04836   0.04848   0.05378   0.05781   0.06187

 Mulliken charges:
               1
     1  Mg   0.842578
     2  C   -0.021637
     3  C   -0.078566
     4  C   -0.075132
     5  C   -0.111313
     6  N   -0.243025
     7  C   -0.062000
     8  C   -0.047422
     9  C   -0.052396
    10  C    0.015662
    11  C    0.105866
    12  C    0.057326
    13  C   -0.053907
    14  H    0.023656
    15  N   -0.393552
    16  C    0.179577
    17  C   -0.141545
    18  C   -0.075183
    19  C    0.104642
    20  C    0.096178
    21  C    0.057917
    22  O   -0.196857
    23  C    0.033355
    24  N   -0.301804
    25  C    0.062665
    26  C   -0.047754
    27  C    0.014865
    28  C    0.029769
    29  C    0.068822
    30  C    0.044640
    31  C    0.006275
    32  N   -0.283335
    33  C    0.112498
    34  C   -0.165613
    35  C    0.022712
    36  C    0.067187
    37  C    0.123703
    38  C    0.018833
    39  O   -0.167243
    40  C    0.053326
    41  C    0.179853
    42  O   -0.224320
    43  O   -0.371116
    44  C    0.187031
    45  H   -0.022474
    46  H   -0.009380
    47  H   -0.032068
    48  H   -0.002105
    49  H   -0.022984
    50  H    0.012644
    51  H    0.048839
    52  H    0.014488
    53  H    0.011088
    54  H    0.016504
    55  H    0.022699
    56  H    0.030138
    57  H    0.017712
    58  H    0.042134
    59  H    0.008660
    60  H    0.038436
    61  H    0.029156
    62  H    0.060189
    63  H    0.009179
    64  H    0.004432
    65  H    0.017326
    66  H    0.022843
    67  H    0.019536
    68  H    0.008836
    69  H    0.003192
    70  H   -0.003690
    71  H    0.027816
    72  H    0.017015
    73  H   -0.005965
    74  H    0.044005
    75  H    0.023645
    76  H    0.037050
    77  H    0.044960
    78  H    0.038829
    79  H    0.032096
    80  Mg   0.811734
    81  C    0.065920
    82  C   -0.080760
    83  C   -0.049820
    84  C   -0.080305
    85  N   -0.243701
    86  C   -0.044096
    87  C   -0.078548
    88  C   -0.052576
    89  C    0.070650
    90  C    0.081533
    91  C    0.031112
    92  C   -0.039724
    93  H    0.027251
    94  N   -0.472422
    95  C    0.156188
    96  C   -0.129869
    97  C   -0.044027
    98  C    0.185453
    99  C    0.083040
   100  C    0.032475
   101  O   -0.206820
   102  C    0.049066
   103  N   -0.232680
   104  C   -0.065538
   105  C    0.007703
   106  C   -0.051174
   107  C    0.034387
   108  C    0.080389
   109  C    0.038144
   110  C   -0.000210
   111  N   -0.356311
   112  C    0.124436
   113  C   -0.178824
   114  C    0.006983
   115  C    0.040673
   116  C    0.124951
   117  C    0.058960
   118  O   -0.165357
   119  C   -0.025074
   120  C    0.157021
   121  O   -0.178270
   122  O   -0.379210
   123  C    0.174378
   124  H   -0.025478
   125  H   -0.012917
   126  H   -0.046835
   127  H    0.010058
   128  H    0.009971
   129  H    0.016386
   130  H    0.011434
   131  H    0.026181
   132  H    0.000526
   133  H    0.030958
   134  H    0.019239
   135  H    0.041678
   136  H    0.019230
   137  H    0.042653
   138  H    0.038233
   139  H    0.056898
   140  H    0.022348
   141  H    0.039032
   142  H    0.015440
   143  H    0.015313
   144  H    0.024437
   145  H    0.009865
   146  H    0.034394
   147  H    0.006767
   148  H   -0.002360
   149  H    0.016839
   150  H    0.017326
   151  H    0.022485
   152  H    0.015651
   153  H    0.033917
   154  H    0.028204
   155  H    0.049842
   156  H    0.034553
   157  H    0.052947
   158  H    0.037652
 Sum of Mulliken charges =  -0.00000

 Dipole moment (field-independent basis, Debye):
    X=              4.9577    Y=             -1.5201    Z=              5.4883  Tot=              7.5505
 Quadrupole moment (field-independent basis, Debye-Ang):
   XX=           -295.2698   YY=           -488.2905   ZZ=           -503.3705
   XY=             17.9162   XZ=            -82.9793   YZ=             30.5754

 Normal termination of Gaussian 16 at Thu Sep 16 13:51:50 2021.
