 Gaussian 16, Revision A.03,
 Gaussian 16:  ES64L-G16RevA.03 25-Dec-2016

 -----------------------------------
 #p cam-b3lyp/Def2SVP td=(nstates=5)
 -----------------------------------

 --------------------------------
 TDDFT excited states in gaussian
 --------------------------------
 Symbolic Z-matrix:
 Charge =  0 Multiplicity = 1

                         Standard orientation:
 ---------------------------------------------------------------------
 Center     Atomic      Atomic             Coordinates (Angstroms)
 Number     Number       Type             X           Y           Z
 ---------------------------------------------------------------------
      1         12           0       29.902925   -0.521894    0.395319
      2          6           0       26.549805    0.896142    0.498788
      3          6           0       28.583203   -3.129575   -1.406876
      4          6           0       32.923335   -1.019090   -0.950908
      5          6           0       31.006760    2.063212    2.304538
      6          7           0       27.799315   -0.931115   -0.529004
      7          6           0       26.561803   -0.235849   -0.277809
      8          6           0       25.394319   -1.064781   -0.820606
      9          6           0       26.004877   -2.474693   -1.074010
     10          6           0       27.576208   -2.231039   -1.000207
     11          6           0       25.558339   -3.571206    0.004856
     12          6           0       24.582766   -0.464074   -1.930966
     13          6           0       25.204423    0.718285   -2.711133
     14          1           0       24.595579    1.444140   -3.924763
     15          7           0       30.692087   -1.995579   -0.903472
     16          6           0       29.967662   -2.970040   -1.553716
     17          6           0       30.929027   -3.850881   -2.287616
     18          6           0       32.133332   -3.154089   -2.230170
     19          6           0       31.984162   -1.967727   -1.390604
     20          6           0       30.462952   -5.083572   -2.977843
     21          6           0       33.433850   -3.581909   -2.970640
     22          8           0       33.373204   -4.542615   -3.717265
     23          6           0       34.713569   -2.813578   -2.950260
     24          7           0       31.652823    0.538152    0.566134
     25          6           0       32.805659    0.002635   -0.007093
     26          6           0       34.049880    0.762793    0.452208
     27          6           0       33.526722    1.548915    1.708626
     28          6           0       32.016609    1.351347    1.558761
     29          6           0       35.334953   -0.044388    0.769600
     30          6           0       33.962147    3.045685    1.814214
     31          6           0       35.061380    3.376898    2.924308
     32          7           0       28.997314    1.121898    1.325160
     33          6           0       29.594850    2.058798    2.155666
     34          6           0       28.569849    2.874691    2.758871
     35          6           0       27.419199    2.480351    2.062690
     36          6           0       27.752860    1.390020    1.221782
     37          6           0       28.857711    4.002743    3.764681
     38          6           0       26.008247    2.676447    1.928639
     39          8           0       25.329749    3.488203    2.589778
     40          6           0       25.316750    1.571815    1.012792
     41          6           0       24.517128    2.348018    0.044163
     42          8           0       24.901470    3.311478   -0.627054
     43          8           0       23.320428    1.719605   -0.058221
     44          6           0       22.263085    2.430337   -0.843440
     45          1           0       28.164792   -3.948835   -1.994459
     46          1           0       33.907043   -1.202767   -1.388583
     47          1           0       31.377201    2.806152    3.013431
     48          1           0       24.808014   -1.092622    0.097888
     49          1           0       25.871082   -2.818384   -2.099870
     50          1           0       24.947000   -4.257675   -0.579570
     51          1           0       25.033879   -3.080214    0.824945
     52          1           0       26.479352   -4.065321    0.316228
     53          1           0       23.609331   -0.231855   -1.499378
     54          1           0       24.448109   -1.333398   -2.575456
     55          1           0       26.183660    0.355129   -3.024675
     56          1           0       25.354218    1.561180   -2.036158
     57          1           0       30.562269   -4.882882   -4.044196
     58          1           0       29.429465   -5.266107   -2.684966
     59          1           0       31.048226   -5.935403   -2.629751
     60          1           0       34.725970   -1.821626   -3.400295
     61          1           0       35.496372   -3.285478   -3.543361
     62          1           0       34.956926   -2.865843   -1.889151
     63          1           0       34.171707    1.370960   -0.444861
     64          1           0       33.863804    0.955758    2.558999
     65          1           0       36.069451   -0.027827   -0.036233
     66          1           0       35.081731   -1.096545    0.895423
     67          1           0       35.731209    0.332288    1.713205
     68          1           0       33.138168    3.742002    1.972590
     69          1           0       34.321540    3.283296    0.812897
     70          1           0       35.730331    4.045445    2.382994
     71          1           0       35.605745    2.512897    3.305750
     72          1           0       34.526358    3.780808    3.783051
     73          1           0       28.059756    4.204179    4.479719
     74          1           0       28.949593    4.854171    3.091216
     75          1           0       29.682869    3.722096    4.418876
     76          1           0       24.714210    0.912409    1.639205
     77          1           0       21.357276    1.823197   -0.857303
     78          1           0       22.573866    2.581064   -1.877441
     79          1           0       22.149836    3.355657   -0.280339
     80         12           0      -29.029002    0.396017   -0.719843
     81          6           0      -28.878638   -2.223763    1.650620
     82          6           0      -27.496502    2.427526    1.572206
     83          6           0      -29.753712    2.976899   -2.664493
     84          6           0      -31.005924   -1.673162   -2.735217
     85          7           0      -28.420287    0.166729    1.440028
     86          6           0      -28.364318   -1.043420    2.136553
     87          6           0      -27.497877   -0.879437    3.409593
     88          6           0      -27.081660    0.636335    3.369140
     89          6           0      -27.654985    1.153174    2.020563
     90          6           0      -27.331782    1.457488    4.621998
     91          6           0      -26.297198   -1.828184    3.549227
     92          6           0      -26.282775   -2.635187    4.876489
     93          1           0      -25.031139   -2.488782    5.713118
     94          7           0      -28.582542    2.417243   -0.580076
     95          6           0      -27.978957    3.094543    0.438439
     96          6           0      -27.758171    4.449869   -0.006673
     97          6           0      -28.558216    4.668019   -1.208748
     98          6           0      -29.007110    3.312842   -1.489142
     99          6           0      -27.007418    5.551836    0.905779
    100          6           0      -29.078190    5.892451   -1.829732
    101          8           0      -29.729625    5.982216   -2.831145
    102          6           0      -28.759435    7.195206   -1.102240
    103          7           0      -30.408653    0.639397   -2.365707
    104          6           0      -30.464887    1.809461   -3.031278
    105          6           0      -31.202556    1.640612   -4.361562
    106          6           0      -31.267756    0.113314   -4.522309
    107          6           0      -30.838790   -0.369353   -3.154688
    108          6           0      -32.653200    2.307627   -4.313064
    109          6           0      -30.187574   -0.330048   -5.635038
    110          6           0      -28.699100   -0.250123   -5.198821
    111          7           0      -29.737541   -1.598449   -0.709477
    112          6           0      -30.498654   -2.272042   -1.587077
    113          6           0      -30.683099   -3.608220   -1.087941
    114          6           0      -30.033148   -3.641820    0.131512
    115          6           0      -29.509752   -2.369893    0.379395
    116          6           0      -31.444779   -4.764824   -1.706724
    117          6           0      -29.795104   -4.549227    1.257233
    118          8           0      -30.124870   -5.645734    1.612043
    119          6           0      -28.969448   -3.696465    2.256475
    120          6           0      -29.756061   -3.685878    3.514845
    121          8           0      -30.907033   -3.328318    3.534007
    122          8           0      -29.067824   -4.201018    4.601531
    123          6           0      -29.883336   -4.500087    5.825966
    124          1           0      -26.828763    2.999675    2.219871
    125          1           0      -29.921178    3.766659   -3.400338
    126          1           0      -31.423994   -2.444572   -3.385340
    127          1           0      -28.141825   -0.978223    4.283725
    128          1           0      -25.993178    0.682485    3.329665
    129          1           0      -28.031786    0.955825    5.288513
    130          1           0      -27.683669    2.469667    4.420987
    131          1           0      -26.383777    1.473617    5.159114
    132          1           0      -25.297746   -1.393207    3.544794
    133          1           0      -26.269181   -2.538380    2.723138
    134          1           0      -26.553560   -3.678197    4.712778
    135          1           0      -27.069544   -2.231306    5.512378
    136          1           0      -26.267512    6.051952    0.280959
    137          1           0      -26.439950    5.170303    1.753768
    138          1           0      -27.606779    6.305904    1.415870
    139          1           0      -27.670505    7.238480   -1.134000
    140          1           0      -29.141548    7.048099   -0.092561
    141          1           0      -29.128504    8.095045   -1.595331
    142          1           0      -30.645595    2.017760   -5.219923
    143          1           0      -32.219478   -0.379711   -4.721673
    144          1           0      -32.893336    2.613130   -5.331787
    145          1           0      -32.799832    3.194550   -3.695721
    146          1           0      -33.307847    1.490248   -4.011086
    147          1           0      -30.297453    0.216670   -6.571384
    148          1           0      -30.266788   -1.402977   -5.810651
    149          1           0      -27.969449   -0.382634   -5.996961
    150          1           0      -28.528327   -1.046034   -4.473756
    151          1           0      -28.553892    0.711102   -4.704729
    152          1           0      -31.044564   -5.107659   -2.660598
    153          1           0      -32.439216   -4.352759   -1.876188
    154          1           0      -31.581104   -5.596867   -1.015935
    155          1           0      -28.065080   -4.287903    2.398246
    156          1           0      -29.209039   -4.087636    6.576503
    157          1           0      -30.017363   -5.567595    5.999808
    158          1           0      -30.885974   -4.086995    5.933438
 ---------------------------------------------------------------------

 SCF Done:  E(RCAM-B3LYP) =  -4069.78507388     A.U. after   19 cycles

 Excitation energies and oscillator strengths:

 Excited State   1:      Singlet-A      1.6562 eV  748.63 nm  f=0.3564  <S**2>=0.000
     309 -> 315       -0.15661
     312 -> 314        0.69071
     309 <- 315       -0.10158
 This state for optimization and/or second-order correction.
 Total Energy, E(TD-HF/TD-DFT) =  -4069.72421128
 Copying the excited state density for this state as the 1-particle RhoCI density.

 Excited State   2:      Singlet-A      1.7037 eV  727.75 nm  f=0.4041  <S**2>=0.000
     310 -> 316       -0.17557
     311 -> 313        0.68731
     310 <- 316       -0.10763

 Excited State   3:      Singlet-A      2.1918 eV  565.68 nm  f=0.1392  <S**2>=0.000
     310 -> 313        0.65684
     311 -> 316        0.24837

 Excited State   4:      Singlet-A      2.2760 eV  544.75 nm  f=0.0763  <S**2>=0.000
     309 -> 314        0.61914
     312 -> 315        0.32532

 Excited State   5:      Singlet-A      2.9951 eV  413.96 nm  f=0.0000  <S**2>=0.000
     312 -> 313        0.70711

 The electronic state is 1-A.
 Alpha  occ. eigenvalues --  -46.89555 -46.89322 -19.25381 -19.25154 -19.19617
 Alpha  occ. eigenvalues --  -19.19441 -19.19290 -19.19094 -19.18410 -19.17092
 Alpha  occ. eigenvalues --  -14.42486 -14.42122 -14.41932 -14.41564 -14.39783
 Alpha  occ. eigenvalues --  -14.39743 -14.39241 -14.38759 -10.39154 -10.38804
 Alpha  occ. eigenvalues --  -10.35519 -10.35166 -10.34385 -10.33552 -10.32148
 Alpha  occ. eigenvalues --  -10.31952 -10.31818 -10.31670 -10.31539 -10.31022
 Alpha  occ. eigenvalues --  -10.30892 -10.30829 -10.30786 -10.30770 -10.30765
 Alpha  occ. eigenvalues --  -10.30519 -10.30251 -10.29974 -10.29639 -10.29363
 Alpha  occ. eigenvalues --  -10.29172 -10.29025 -10.28853 -10.28734 -10.28687
 Alpha  occ. eigenvalues --  -10.28533 -10.28495 -10.28409 -10.28197 -10.28042
 Alpha  occ. eigenvalues --  -10.28037 -10.28008 -10.27902 -10.27896 -10.27876
 Alpha  occ. eigenvalues --  -10.27776 -10.27690 -10.27654 -10.27627 -10.27575
 Alpha  occ. eigenvalues --  -10.27519 -10.27404 -10.27316 -10.27253 -10.27183
 Alpha  occ. eigenvalues --  -10.27139 -10.27041 -10.26999 -10.26938 -10.26910
 Alpha  occ. eigenvalues --  -10.26803 -10.26658 -10.26564 -10.26521 -10.26407
 Alpha  occ. eigenvalues --  -10.26284 -10.26276 -10.26185 -10.26050 -10.25974
 Alpha  occ. eigenvalues --  -10.25966 -10.25960 -10.25620 -10.25072 -10.25053
 Alpha  occ. eigenvalues --  -10.23994  -3.17957  -3.17810  -1.92840  -1.92683
 Alpha  occ. eigenvalues --   -1.92426  -1.92287  -1.92251  -1.92092  -1.16101
 Alpha  occ. eigenvalues --   -1.15700  -1.11681  -1.11078  -1.10703  -1.07633
 Alpha  occ. eigenvalues --   -1.07499  -1.06696  -1.05198  -1.04855  -1.04301
 Alpha  occ. eigenvalues --   -1.04039  -1.03845  -1.02839  -1.02009  -1.00369
 Alpha  occ. eigenvalues --   -0.92372  -0.91954  -0.89363  -0.88990  -0.88890
 Alpha  occ. eigenvalues --   -0.88823  -0.88625  -0.88230  -0.87753  -0.86839
 Alpha  occ. eigenvalues --   -0.86666  -0.86555  -0.86341  -0.86101  -0.84423
 Alpha  occ. eigenvalues --   -0.84392  -0.83717  -0.83509  -0.82747  -0.82518
 Alpha  occ. eigenvalues --   -0.82368  -0.81222  -0.80983  -0.80875  -0.80184
 Alpha  occ. eigenvalues --   -0.80177  -0.78390  -0.78039  -0.77772  -0.77432
 Alpha  occ. eigenvalues --   -0.76774  -0.76507  -0.76176  -0.76016  -0.75266
 Alpha  occ. eigenvalues --   -0.75235  -0.73115  -0.73048  -0.71776  -0.71698
 Alpha  occ. eigenvalues --   -0.69653  -0.69378  -0.69209  -0.69029  -0.68089
 Alpha  occ. eigenvalues --   -0.67625  -0.67312  -0.66926  -0.66202  -0.65495
 Alpha  occ. eigenvalues --   -0.65384  -0.65333  -0.65168  -0.64681  -0.64452
 Alpha  occ. eigenvalues --   -0.63558  -0.62290  -0.62137  -0.60423  -0.59731
 Alpha  occ. eigenvalues --   -0.59641  -0.59296  -0.59134  -0.59062  -0.58763
 Alpha  occ. eigenvalues --   -0.58137  -0.58042  -0.57548  -0.57515  -0.57214
 Alpha  occ. eigenvalues --   -0.56788  -0.56299  -0.55998  -0.55381  -0.55234
 Alpha  occ. eigenvalues --   -0.55192  -0.54588  -0.54584  -0.54259  -0.54209
 Alpha  occ. eigenvalues --   -0.53685  -0.53472  -0.53437  -0.52954  -0.52872
 Alpha  occ. eigenvalues --   -0.52682  -0.52566  -0.52451  -0.52309  -0.52139
 Alpha  occ. eigenvalues --   -0.51897  -0.51852  -0.51505  -0.51396  -0.51272
 Alpha  occ. eigenvalues --   -0.51223  -0.51060  -0.50775  -0.50668  -0.50042
 Alpha  occ. eigenvalues --   -0.49989  -0.49809  -0.49679  -0.49548  -0.49518
 Alpha  occ. eigenvalues --   -0.49393  -0.49331  -0.49045  -0.48960  -0.48796
 Alpha  occ. eigenvalues --   -0.48417  -0.48366  -0.48299  -0.48130  -0.47951
 Alpha  occ. eigenvalues --   -0.47771  -0.47619  -0.47587  -0.47481  -0.47167
 Alpha  occ. eigenvalues --   -0.47019  -0.46924  -0.46808  -0.46562  -0.46443
 Alpha  occ. eigenvalues --   -0.46253  -0.46144  -0.46110  -0.45908  -0.45729
 Alpha  occ. eigenvalues --   -0.45606  -0.45476  -0.45318  -0.45203  -0.45114
 Alpha  occ. eigenvalues --   -0.44971  -0.44529  -0.44459  -0.44066  -0.44005
 Alpha  occ. eigenvalues --   -0.43959  -0.43697  -0.43494  -0.43432  -0.43396
 Alpha  occ. eigenvalues --   -0.43341  -0.43067  -0.42910  -0.42839  -0.42748
 Alpha  occ. eigenvalues --   -0.42573  -0.42447  -0.42320  -0.42295  -0.42136
 Alpha  occ. eigenvalues --   -0.42083  -0.41997  -0.41941  -0.41763  -0.41474
 Alpha  occ. eigenvalues --   -0.41379  -0.41089  -0.40934  -0.40781  -0.40327
 Alpha  occ. eigenvalues --   -0.39934  -0.39744  -0.39367  -0.39099  -0.39094
 Alpha  occ. eigenvalues --   -0.38521  -0.38338  -0.38076  -0.37850  -0.37422
 Alpha  occ. eigenvalues --   -0.37112  -0.37034  -0.36599  -0.36374  -0.36360
 Alpha  occ. eigenvalues --   -0.36246  -0.35855  -0.34414  -0.34396  -0.34093
 Alpha  occ. eigenvalues --   -0.33841  -0.33408  -0.32708  -0.31628  -0.31542
 Alpha  occ. eigenvalues --   -0.31231  -0.31188  -0.30401  -0.30311  -0.30162
 Alpha  occ. eigenvalues --   -0.30121  -0.29448  -0.29250  -0.24470  -0.24188
 Alpha  occ. eigenvalues --   -0.21592  -0.20770
 Alpha virt. eigenvalues --   -0.09183  -0.08601  -0.01808  -0.01440   0.00547
 Alpha virt. eigenvalues --    0.00910   0.01455   0.01676   0.02482   0.02500
 Alpha virt. eigenvalues --    0.04868   0.05298   0.05392   0.05661   0.06093

 Mulliken charges:
               1
     1  Mg   0.820331
     2  C   -0.030335
     3  C   -0.063589
     4  C   -0.071131
     5  C   -0.075643
     6  N   -0.309275
     7  C   -0.098366
     8  C    0.032393
     9  C   -0.088993
    10  C    0.018025
    11  C    0.083163
    12  C    0.077571
    13  C   -0.047002
    14  H    0.019763
    15  N   -0.391655
    16  C    0.125450
    17  C   -0.145344
    18  C   -0.034497
    19  C    0.142963
    20  C    0.154403
    21  C   -0.013499
    22  O   -0.198110
    23  C    0.066663
    24  N   -0.314454
    25  C    0.069828
    26  C   -0.078975
    27  C    0.038567
    28  C   -0.001198
    29  C    0.080936
    30  C    0.022875
    31  C   -0.006872
    32  N   -0.284785
    33  C    0.084269
    34  C   -0.172573
    35  C    0.043279
    36  C    0.082292
    37  C    0.114720
    38  C    0.003088
    39  O   -0.216424
    40  C    0.045249
    41  C    0.197717
    42  O   -0.231864
    43  O   -0.339254
    44  C    0.180680
    45  H   -0.019401
    46  H   -0.063771
    47  H   -0.033480
    48  H    0.001479
    49  H    0.014762
    50  H    0.026225
    51  H    0.028996
    52  H    0.019952
    53  H    0.006699
    54  H   -0.008012
    55  H    0.024312
    56  H    0.048675
    57  H    0.049569
    58  H   -0.000647
    59  H    0.036252
    60  H    0.054905
    61  H    0.021123
    62  H    0.037900
    63  H    0.025851
    64  H    0.005564
    65  H    0.018964
    66  H    0.015436
    67  H    0.020824
    68  H    0.021151
    69  H   -0.000052
    70  H    0.029362
    71  H    0.015090
    72  H    0.025946
    73  H    0.027715
    74  H    0.049110
    75  H    0.018937
    76  H    0.043767
    77  H    0.041282
    78  H    0.050537
    79  H    0.054590
    80  Mg   0.813076
    81  C   -0.023643
    82  C   -0.077252
    83  C   -0.062019
    84  C   -0.064338
    85  N   -0.302476
    86  C   -0.035130
    87  C    0.006887
    88  C   -0.058619
    89  C    0.050781
    90  C    0.068881
    91  C    0.056722
    92  C   -0.088703
    93  H    0.008345
    94  N   -0.363083
    95  C    0.161195
    96  C   -0.116989
    97  C   -0.041642
    98  C    0.130654
    99  C    0.062506
   100  C   -0.022261
   101  O   -0.176335
   102  C    0.054562
   103  N   -0.263240
   104  C    0.030073
   105  C   -0.035233
   106  C   -0.014428
   107  C    0.032490
   108  C    0.066528
   109  C    0.004390
   110  C   -0.014663
   111  N   -0.320768
   112  C    0.065151
   113  C   -0.162615
   114  C   -0.035089
   115  C    0.140038
   116  C    0.116966
   117  C    0.069097
   118  O   -0.136700
   119  C    0.003853
   120  C    0.181196
   121  O   -0.201508
   122  O   -0.351214
   123  C    0.165225
   124  H   -0.034080
   125  H   -0.000969
   126  H   -0.031195
   127  H    0.018633
   128  H    0.008126
   129  H    0.008572
   130  H    0.022450
   131  H    0.009360
   132  H    0.019150
   133  H    0.009132
   134  H    0.046112
   135  H    0.015643
   136  H    0.027196
   137  H    0.003891
   138  H    0.033301
   139  H    0.021872
   140  H    0.036831
   141  H    0.022635
   142  H    0.016585
   143  H    0.012836
   144  H    0.017354
   145  H    0.035562
   146  H    0.016224
   147  H    0.020202
   148  H    0.002065
   149  H    0.023668
   150  H    0.021699
   151  H    0.021067
   152  H    0.029123
   153  H    0.019752
   154  H    0.036347
   155  H    0.033828
   156  H    0.035895
   157  H    0.044043
   158  H    0.056423
 Sum of Mulliken charges =  -0.00000

 Dipole moment (field-independent basis, Debye):
    X=              5.9085    Y=             -1.8623    Z=              1.3523  Tot=              6.3410
 Quadrupole moment (field-independent basis, Debye-Ang):
   XX=           -485.9624   YY=           -554.3082   ZZ=           -496.4281
   XY=            -87.7412   XZ=             69.8886   YZ=              6.8854

 Normal termination of Gaussian 16 at Tue Aug 31 19:16:43 2021.
