 Gaussian 16, Revision A.03,
 Gaussian 16:  ES64L-G16RevA.03 25-Dec-2016

 ----------------------------------------------------------
 #p cam-b3lyp/Def2SVP td=(nstates=5) density=(transition=1)
 ----------------------------------------------------------

 --------------------------------
 TDDFT excited states in gaussian
 --------------------------------
 Symbolic Z-matrix:
 Charge =  0 Multiplicity = 1

                         Standard orientation:
 ---------------------------------------------------------------------
 Center     Atomic      Atomic             Coordinates (Angstroms)
 Number     Number       Type             X           Y           Z
 ---------------------------------------------------------------------
      1         12           0      -22.302227   -0.016651    0.452770
      2          6           0      -19.396405    1.535939   -0.649409
      3          6           0      -23.659009    0.751884   -2.769039
      4          6           0      -24.924067   -1.868529    1.161139
      5          6           0      -20.507084   -1.251111    3.211627
      6          7           0      -21.547921    0.914127   -1.504265
      7          6           0      -20.335123    1.553091   -1.633199
      8          6           0      -20.191633    2.131114   -3.043720
      9          6           0      -21.659734    2.093227   -3.551137
     10          6           0      -22.347443    1.164933   -2.584890
     11          6           0      -22.456629    3.452510   -3.656395
     12          6           0      -19.217760    1.333387   -3.926451
     13          6           0      -18.905234    1.935638   -5.242798
     14          1           0      -17.567756    1.479982   -5.941817
     15          7           0      -24.077845   -0.521786   -0.654074
     16          6           0      -24.454676   -0.087155   -1.934384
     17          6           0      -25.742853   -0.647942   -2.233077
     18          6           0      -26.074206   -1.536271   -1.144412
     19          6           0      -24.997586   -1.309818   -0.119235
     20          6           0      -26.470601   -0.419514   -3.586629
     21          6           0      -27.340402   -2.398633   -1.135959
     22          8           0      -28.211987   -2.272892   -1.980080
     23          6           0      -27.514266   -3.408113   -0.066282
     24          7           0      -22.722827   -1.192749    2.098292
     25          6           0      -23.903242   -1.817859    2.164104
     26          6           0      -23.925348   -2.786342    3.415226
     27          6           0      -22.500380   -2.665703    4.080142
     28          6           0      -21.809491   -1.649225    3.016476
     29          6           0      -25.108129   -2.647002    4.409342
     30          6           0      -21.799890   -4.041226    4.096005
     31          6           0      -20.810977   -4.257329    5.247979
     32          7           0      -20.346277    0.074612    1.211368
     33          6           0      -19.794087   -0.357298    2.384683
     34          6           0      -18.444781    0.209163    2.498563
     35          6           0      -18.303210    1.009898    1.397128
     36          6           0      -19.422218    0.862643    0.609229
     37          6           0      -17.493207    0.041504    3.687576
     38          6           0      -17.389207    1.871879    0.709945
     39          8           0      -16.288275    2.275306    0.993803
     40          6           0      -18.069436    2.262131   -0.644689
     41          6           0      -18.302487    3.732378   -0.622181
     42          8           0      -18.815618    4.372651    0.253145
     43          8           0      -17.947436    4.259573   -1.875948
     44          6           0      -18.188122    5.663832   -2.049352
     45          1           0      -24.014961    1.114630   -3.735083
     46          1           0      -25.729549   -2.501228    1.540960
     47          1           0      -19.941924   -1.558510    4.094126
     48          1           0      -19.911565    3.174936   -2.908583
     49          1           0      -21.817889    1.612192   -4.515747
     50          1           0      -22.852903    3.445179   -4.671561
     51          1           0      -22.008234    4.341902   -3.212836
     52          1           0      -23.341276    3.336222   -3.030485
     53          1           0      -19.567008    0.350609   -4.244272
     54          1           0      -18.289258    1.155019   -3.383965
     55          1           0      -18.889345    3.015428   -5.094805
     56          1           0      -19.739456    1.752700   -5.919854
     57          1           0      -26.272335   -1.404302   -4.010895
     58          1           0      -25.983305    0.264277   -4.281961
     59          1           0      -27.529504   -0.173070   -3.666816
     60          1           0      -26.572542   -3.956816   -0.053313
     61          1           0      -28.296879   -4.102123   -0.373249
     62          1           0      -27.696916   -2.804003    0.822760
     63          1           0      -24.045469   -3.788039    3.001616
     64          1           0      -22.487603   -2.214477    5.071768
     65          1           0      -25.772785   -3.498881    4.262217
     66          1           0      -25.565961   -1.668572    4.267686
     67          1           0      -24.746353   -2.769080    5.430260
     68          1           0      -21.293949   -4.105577    3.133021
     69          1           0      -22.484006   -4.889322    4.061063
     70          1           0      -21.201193   -5.150367    5.737359
     71          1           0      -20.692632   -3.400702    5.911638
     72          1           0      -19.827750   -4.520067    4.857489
     73          1           0      -16.451246   -0.168302    3.448194
     74          1           0      -17.967443   -0.771562    4.237745
     75          1           0      -17.676782    0.895923    4.339203
     76          1           0      -17.366958    1.982436   -1.429891
     77          1           0      -17.208847    6.142159   -2.069584
     78          1           0      -18.820331    6.191472   -1.334799
     79          1           0      -18.691433    5.788773   -3.007702
     80         12           0       21.475295   -0.691208   -0.602081
     81          6           0       22.695545    2.421867    0.537933
     82          6           0       18.507583   -0.023919    0.671441
     83          6           0       20.728920   -4.007330   -0.947176
     84          6           0       25.022257   -1.661195   -0.993715
     85          7           0       20.745962    1.016064    0.535321
     86          6           0       21.318367    2.230641    0.663537
     87          6           0       20.252434    3.245378    1.121433
     88          6           0       18.959424    2.494889    1.136723
     89          6           0       19.402197    1.039249    0.798015
     90          6           0       18.116353    2.744196    2.453673
     91          6           0       20.166351    4.622557    0.382292
     92          6           0       18.787332    5.369877    0.129646
     93          1           0       18.712431    6.879625    0.400694
     94          7           0       19.748296   -1.778913   -0.413862
     95          6           0       18.588603   -1.295098    0.148363
     96          6           0       17.597610   -2.329645    0.060389
     97          6           0       18.208954   -3.566970   -0.382066
     98          6           0       19.622730   -3.164197   -0.549781
     99          6           0       16.241577   -2.035834    0.560984
    100          6           0       17.585390   -4.950820   -0.689580
    101          8           0       18.278150   -5.861334   -1.005091
    102          6           0       16.105995   -5.096335   -0.839150
    103          7           0       22.748098   -2.568500   -0.871244
    104          6           0       22.100429   -3.732027   -1.104794
    105          6           0       23.086379   -4.893561   -1.450079
    106          6           0       24.460390   -4.158682   -1.509652
    107          6           0       24.102905   -2.710912   -1.091356
    108          6           0       23.098512   -6.047318   -0.482849
    109          6           0       25.247682   -4.170296   -2.866497
    110          6           0       24.820044   -3.256169   -3.964485
    111          7           0       23.499180    0.098919   -0.343940
    112          6           0       24.750787   -0.387405   -0.591830
    113          6           0       25.717827    0.666914   -0.406613
    114          6           0       24.996051    1.804856    0.040407
    115          6           0       23.651483    1.386284    0.104867
    116          6           0       27.201142    0.564144   -0.464841
    117          6           0       25.085177    3.165459    0.487864
    118          8           0       26.014849    3.956685    0.597135
    119          6           0       23.594328    3.646829    0.784534
    120          6           0       23.445399    4.316308    2.140312
    121          8           0       23.602900    3.748623    3.190296
    122          8           0       23.064160    5.636041    1.957475
    123          6           0       22.929240    6.377533    3.211805
    124          1           0       17.454708    0.182638    0.876423
    125          1           0       20.400320   -5.038815   -1.088517
    126          1           0       26.062476   -1.912613   -1.210504
    127          1           0       20.659324    3.460691    2.109463
    128          1           0       18.330155    2.913614    0.350881
    129          1           0       18.587040    3.533056    3.040177
    130          1           0       17.970245    1.778727    2.937973
    131          1           0       17.148330    3.190274    2.224784
    132          1           0       20.607198    4.472319   -0.603500
    133          1           0       20.807702    5.372720    0.845662
    134          1           0       18.076523    4.842474    0.766118
    135          1           0       18.477012    5.200087   -0.901430
    136          1           0       15.893881   -2.961164    1.019749
    137          1           0       15.616176   -1.842445   -0.309748
    138          1           0       16.047710   -1.223711    1.261877
    139          1           0       15.798209   -5.362292    0.171260
    140          1           0       15.897793   -5.805436   -1.640937
    141          1           0       15.568448   -4.170473   -1.045089
    142          1           0       22.941198   -5.260665   -2.466279
    143          1           0       25.226474   -4.387822   -0.769565
    144          1           0       22.265569   -5.988357    0.218947
    145          1           0       23.996913   -6.058480    0.134850
    146          1           0       23.017056   -6.943278   -1.097752
    147          1           0       25.242700   -5.177394   -3.283566
    148          1           0       26.306963   -4.062200   -2.632293
    149          1           0       23.773533   -2.982602   -3.828664
    150          1           0       24.821270   -3.584591   -5.004070
    151          1           0       25.525332   -2.425373   -3.926312
    152          1           0       27.639630   -0.140621    0.241066
    153          1           0       27.569483    1.484612   -0.011203
    154          1           0       27.556547    0.398072   -1.482177
    155          1           0       23.348573    4.348271   -0.013018
    156          1           0       21.851423    6.437691    3.064047
    157          1           0       23.455561    7.309660    3.007679
    158          1           0       23.273165    5.817544    4.081687
 ---------------------------------------------------------------------

 SCF Done:  E(RCAM-B3LYP) =  -4069.79929173     A.U. after   18 cycles

 Excitation energies and oscillator strengths:

 Excited State   1:      Singlet-A      1.7017 eV  728.57 nm  f=0.3939  <S**2>=0.000
     310 -> 316        0.18700
     312 -> 314        0.68381
     310 <- 316        0.11025
 This state for optimization and/or second-order correction.
 Total Energy, E(TD-HF/TD-DFT) =  -4069.73675385
 Copying the excited state density for this state as the 1-particle RhoCI density.

 Excited State   2:      Singlet-A      1.7656 eV  702.21 nm  f=0.3896  <S**2>=0.000
     309 -> 315        0.17237
     311 -> 313        0.68744
     309 <- 315        0.10343

 Excited State   3:      Singlet-A      2.1898 eV  566.19 nm  f=0.1093  <S**2>=0.000
     310 -> 314        0.64228
     312 -> 316       -0.28257

 Excited State   4:      Singlet-A      2.2943 eV  540.41 nm  f=0.1177  <S**2>=0.000
     309 -> 313        0.63735
     311 -> 315       -0.29068

 Excited State   5:      Singlet-A      3.0440 eV  407.31 nm  f=0.0000  <S**2>=0.000
     312 -> 313        0.70710

 The electronic state is 1-A.
 Alpha  occ. eigenvalues --  -46.89975 -46.89700 -19.24988 -19.24717 -19.20539
 Alpha  occ. eigenvalues --  -19.20007 -19.19559 -19.18727 -19.18613 -19.18569
 Alpha  occ. eigenvalues --  -14.42696 -14.42384 -14.42196 -14.41763 -14.40265
 Alpha  occ. eigenvalues --  -14.39476 -14.39135 -14.38790 -10.39548 -10.39099
 Alpha  occ. eigenvalues --  -10.35708 -10.34895 -10.34780 -10.34196 -10.32399
 Alpha  occ. eigenvalues --  -10.31632 -10.31608 -10.31268 -10.31239 -10.31217
 Alpha  occ. eigenvalues --  -10.31159 -10.31115 -10.31106 -10.30867 -10.30693
 Alpha  occ. eigenvalues --  -10.30602 -10.30345 -10.29581 -10.29565 -10.29428
 Alpha  occ. eigenvalues --  -10.29272 -10.28995 -10.28654 -10.28632 -10.28571
 Alpha  occ. eigenvalues --  -10.28388 -10.28290 -10.28268 -10.28223 -10.28209
 Alpha  occ. eigenvalues --  -10.28163 -10.28019 -10.27943 -10.27908 -10.27826
 Alpha  occ. eigenvalues --  -10.27813 -10.27785 -10.27784 -10.27635 -10.27563
 Alpha  occ. eigenvalues --  -10.27539 -10.27452 -10.27348 -10.27279 -10.27004
 Alpha  occ. eigenvalues --  -10.26960 -10.26838 -10.26759 -10.26702 -10.26571
 Alpha  occ. eigenvalues --  -10.26541 -10.26535 -10.26514 -10.26447 -10.26331
 Alpha  occ. eigenvalues --  -10.26278 -10.26240 -10.26114 -10.26111 -10.26100
 Alpha  occ. eigenvalues --  -10.25664 -10.25376 -10.25089 -10.24955 -10.24861
 Alpha  occ. eigenvalues --  -10.24024  -3.18284  -3.18121  -1.93157  -1.93028
 Alpha  occ. eigenvalues --   -1.92748  -1.92579  -1.92575  -1.92409  -1.16662
 Alpha  occ. eigenvalues --   -1.16271  -1.12879  -1.10380  -1.10153  -1.09192
 Alpha  occ. eigenvalues --   -1.08872  -1.08520  -1.04633  -1.04201  -1.03829
 Alpha  occ. eigenvalues --   -1.03761  -1.03122  -1.02863  -1.02463  -1.01817
 Alpha  occ. eigenvalues --   -0.93306  -0.91594  -0.89457  -0.89284  -0.89273
 Alpha  occ. eigenvalues --   -0.88876  -0.88862  -0.88239  -0.88132  -0.87352
 Alpha  occ. eigenvalues --   -0.87154  -0.86498  -0.86075  -0.85988  -0.85253
 Alpha  occ. eigenvalues --   -0.84087  -0.83985  -0.83639  -0.83203  -0.82625
 Alpha  occ. eigenvalues --   -0.82508  -0.81978  -0.81341  -0.80893  -0.80819
 Alpha  occ. eigenvalues --   -0.80382  -0.78266  -0.77800  -0.77392  -0.77152
 Alpha  occ. eigenvalues --   -0.77137  -0.77081  -0.76246  -0.75834  -0.75565
 Alpha  occ. eigenvalues --   -0.74632  -0.73287  -0.72309  -0.72086  -0.71449
 Alpha  occ. eigenvalues --   -0.69795  -0.69377  -0.69257  -0.69110  -0.68184
 Alpha  occ. eigenvalues --   -0.67830  -0.66887  -0.66806  -0.66137  -0.65621
 Alpha  occ. eigenvalues --   -0.65020  -0.64900  -0.64656  -0.64287  -0.64118
 Alpha  occ. eigenvalues --   -0.63992  -0.62740  -0.61687  -0.60279  -0.60007
 Alpha  occ. eigenvalues --   -0.59938  -0.59532  -0.59354  -0.58898  -0.58784
 Alpha  occ. eigenvalues --   -0.58499  -0.58330  -0.57978  -0.57613  -0.57367
 Alpha  occ. eigenvalues --   -0.56545  -0.56128  -0.55945  -0.55860  -0.55517
 Alpha  occ. eigenvalues --   -0.55369  -0.55035  -0.54970  -0.54565  -0.54430
 Alpha  occ. eigenvalues --   -0.54067  -0.54041  -0.53702  -0.53613  -0.53358
 Alpha  occ. eigenvalues --   -0.53325  -0.53190  -0.52749  -0.52687  -0.52358
 Alpha  occ. eigenvalues --   -0.51948  -0.51762  -0.51709  -0.51696  -0.51176
 Alpha  occ. eigenvalues --   -0.50912  -0.50880  -0.50808  -0.50778  -0.50596
 Alpha  occ. eigenvalues --   -0.50406  -0.50328  -0.50278  -0.50012  -0.49919
 Alpha  occ. eigenvalues --   -0.49500  -0.49358  -0.49184  -0.49088  -0.48963
 Alpha  occ. eigenvalues --   -0.48898  -0.48750  -0.48576  -0.48338  -0.48320
 Alpha  occ. eigenvalues --   -0.48142  -0.47676  -0.47579  -0.47419  -0.47195
 Alpha  occ. eigenvalues --   -0.47187  -0.47134  -0.47119  -0.46745  -0.46506
 Alpha  occ. eigenvalues --   -0.46445  -0.46190  -0.46009  -0.45848  -0.45762
 Alpha  occ. eigenvalues --   -0.45535  -0.45409  -0.45367  -0.45173  -0.44715
 Alpha  occ. eigenvalues --   -0.44611  -0.44542  -0.44312  -0.44209  -0.44068
 Alpha  occ. eigenvalues --   -0.43954  -0.43732  -0.43697  -0.43623  -0.43361
 Alpha  occ. eigenvalues --   -0.43276  -0.43228  -0.42997  -0.42980  -0.42910
 Alpha  occ. eigenvalues --   -0.42757  -0.42591  -0.42425  -0.42335  -0.42323
 Alpha  occ. eigenvalues --   -0.42071  -0.42017  -0.41903  -0.41807  -0.41580
 Alpha  occ. eigenvalues --   -0.41441  -0.40855  -0.40648  -0.40575  -0.40305
 Alpha  occ. eigenvalues --   -0.40110  -0.39963  -0.39754  -0.39172  -0.38946
 Alpha  occ. eigenvalues --   -0.38857  -0.38098  -0.38087  -0.37886  -0.37715
 Alpha  occ. eigenvalues --   -0.37367  -0.36950  -0.36883  -0.36563  -0.36130
 Alpha  occ. eigenvalues --   -0.35890  -0.35698  -0.35291  -0.34605  -0.34286
 Alpha  occ. eigenvalues --   -0.33764  -0.33538  -0.33133  -0.31804  -0.31773
 Alpha  occ. eigenvalues --   -0.31073  -0.30819  -0.30698  -0.30591  -0.30164
 Alpha  occ. eigenvalues --   -0.29987  -0.29811  -0.29325  -0.24708  -0.23805
 Alpha  occ. eigenvalues --   -0.21703  -0.21035
 Alpha virt. eigenvalues --   -0.09071  -0.08623  -0.01979  -0.01605   0.00334
 Alpha virt. eigenvalues --    0.00878   0.01175   0.01992   0.02533   0.02689
 Alpha virt. eigenvalues --    0.04372   0.04532   0.05357   0.05708   0.05782

 Mulliken charges:
               1
     1  Mg  12.000001
     2  C    5.999711
     3  C    6.000220
     4  C    6.000357
     5  C    5.999755
     6  N    6.999976
     7  C    6.000326
     8  C    5.999914
     9  C    6.000086
    10  C    5.999647
    11  C    6.000024
    12  C    5.999954
    13  C    5.999964
    14  H    1.000120
    15  N    7.000141
    16  C    5.999452
    17  C    5.999822
    18  C    5.999808
    19  C    5.999537
    20  C    6.000084
    21  C    5.999856
    22  O    7.999720
    23  C    6.000026
    24  N    6.999966
    25  C    5.999552
    26  C    6.000116
    27  C    5.999932
    28  C    6.000354
    29  C    6.000017
    30  C    5.999948
    31  C    5.999969
    32  N    7.000008
    33  C    6.000457
    34  C    6.000320
    35  C    6.000042
    36  C    6.000409
    37  C    5.999968
    38  C    6.000216
    39  O    8.000403
    40  C    6.000014
    41  C    6.000047
    42  O    8.000014
    43  O    8.000054
    44  C    5.999976
    45  H    0.999817
    46  H    0.999876
    47  H    1.000143
    48  H    0.999988
    49  H    0.999991
    50  H    0.999925
    51  H    0.999829
    52  H    1.000003
    53  H    1.000109
    54  H    0.999969
    55  H    0.999975
    56  H    1.000037
    57  H    0.999822
    58  H    0.999780
    59  H    0.999738
    60  H    0.999937
    61  H    0.999812
    62  H    0.999886
    63  H    0.999998
    64  H    1.000006
    65  H    0.999976
    66  H    0.999975
    67  H    0.999882
    68  H    1.000037
    69  H    1.000095
    70  H    1.000049
    71  H    0.999975
    72  H    1.000052
    73  H    1.000324
    74  H    1.000207
    75  H    1.000217
    76  H    1.000173
    77  H    1.000073
    78  H    0.999994
    79  H    1.000049
    80  Mg  11.998740
    81  C    5.968400
    82  C    6.014521
    83  C    6.022716
    84  C    5.993266
    85  N    6.984865
    86  C    6.039738
    87  C    5.992612
    88  C    6.013230
    89  C    5.965654
    90  C    5.999873
    91  C    5.998868
    92  C    6.002231
    93  H    0.997740
    94  N    7.011109
    95  C    5.956129
    96  C    5.981243
    97  C    5.980842
    98  C    5.965494
    99  C    6.007844
   100  C    5.986394
   101  O    7.974592
   102  C    6.005002
   103  N    7.001533
   104  C    5.968807
   105  C    6.013062
   106  C    5.996109
   107  C    6.027121
   108  C    6.000619
   109  C    5.994536
   110  C    5.991611
   111  N    6.995453
   112  C    6.036781
   113  C    6.037602
   114  C    5.999839
   115  C    6.039054
   116  C    5.996043
   117  C    6.013347
   118  O    8.029502
   119  C    6.004063
   120  C    6.003769
   121  O    8.003585
   122  O    8.001419
   123  C    5.998437
   124  H    0.991053
   125  H    0.995179
   126  H    1.012026
   127  H    0.997707
   128  H    0.994632
   129  H    0.987732
   130  H    1.003653
   131  H    0.997126
   132  H    0.997495
   133  H    0.995914
   134  H    1.007426
   135  H    1.002195
   136  H    0.981381
   137  H    0.978279
   138  H    0.979181
   139  H    0.990985
   140  H    0.985808
   141  H    0.996253
   142  H    0.997939
   143  H    0.998639
   144  H    1.007441
   145  H    0.990465
   146  H    0.998481
   147  H    1.012014
   148  H    0.998588
   149  H    1.010565
   150  H    1.008209
   151  H    0.993214
   152  H    1.024116
   153  H    1.014610
   154  H    1.021827
   155  H    1.006118
   156  H    1.006211
   157  H    1.001986
   158  H    1.002159
 Sum of Mulliken charges = 624.00000

 Dipole moment (field-independent basis, Debye):
    X=             10.0568    Y=              4.5621    Z=             -0.3558  Tot=             11.0489
 Quadrupole moment (field-independent basis, Debye-Ang):
   XX=            425.2272   YY=             -6.9309   ZZ=              1.0957
   XY=             88.6006   XZ=            -11.8969   YZ=              0.4947

 Normal termination of Gaussian 16 at Thu Sep 23 11:11:16 2021.
