 Gaussian 16, Revision A.03,
 Gaussian 16:  ES64L-G16RevA.03 25-Dec-2016

 ----------------------------------------------------------
 #p cam-b3lyp/Def2SVP td=(nstates=5) density=(transition=1)
 ----------------------------------------------------------

 --------------------------------
 TDDFT excited states in gaussian
 --------------------------------
 Symbolic Z-matrix:
 Charge =  0 Multiplicity = 1

                         Standard orientation:
 ---------------------------------------------------------------------
 Center     Atomic      Atomic             Coordinates (Angstroms)
 Number     Number       Type             X           Y           Z
 ---------------------------------------------------------------------
      1         12           0       21.937602   -0.889141    0.007041
      2          6           0       22.711067    2.540438   -0.768807
      3          6           0       18.703805    0.112591    0.446282
      4          6           0       21.286982   -4.019203    1.022361
      5          6           0       25.272572   -1.543919   -0.013039
      6          7           0       20.804667    1.191066   -0.209410
      7          6           0       21.375807    2.375184   -0.575600
      8          6           0       20.275293    3.345332   -0.783016
      9          6           0       18.995891    2.630989   -0.266088
     10          6           0       19.471494    1.194264    0.083338
     11          6           0       18.402144    3.339177    0.993036
     12          6           0       20.126949    3.883615   -2.184087
     13          6           0       19.185783    5.050832   -2.434593
     14          1           0       19.721819    6.182190   -3.207007
     15          7           0       20.234805   -1.834468    0.529697
     16          6           0       18.974938   -1.214258    0.755219
     17          6           0       18.018959   -2.300575    1.040938
     18          6           0       18.790721   -3.433624    1.284832
     19          6           0       20.199079   -3.102736    1.001643
     20          6           0       16.539254   -2.021739    1.202867
     21          6           0       18.349752   -4.857972    1.685708
     22          8           0       19.127008   -5.739422    2.097582
     23          6           0       16.918788   -5.178970    1.535220
     24          7           0       23.116851   -2.573382    0.518918
     25          6           0       22.676580   -3.756989    0.893544
     26          6           0       23.812812   -4.778844    1.172567
     27          6           0       25.015159   -4.029259    0.594479
     28          6           0       24.437033   -2.661948    0.309959
     29          6           0       23.957486   -5.075517    2.703392
     30          6           0       25.678873   -4.635592   -0.621344
     31          6           0       27.217801   -4.636735   -0.639074
     32          7           0       23.614219    0.229237   -0.409922
     33          6           0       24.921886   -0.203821   -0.382884
     34          6           0       25.861951    0.879562   -0.800998
     35          6           0       24.968339    1.925099   -0.917569
     36          6           0       23.655634    1.530492   -0.632289
     37          6           0       27.313911    0.775754   -1.141635
     38          6           0       24.916232    3.343168   -1.241356
     39          8           0       25.843330    4.065013   -1.590834
     40          6           0       23.448003    3.821012   -1.165083
     41          6           0       23.443752    4.999729   -0.336751
     42          8           0       23.538609    5.043432    0.913535
     43          8           0       23.147602    6.099394   -1.083408
     44          6           0       22.825942    7.334839   -0.403031
     45          1           0       17.652120    0.399360    0.506812
     46          1           0       21.106452   -4.981256    1.506105
     47          1           0       26.306202   -1.793193    0.235042
     48          1           0       20.540253    4.155205   -0.104572
     49          1           0       18.205597    2.598862   -1.016291
     50          1           0       17.355628    3.632763    1.080839
     51          1           0       18.982319    4.258046    1.076257
     52          1           0       18.643522    2.866959    1.945700
     53          1           0       19.715120    3.129250   -2.854696
     54          1           0       21.089169    3.986779   -2.684910
     55          1           0       18.846792    5.480519   -1.493152
     56          1           0       18.450219    4.674926   -3.145275
     57          1           0       16.087096   -2.494510    2.074480
     58          1           0       15.937836   -2.301467    0.338147
     59          1           0       16.286276   -0.976551    1.382565
     60          1           0       16.608712   -4.903192    0.527201
     61          1           0       16.457308   -4.522460    2.272051
     62          1           0       16.840069   -6.263422    1.602403
     63          1           0       23.562568   -5.671720    0.598616
     64          1           0       25.837011   -3.837225    1.283658
     65          1           0       24.893290   -4.684094    3.101241
     66          1           0       23.989071   -6.147629    2.897579
     67          1           0       23.115078   -4.568707    3.174373
     68          1           0       25.332469   -4.172619   -1.544789
     69          1           0       25.167558   -5.589203   -0.748751
     70          1           0       27.521921   -5.486989   -1.248774
     71          1           0       27.657303   -4.585826    0.357570
     72          1           0       27.419683   -3.678732   -1.117750
     73          1           0       27.521845    0.737197   -2.211086
     74          1           0       27.690837   -0.046955   -0.534704
     75          1           0       27.853722    1.587402   -0.652271
     76          1           0       23.238269    4.203399   -2.163989
     77          1           0       22.738996    7.248190    0.680363
     78          1           0       21.948674    7.802210   -0.849483
     79          1           0       23.591590    8.096052   -0.555093
     80         12           0      -22.811080    0.187496   -0.128056
     81          6           0      -19.326998    0.088393   -0.158151
     82          6           0      -22.853032   -1.893407   -2.876267
     83          6           0      -26.077414    0.337353    0.149263
     84          6           0      -22.630857    1.436919    3.290862
     85          7           0      -21.159990   -0.752259   -1.427051
     86          6           0      -19.808055   -0.685075   -1.238947
     87          6           0      -19.084254   -1.410694   -2.317061
     88          6           0      -20.232911   -2.085576   -3.167864
     89          6           0      -21.549134   -1.559865   -2.472880
     90          6           0      -20.108997   -1.884113   -4.699172
     91          6           0      -18.080241   -2.457045   -1.775270
     92          6           0      -16.699983   -2.256619   -2.398627
     93          1           0      -16.027704   -3.492129   -3.069868
     94          7           0      -24.271953   -0.643329   -1.243411
     95          6           0      -24.120707   -1.442992   -2.375307
     96          6           0      -25.472674   -1.686404   -2.861488
     97          6           0      -26.454201   -1.005127   -2.002075
     98          6           0      -25.608862   -0.312156   -0.979105
     99          6           0      -25.763966   -2.620874   -3.926268
    100          6           0      -27.905194   -1.208812   -2.148283
    101          8           0      -28.415617   -1.886433   -3.015594
    102          6           0      -28.917462   -0.687635   -1.188828
    103          7           0      -24.088565    0.741754    1.460903
    104          6           0      -25.413604    0.975519    1.193167
    105          6           0      -26.111744    1.495586    2.432018
    106          6           0      -25.098872    1.356865    3.506293
    107          6           0      -23.881487    1.103431    2.765130
    108          6           0      -26.780940    2.922512    2.277491
    109          6           0      -25.335756    0.106081    4.420531
    110          6           0      -24.883242    0.210393    5.803335
    111          7           0      -21.309535    0.710999    1.316198
    112          6           0      -21.372606    1.255189    2.605686
    113          6           0      -20.069198    1.700305    2.987618
    114          6           0      -19.228277    1.240517    1.981052
    115          6           0      -20.034768    0.593829    0.977796
    116          6           0      -19.778717    2.431019    4.246377
    117          6           0      -17.881356    1.132020    1.582770
    118          8           0      -16.873120    1.521228    2.128669
    119          6           0      -17.886471    0.453132    0.194933
    120          6           0      -17.209626    1.331977   -0.772006
    121          8           0      -17.744935    2.253237   -1.411323
    122          8           0      -15.855820    1.086897   -0.747133
    123          6           0      -14.971538    1.757581   -1.686280
    124          1           0      -22.789232   -2.500625   -3.781015
    125          1           0      -27.139170    0.413561    0.396705
    126          1           0      -22.626208    1.835940    4.307356
    127          1           0      -18.745855   -0.620803   -2.988218
    128          1           0      -20.251547   -3.172180   -3.089749
    129          1           0      -19.060320   -1.606182   -4.811416
    130          1           0      -20.819125   -1.198190   -5.161167
    131          1           0      -20.260505   -2.834411   -5.210528
    132          1           0      -18.316055   -3.484262   -2.052724
    133          1           0      -18.070725   -2.335358   -0.692278
    134          1           0      -16.123901   -2.079824   -1.490467
    135          1           0      -16.754831   -1.367311   -3.024765
    136          1           0      -24.816784   -3.009308   -4.301132
    137          1           0      -26.234587   -2.200833   -4.815696
    138          1           0      -26.335016   -3.458578   -3.524410
    139          1           0      -28.560417    0.338754   -1.104093
    140          1           0      -28.810433   -1.222948   -0.245016
    141          1           0      -29.921985   -0.731508   -1.610228
    142          1           0      -26.940925    0.799624    2.553848
    143          1           0      -24.858548    2.240204    4.098038
    144          1           0      -26.788720    3.229365    1.231437
    145          1           0      -26.404115    3.683913    2.961299
    146          1           0      -27.858076    2.910489    2.441700
    147          1           0      -24.883408   -0.768701    3.953210
    148          1           0      -26.398352   -0.128192    4.482663
    149          1           0      -25.678640    0.663287    6.396218
    150          1           0      -23.946004    0.760764    5.892047
    151          1           0      -24.860304   -0.781069    6.256787
    152          1           0      -20.570176    3.142902    4.480328
    153          1           0      -18.808454    2.927859    4.256191
    154          1           0      -19.865865    1.660972    5.012942
    155          1           0      -17.243696   -0.426166    0.150728
    156          1           0      -14.760475    2.818403   -1.550953
    157          1           0      -15.321577    1.582152   -2.703329
    158          1           0      -14.004067    1.286865   -1.515541
 ---------------------------------------------------------------------

 SCF Done:  E(RCAM-B3LYP) =  -4069.79186227     A.U. after   18 cycles

 Excitation energies and oscillator strengths:

 Excited State   1:      Singlet-A      1.6751 eV  740.16 nm  f=0.3720  <S**2>=0.000
     309 -> 315       -0.18827
     311 -> 313        0.68339
     309 <- 315       -0.11091
 This state for optimization and/or second-order correction.
 Total Energy, E(TD-HF/TD-DFT) =  -4069.73030329
 Copying the excited state density for this state as the 1-particle RhoCI density.

 Excited State   2:      Singlet-A      1.7540 eV  706.87 nm  f=0.3769  <S**2>=0.000
     310 -> 316        0.19892
     312 -> 314        0.68125
     310 <- 316        0.11271

 Excited State   3:      Singlet-A      2.1859 eV  567.19 nm  f=0.1026  <S**2>=0.000
     309 -> 313        0.63557
     311 -> 315        0.29758

 Excited State   4:      Singlet-A      2.3188 eV  534.70 nm  f=0.0718  <S**2>=0.000
     310 -> 314        0.61706
     312 -> 316       -0.33877

 Excited State   5:      Singlet-A      2.9779 eV  416.34 nm  f=0.0000  <S**2>=0.000
     312 -> 313        0.70710

 The electronic state is 1-A.
 Alpha  occ. eigenvalues --  -46.88982 -46.88507 -19.25168 -19.24916 -19.19409
 Alpha  occ. eigenvalues --  -19.19036 -19.18842 -19.18614 -19.18398 -19.17417
 Alpha  occ. eigenvalues --  -14.42365 -14.41969 -14.41913 -14.41108 -14.40306
 Alpha  occ. eigenvalues --  -14.39771 -14.39605 -14.39208 -10.39145 -10.39135
 Alpha  occ. eigenvalues --  -10.35254 -10.34457 -10.34251 -10.33740 -10.31727
 Alpha  occ. eigenvalues --  -10.31660 -10.31612 -10.31608 -10.31222 -10.31102
 Alpha  occ. eigenvalues --  -10.31089 -10.30756 -10.30613 -10.30566 -10.30511
 Alpha  occ. eigenvalues --  -10.30481 -10.30411 -10.30399 -10.30088 -10.29904
 Alpha  occ. eigenvalues --  -10.29132 -10.29041 -10.29032 -10.28605 -10.28594
 Alpha  occ. eigenvalues --  -10.28585 -10.28414 -10.28407 -10.28359 -10.28255
 Alpha  occ. eigenvalues --  -10.28163 -10.28124 -10.28018 -10.28008 -10.27998
 Alpha  occ. eigenvalues --  -10.27958 -10.27853 -10.27609 -10.27542 -10.27399
 Alpha  occ. eigenvalues --  -10.27332 -10.27331 -10.27247 -10.27228 -10.27219
 Alpha  occ. eigenvalues --  -10.27179 -10.27086 -10.26972 -10.26924 -10.26830
 Alpha  occ. eigenvalues --  -10.26509 -10.26476 -10.26289 -10.26262 -10.26222
 Alpha  occ. eigenvalues --  -10.26100 -10.25991 -10.25942 -10.25927 -10.25771
 Alpha  occ. eigenvalues --  -10.25699 -10.25586 -10.25221 -10.24902 -10.24762
 Alpha  occ. eigenvalues --  -10.24611  -3.17471  -3.17112  -1.92374  -1.92021
 Alpha  occ. eigenvalues --   -1.91935  -1.91761  -1.91559  -1.91425  -1.16116
 Alpha  occ. eigenvalues --   -1.15495  -1.10098  -1.09879  -1.09480  -1.09068
 Alpha  occ. eigenvalues --   -1.06754  -1.05962  -1.05773  -1.05023  -1.04585
 Alpha  occ. eigenvalues --   -1.03841  -1.03081  -1.03027  -1.02187  -1.01611
 Alpha  occ. eigenvalues --   -0.93169  -0.92693  -0.90801  -0.90099  -0.89635
 Alpha  occ. eigenvalues --   -0.89321  -0.89088  -0.88482  -0.87748  -0.87595
 Alpha  occ. eigenvalues --   -0.87281  -0.87086  -0.86630  -0.86334  -0.85302
 Alpha  occ. eigenvalues --   -0.84679  -0.84582  -0.84072  -0.83498  -0.82939
 Alpha  occ. eigenvalues --   -0.82611  -0.82611  -0.81450  -0.81248  -0.80884
 Alpha  occ. eigenvalues --   -0.80863  -0.78707  -0.78673  -0.78016  -0.77725
 Alpha  occ. eigenvalues --   -0.77447  -0.77159  -0.76579  -0.76349  -0.75421
 Alpha  occ. eigenvalues --   -0.75251  -0.73448  -0.72995  -0.72073  -0.71959
 Alpha  occ. eigenvalues --   -0.69551  -0.69376  -0.69267  -0.69145  -0.68089
 Alpha  occ. eigenvalues --   -0.68034  -0.67556  -0.66536  -0.66504  -0.66427
 Alpha  occ. eigenvalues --   -0.65971  -0.65415  -0.65313  -0.65113  -0.64723
 Alpha  occ. eigenvalues --   -0.64564  -0.62547  -0.62076  -0.60778  -0.60414
 Alpha  occ. eigenvalues --   -0.59909  -0.59537  -0.59502  -0.59494  -0.59000
 Alpha  occ. eigenvalues --   -0.58781  -0.58399  -0.57955  -0.57616  -0.57453
 Alpha  occ. eigenvalues --   -0.56472  -0.56443  -0.55939  -0.55755  -0.55522
 Alpha  occ. eigenvalues --   -0.55518  -0.55182  -0.54476  -0.54443  -0.54285
 Alpha  occ. eigenvalues --   -0.54034  -0.53897  -0.53492  -0.53233  -0.53173
 Alpha  occ. eigenvalues --   -0.52971  -0.52868  -0.52589  -0.52328  -0.52134
 Alpha  occ. eigenvalues --   -0.51977  -0.51886  -0.51781  -0.51719  -0.51693
 Alpha  occ. eigenvalues --   -0.51324  -0.51269  -0.51214  -0.50794  -0.50490
 Alpha  occ. eigenvalues --   -0.50453  -0.50298  -0.50047  -0.49935  -0.49695
 Alpha  occ. eigenvalues --   -0.49656  -0.49425  -0.49160  -0.49082  -0.48888
 Alpha  occ. eigenvalues --   -0.48645  -0.48598  -0.48550  -0.48386  -0.48347
 Alpha  occ. eigenvalues --   -0.47963  -0.47805  -0.47657  -0.47368  -0.47237
 Alpha  occ. eigenvalues --   -0.47172  -0.47038  -0.47009  -0.46829  -0.46639
 Alpha  occ. eigenvalues --   -0.46544  -0.46353  -0.46246  -0.46234  -0.46047
 Alpha  occ. eigenvalues --   -0.45778  -0.45576  -0.45345  -0.45144  -0.45058
 Alpha  occ. eigenvalues --   -0.44972  -0.44627  -0.44531  -0.44519  -0.44084
 Alpha  occ. eigenvalues --   -0.43965  -0.43864  -0.43723  -0.43712  -0.43469
 Alpha  occ. eigenvalues --   -0.43422  -0.43270  -0.43155  -0.43100  -0.43003
 Alpha  occ. eigenvalues --   -0.42605  -0.42503  -0.42438  -0.42123  -0.42046
 Alpha  occ. eigenvalues --   -0.41756  -0.41700  -0.41685  -0.41628  -0.41568
 Alpha  occ. eigenvalues --   -0.41370  -0.41239  -0.41207  -0.41072  -0.40873
 Alpha  occ. eigenvalues --   -0.40711  -0.40299  -0.40125  -0.39939  -0.39248
 Alpha  occ. eigenvalues --   -0.38819  -0.38528  -0.37916  -0.37776  -0.37372
 Alpha  occ. eigenvalues --   -0.37045  -0.37012  -0.36425  -0.36364  -0.36070
 Alpha  occ. eigenvalues --   -0.36007  -0.35646  -0.34386  -0.33817  -0.33756
 Alpha  occ. eigenvalues --   -0.33537  -0.33067  -0.33012  -0.31570  -0.31421
 Alpha  occ. eigenvalues --   -0.31050  -0.30719  -0.30593  -0.30545  -0.30266
 Alpha  occ. eigenvalues --   -0.29919  -0.29693  -0.29478  -0.24347  -0.24078
 Alpha  occ. eigenvalues --   -0.21613  -0.20916
 Alpha virt. eigenvalues --   -0.09201  -0.08153  -0.02550  -0.01796   0.00211
 Alpha virt. eigenvalues --    0.00744   0.02310   0.02516   0.02636   0.03015
 Alpha virt. eigenvalues --    0.04041   0.04554   0.04955   0.05417   0.05518

 Mulliken charges:
               1
     1  Mg  12.000005
     2  C    6.000199
     3  C    5.999943
     4  C    5.999808
     5  C    6.000007
     6  N    7.000092
     7  C    5.999812
     8  C    6.000038
     9  C    5.999941
    10  C    6.000153
    11  C    5.999920
    12  C    6.000028
    13  C    5.999988
    14  H    0.999987
    15  N    6.999942
    16  C    6.000324
    17  C    6.000160
    18  C    6.000086
    19  C    6.000276
    20  C    5.999869
    21  C    6.000105
    22  O    8.000167
    23  C    5.999989
    24  N    6.999944
    25  C    6.000186
    26  C    5.999973
    27  C    6.000030
    28  C    5.999797
    29  C    6.000002
    30  C    6.000099
    31  C    5.999996
    32  N    6.999999
    33  C    5.999756
    34  C    5.999720
    35  C    6.000040
    36  C    5.999733
    37  C    6.000083
    38  C    5.999821
    39  O    7.999780
    40  C    6.000020
    41  C    5.999986
    42  O    7.999966
    43  O    7.999987
    44  C    6.000017
    45  H    1.000164
    46  H    1.000008
    47  H    0.999870
    48  H    1.000026
    49  H    1.000065
    50  H    1.000121
    51  H    1.000095
    52  H    1.000013
    53  H    0.999947
    54  H    1.000019
    55  H    1.000014
    56  H    1.000003
    57  H    1.000199
    58  H    1.000186
    59  H    1.000180
    60  H    1.000057
    61  H    1.000089
    62  H    1.000097
    63  H    0.999961
    64  H    0.999969
    65  H    1.000042
    66  H    0.999983
    67  H    0.999983
    68  H    0.999973
    69  H    0.999880
    70  H    0.999913
    71  H    0.999957
    72  H    1.000039
    73  H    0.999807
    74  H    0.999860
    75  H    0.999843
    76  H    0.999940
    77  H    0.999989
    78  H    0.999989
    79  H    0.999947
    80  Mg  12.001310
    81  C    6.017975
    82  C    5.979205
    83  C    5.975456
    84  C    6.023846
    85  N    7.004596
    86  C    5.965956
    87  C    6.014202
    88  C    5.990977
    89  C    6.029894
    90  C    5.996885
    91  C    6.001077
    92  C    6.001154
    93  H    0.991885
    94  N    6.985795
    95  C    6.050840
    96  C    6.020502
    97  C    6.012759
    98  C    6.044720
    99  C    5.987885
   100  C    6.006759
   101  O    8.018372
   102  C    5.998806
   103  N    7.007548
   104  C    6.034742
   105  C    5.992085
   106  C    6.007735
   107  C    5.961018
   108  C    5.998813
   109  C    6.008233
   110  C    6.000836
   111  N    7.005894
   112  C    5.951333
   113  C    5.975986
   114  C    5.994907
   115  C    5.963720
   116  C    6.001997
   117  C    5.982600
   118  O    7.967168
   119  C    6.002680
   120  C    5.995046
   121  O    7.991940
   122  O    8.000451
   123  C    6.003750
   124  H    1.009810
   125  H    1.011088
   126  H    0.991067
   127  H    0.995947
   128  H    1.000950
   129  H    1.012393
   130  H    0.997259
   131  H    0.999911
   132  H    0.991876
   133  H    1.007404
   134  H    1.004240
   135  H    0.999343
   136  H    1.020788
   137  H    1.023220
   138  H    1.021247
   139  H    1.005884
   140  H    1.010701
   141  H    1.012485
   142  H    0.999659
   143  H    1.002221
   144  H    0.997458
   145  H    1.013026
   146  H    1.002114
   147  H    0.994329
   148  H    0.985151
   149  H    0.994534
   150  H    1.006218
   151  H    0.996197
   152  H    0.980368
   153  H    0.985614
   154  H    0.980941
   155  H    0.990547
   156  H    0.997053
   157  H    0.993634
   158  H    0.995981
 Sum of Mulliken charges = 624.00000

 Dipole moment (field-independent basis, Debye):
    X=             -8.2438    Y=             -3.2360    Z=             -6.2189  Tot=             10.8216
 Quadrupole moment (field-independent basis, Debye-Ang):
   XX=            365.2819   YY=              0.9034   ZZ=             -2.0489
   XY=             70.7985   XZ=            144.4961   YZ=              1.2206

 Normal termination of Gaussian 16 at Thu Sep 23 01:00:48 2021.
