 Gaussian 16, Revision A.03,
 Gaussian 16:  ES64L-G16RevA.03 25-Dec-2016

 ----------------------------------------------------------
 #p cam-b3lyp/Def2SVP td=(nstates=5) density=(transition=1)
 ----------------------------------------------------------

 --------------------------------
 TDDFT excited states in gaussian
 --------------------------------
 Symbolic Z-matrix:
 Charge =  0 Multiplicity = 1

                         Standard orientation:
 ---------------------------------------------------------------------
 Center     Atomic      Atomic             Coordinates (Angstroms)
 Number     Number       Type             X           Y           Z
 ---------------------------------------------------------------------
      1         12           0      -30.903729   -0.053891   -0.143311
      2          6           0      -27.493167   -0.353543   -0.732731
      3          6           0      -30.424430   -2.438738    2.482394
      4          6           0      -33.990449    0.482948    0.851295
      5          6           0      -30.947452    2.751109   -2.261751
      6          7           0      -29.133580   -1.146787    0.824915
      7          6           0      -27.857036   -1.148407    0.308960
      8          6           0      -26.948799   -2.046453    1.153287
      9          6           0      -27.986319   -2.875360    1.959944
     10          6           0      -29.267531   -2.100982    1.795203
     11          6           0      -28.213356   -4.387783    1.566491
     12          6           0      -25.974038   -1.254970    2.040646
     13          6           0      -24.956008   -2.061195    2.752521
     14          1           0      -23.650651   -1.314622    3.225561
     15          7           0      -32.080313   -0.855814    1.470892
     16          6           0      -31.713500   -1.833226    2.409089
     17          6           0      -32.844556   -2.080139    3.259294
     18          6           0      -33.864453   -1.129842    2.883981
     19          6           0      -33.329022   -0.454535    1.651645
     20          6           0      -32.805285   -3.078506    4.449091
     21          6           0      -35.200302   -1.013590    3.624917
     22          8           0      -35.535692   -1.816611    4.479716
     23          6           0      -36.114147    0.101712    3.286573
     24          7           0      -32.327596    1.284253   -0.814005
     25          6           0      -33.545011    1.267510   -0.260746
     26          6           0      -34.396776    2.483573   -0.807959
     27          6           0      -33.439908    3.280380   -1.775795
     28          6           0      -32.087336    2.401602   -1.575200
     29          6           0      -35.793305    2.169562   -1.406086
     30          6           0      -33.260663    4.729891   -1.276007
     31          6           0      -32.986568    5.768837   -2.370154
     32          7           0      -29.545284    1.046246   -1.306869
     33          6           0      -29.715692    2.065364   -2.201569
     34          6           0      -28.450504    2.271246   -2.916682
     35          6           0      -27.612327    1.299571   -2.439517
     36          6           0      -28.263588    0.623373   -1.432908
     37          6           0      -28.209865    3.266441   -4.056433
     38          6           0      -26.280140    0.782069   -2.529532
     39          8           0      -25.348493    1.064794   -3.241908
     40          6           0      -26.151912   -0.326213   -1.431665
     41          6           0      -25.922571   -1.622224   -2.127514
     42          8           0      -26.549476   -2.074286   -3.045164
     43          8           0      -24.917992   -2.325718   -1.440605
     44          6           0      -24.629413   -3.640308   -1.939122
     45          1           0      -30.198155   -3.237795    3.190798
     46          1           0      -35.028369    0.756607    1.054292
     47          1           0      -30.943133    3.573016   -2.980886
     48          1           0      -26.459365   -2.717887    0.449089
     49          1           0      -27.843500   -2.895854    3.039787
     50          1           0      -28.109974   -4.921826    2.510821
     51          1           0      -27.761185   -4.747306    0.641772
     52          1           0      -29.272193   -4.484565    1.326947
     53          1           0      -26.424515   -0.729366    2.883053
     54          1           0      -25.474537   -0.488487    1.448002
     55          1           0      -24.685928   -2.880058    2.085722
     56          1           0      -25.424212   -2.537251    3.613889
     57          1           0      -32.744821   -2.334327    5.243861
     58          1           0      -31.885061   -3.652118    4.561652
     59          1           0      -33.596724   -3.798801    4.657032
     60          1           0      -35.482851    0.989830    3.314852
     61          1           0      -36.851680    0.195026    4.083880
     62          1           0      -36.477001   -0.162654    2.293017
     63          1           0      -34.616482    3.097382    0.066036
     64          1           0      -33.726872    3.267075   -2.826778
     65          1           0      -36.547193    2.502091   -0.691812
     66          1           0      -35.829655    1.111566   -1.663622
     67          1           0      -35.966979    2.794842   -2.281826
     68          1           0      -32.430444    4.679509   -0.571981
     69          1           0      -34.078829    5.089645   -0.651761
     70          1           0      -33.796810    6.485484   -2.231578
     71          1           0      -32.920433    5.359863   -3.378432
     72          1           0      -32.059228    6.302194   -2.160825
     73          1           0      -27.282712    3.837014   -4.013537
     74          1           0      -29.094194    3.900349   -3.987249
     75          1           0      -28.395656    2.714832   -4.978147
     76          1           0      -25.296189   -0.047856   -0.816440
     77          1           0      -23.646386   -3.581623   -2.406455
     78          1           0      -25.320938   -4.112447   -2.637375
     79          1           0      -24.602393   -4.311706   -1.081298
     80         12           0       29.973168    0.790915    0.282779
     81          6           0       30.493378   -2.545989   -1.022145
     82          6           0       28.702271    1.493014   -2.603267
     83          6           0       29.841243    3.827219    1.557925
     84          6           0       32.138171    0.020599    3.098631
     85          7           0       29.531861   -0.481935   -1.578104
     86          6           0       29.811978   -1.785945   -1.930159
     87          6           0       29.362128   -2.053542   -3.321165
     88          6           0       29.251531   -0.638490   -3.944881
     89          6           0       29.197935    0.204455   -2.648900
     90          6           0       30.458857   -0.229893   -4.817066
     91          6           0       27.950441   -2.715032   -3.298741
     92          6           0       27.730449   -3.934609   -4.275389
     93          1           0       26.550542   -4.953413   -4.014841
     94          7           0       29.267571    2.489910   -0.482430
     95          6           0       28.674498    2.590050   -1.642139
     96          6           0       28.159002    3.939935   -1.771591
     97          6           0       28.399400    4.529020   -0.507917
     98          6           0       29.220707    3.609351    0.231622
     99          6           0       27.372356    4.370194   -3.023019
    100          6           0       27.941712    5.887910   -0.056316
    101          8           0       28.235123    6.290775    1.029489
    102          6           0       27.033967    6.681819   -0.938128
    103          7           0       31.151612    1.840045    1.998971
    104          6           0       30.705979    3.053399    2.318059
    105          6           0       31.154816    3.475889    3.666446
    106          6           0       32.074637    2.275136    4.054423
    107          6           0       31.804017    1.256746    2.978612
    108          6           0       31.790734    4.904663    3.816306
    109          6           0       31.767886    1.772792    5.519159
    110          6           0       32.764492    2.093003    6.667933
    111          7           0       31.065612   -0.794287    0.946778
    112          6           0       31.828392   -1.033969    2.111582
    113          6           0       32.298907   -2.434564    2.110550
    114          6           0       31.787613   -3.006935    0.953482
    115          6           0       31.104755   -2.024109    0.257165
    116          6           0       33.293898   -3.042325    3.128737
    117          6           0       31.754743   -4.303340    0.203002
    118          8           0       32.183275   -5.411108    0.425206
    119          6           0       31.048139   -4.007929   -1.213396
    120          6           0       30.118346   -5.019625   -1.558890
    121          8           0       28.917049   -4.936136   -1.267418
    122          8           0       30.624487   -6.141336   -2.208187
    123          6           0       29.669320   -7.143833   -2.772207
    124          1           0       28.212356    1.850165   -3.510811
    125          1           0       29.743453    4.815606    2.011567
    126          1           0       32.782305   -0.229448    3.943039
    127          1           0       30.145401   -2.576675   -3.870346
    128          1           0       28.385753   -0.453377   -4.580400
    129          1           0       30.139830   -0.027000   -5.839827
    130          1           0       31.157053   -1.066272   -4.801886
    131          1           0       31.016758    0.630880   -4.447327
    132          1           0       27.267522   -1.916143   -3.588284
    133          1           0       27.761514   -2.973511   -2.257019
    134          1           0       28.672867   -4.477885   -4.339146
    135          1           0       27.551871   -3.433627   -5.227568
    136          1           0       26.343093    4.577292   -2.727191
    137          1           0       27.401098    3.680359   -3.865768
    138          1           0       27.706600    5.352335   -3.356129
    139          1           0       26.079085    6.185269   -1.108577
    140          1           0       27.356583    6.830981   -1.968491
    141          1           0       26.788258    7.617020   -0.434391
    142          1           0       30.284226    3.457772    4.322086
    143          1           0       33.116914    2.558797    3.906893
    144          1           0       31.674426    5.391641    2.848656
    145          1           0       32.806774    4.962317    4.208331
    146          1           0       31.225774    5.452776    4.570480
    147          1           0       31.704048    0.684346    5.511820
    148          1           0       30.718193    2.019717    5.678091
    149          1           0       32.219428    2.449977    7.541608
    150          1           0       33.486589    2.834572    6.325817
    151          1           0       33.298399    1.193089    6.975569
    152          1           0       33.125326   -2.553135    4.087689
    153          1           0       34.309173   -2.767534    2.841775
    154          1           0       33.177780   -4.122397    3.221471
    155          1           0       31.828774   -3.965514   -1.972374
    156          1           0       29.052710   -6.700831   -3.555559
    157          1           0       29.176878   -7.714074   -1.985449
    158          1           0       30.261558   -7.817947   -3.390888
 ---------------------------------------------------------------------

 SCF Done:  E(RCAM-B3LYP) =  -4069.78587119     A.U. after   18 cycles

 Excitation energies and oscillator strengths:

 Excited State   1:      Singlet-A      1.7382 eV  713.30 nm  f=0.3785  <S**2>=0.000
     310 -> 316        0.16387
     312 -> 313        0.68892
     310 <- 316        0.10278
 This state for optimization and/or second-order correction.
 Total Energy, E(TD-HF/TD-DFT) =  -4069.72199455
 Copying the excited state density for this state as the 1-particle RhoCI density.

 Excited State   2:      Singlet-A      1.7655 eV  702.24 nm  f=0.3971  <S**2>=0.000
     309 -> 315       -0.17238
     311 -> 314        0.68747
     309 <- 315       -0.10344

 Excited State   3:      Singlet-A      2.1720 eV  570.83 nm  f=0.2263  <S**2>=0.000
     310 -> 313        0.67444
     312 -> 316       -0.20201

 Excited State   4:      Singlet-A      2.2943 eV  540.41 nm  f=0.1178  <S**2>=0.000
     309 -> 314        0.63734
     311 -> 315        0.29069

 Excited State   5:      Singlet-A      3.2709 eV  379.06 nm  f=0.0000  <S**2>=0.000
     312 -> 314        0.70711

 The electronic state is 1-A.
 Alpha  occ. eigenvalues --  -46.89672 -46.89443 -19.24956 -19.23973 -19.20508
 Alpha  occ. eigenvalues --  -19.19644 -19.19261 -19.18702 -19.18539 -19.18532
 Alpha  occ. eigenvalues --  -14.42668 -14.42356 -14.41763 -14.40238 -14.40174
 Alpha  occ. eigenvalues --  -14.39825 -14.39775 -14.39106 -10.39518 -10.38519
 Alpha  occ. eigenvalues --  -10.35959 -10.35133 -10.34870 -10.34165 -10.32372
 Alpha  occ. eigenvalues --  -10.31621 -10.31605 -10.31236 -10.31188 -10.31142
 Alpha  occ. eigenvalues --  -10.31130 -10.31088 -10.31025 -10.30599 -10.30573
 Alpha  occ. eigenvalues --  -10.30041 -10.30027 -10.29841 -10.29553 -10.29374
 Alpha  occ. eigenvalues --  -10.29318 -10.29244 -10.28946 -10.28713 -10.28599
 Alpha  occ. eigenvalues --  -10.28359 -10.28260 -10.28248 -10.28241 -10.28198
 Alpha  occ. eigenvalues --  -10.28189 -10.28180 -10.28109 -10.28005 -10.27915
 Alpha  occ. eigenvalues --  -10.27909 -10.27799 -10.27757 -10.27755 -10.27536
 Alpha  occ. eigenvalues --  -10.27423 -10.27266 -10.27165 -10.27142 -10.26932
 Alpha  occ. eigenvalues --  -10.26810 -10.26807 -10.26547 -10.26526 -10.26509
 Alpha  occ. eigenvalues --  -10.26416 -10.26357 -10.26294 -10.26284 -10.26252
 Alpha  occ. eigenvalues --  -10.26086 -10.26071 -10.26050 -10.25924 -10.25731
 Alpha  occ. eigenvalues --  -10.25711 -10.25637 -10.25536 -10.25444 -10.25104
 Alpha  occ. eigenvalues --  -10.23995  -3.18093  -3.17966  -1.93000  -1.92853
 Alpha  occ. eigenvalues --   -1.92551  -1.92429  -1.92381  -1.92266  -1.16631
 Alpha  occ. eigenvalues --   -1.14186  -1.12170  -1.10852  -1.10349  -1.10128
 Alpha  occ. eigenvalues --   -1.08841  -1.06412  -1.05658  -1.04958  -1.04885
 Alpha  occ. eigenvalues --   -1.04605  -1.03801  -1.03733  -1.02835  -1.00988
 Alpha  occ. eigenvalues --   -0.93277  -0.91259  -0.89427  -0.89260  -0.89245
 Alpha  occ. eigenvalues --   -0.88872  -0.88849  -0.88105  -0.87994  -0.87799
 Alpha  occ. eigenvalues --   -0.87639  -0.86471  -0.85960  -0.85225  -0.85196
 Alpha  occ. eigenvalues --   -0.84345  -0.84060  -0.83175  -0.83058  -0.82598
 Alpha  occ. eigenvalues --   -0.82142  -0.82018  -0.81312  -0.80957  -0.80864
 Alpha  occ. eigenvalues --   -0.80405  -0.78770  -0.77772  -0.77364  -0.77126
 Alpha  occ. eigenvalues --   -0.77124  -0.76701  -0.76223  -0.76218  -0.75538
 Alpha  occ. eigenvalues --   -0.75408  -0.73259  -0.72777  -0.72058  -0.71103
 Alpha  occ. eigenvalues --   -0.69348  -0.69218  -0.69084  -0.68785  -0.67937
 Alpha  occ. eigenvalues --   -0.67801  -0.67340  -0.66778  -0.66112  -0.66110
 Alpha  occ. eigenvalues --   -0.65624  -0.65592  -0.64992  -0.64975  -0.64627
 Alpha  occ. eigenvalues --   -0.64224  -0.62710  -0.61439  -0.61044  -0.60252
 Alpha  occ. eigenvalues --   -0.60107  -0.59910  -0.59325  -0.59064  -0.58868
 Alpha  occ. eigenvalues --   -0.58471  -0.58054  -0.57585  -0.57570  -0.57181
 Alpha  occ. eigenvalues --   -0.56551  -0.56517  -0.55915  -0.55746  -0.55508
 Alpha  occ. eigenvalues --   -0.55489  -0.54942  -0.54401  -0.54039  -0.54010
 Alpha  occ. eigenvalues --   -0.53874  -0.53585  -0.53392  -0.53331  -0.53162
 Alpha  occ. eigenvalues --   -0.53035  -0.52658  -0.52640  -0.52431  -0.51984
 Alpha  occ. eigenvalues --   -0.51919  -0.51852  -0.51736  -0.51669  -0.51316
 Alpha  occ. eigenvalues --   -0.50853  -0.50749  -0.50550  -0.50379  -0.50299
 Alpha  occ. eigenvalues --   -0.50240  -0.50088  -0.49889  -0.49856  -0.49704
 Alpha  occ. eigenvalues --   -0.49559  -0.49330  -0.49276  -0.49060  -0.48871
 Alpha  occ. eigenvalues --   -0.48836  -0.48741  -0.48310  -0.48309  -0.48114
 Alpha  occ. eigenvalues --   -0.47941  -0.47777  -0.47556  -0.47552  -0.47442
 Alpha  occ. eigenvalues --   -0.47392  -0.47167  -0.47107  -0.46478  -0.46432
 Alpha  occ. eigenvalues --   -0.46415  -0.46234  -0.46161  -0.45820  -0.45786
 Alpha  occ. eigenvalues --   -0.45531  -0.45404  -0.45339  -0.45145  -0.44921
 Alpha  occ. eigenvalues --   -0.44781  -0.44687  -0.44552  -0.44465  -0.44180
 Alpha  occ. eigenvalues --   -0.44018  -0.43926  -0.43706  -0.43440  -0.43334
 Alpha  occ. eigenvalues --   -0.43331  -0.43249  -0.42992  -0.42969  -0.42749
 Alpha  occ. eigenvalues --   -0.42728  -0.42665  -0.42395  -0.42307  -0.42217
 Alpha  occ. eigenvalues --   -0.42045  -0.41876  -0.41875  -0.41553  -0.41301
 Alpha  occ. eigenvalues --   -0.41043  -0.40633  -0.40622  -0.40367  -0.40276
 Alpha  occ. eigenvalues --   -0.40195  -0.39931  -0.39894  -0.39854  -0.39727
 Alpha  occ. eigenvalues --   -0.38830  -0.38326  -0.38059  -0.37687  -0.37664
 Alpha  occ. eigenvalues --   -0.37038  -0.36919  -0.36532  -0.36522  -0.36102
 Alpha  occ. eigenvalues --   -0.36061  -0.35729  -0.35261  -0.34258  -0.33736
 Alpha  occ. eigenvalues --   -0.33595  -0.33054  -0.32607  -0.31845  -0.31776
 Alpha  occ. eigenvalues --   -0.31527  -0.31099  -0.31047  -0.30743  -0.30668
 Alpha  occ. eigenvalues --   -0.30135  -0.29959  -0.29680  -0.24680  -0.23535
 Alpha  occ. eigenvalues --   -0.21675  -0.21623
 Alpha virt. eigenvalues --   -0.09071  -0.09044  -0.01951  -0.00353   0.00907
 Alpha virt. eigenvalues --    0.00938   0.02021   0.02318   0.02661   0.02717
 Alpha virt. eigenvalues --    0.04403   0.04533   0.05155   0.05387   0.05812

 Mulliken charges:
               1
     1  Mg  11.999990
     2  C    6.000119
     3  C    5.999904
     4  C    5.999855
     5  C    6.000105
     6  N    7.000028
     7  C    5.999840
     8  C    6.000056
     9  C    5.999944
    10  C    6.000174
    11  C    5.999990
    12  C    6.000019
    13  C    6.000013
    14  H    0.999969
    15  N    6.999953
    16  C    6.000320
    17  C    6.000080
    18  C    6.000116
    19  C    6.000240
    20  C    5.999955
    21  C    6.000080
    22  O    8.000148
    23  C    5.999991
    24  N    7.000001
    25  C    6.000209
    26  C    5.999929
    27  C    6.000061
    28  C    5.999826
    29  C    5.999993
    30  C    6.000026
    31  C    6.000020
    32  N    6.999978
    33  C    5.999725
    34  C    5.999851
    35  C    5.999963
    36  C    5.999795
    37  C    6.000032
    38  C    5.999864
    39  O    7.999798
    40  C    5.999988
    41  C    5.999955
    42  O    7.999987
    43  O    7.999982
    44  C    6.000018
    45  H    1.000104
    46  H    1.000048
    47  H    0.999925
    48  H    1.000008
    49  H    1.000003
    50  H    1.000037
    51  H    1.000101
    52  H    0.999981
    53  H    0.999938
    54  H    1.000043
    55  H    1.000006
    56  H    0.999962
    57  H    1.000109
    58  H    1.000131
    59  H    1.000141
    60  H    1.000051
    61  H    1.000099
    62  H    1.000059
    63  H    0.999995
    64  H    0.999986
    65  H    0.999999
    66  H    0.999997
    67  H    1.000069
    68  H    0.999994
    69  H    0.999929
    70  H    0.999962
    71  H    1.000010
    72  H    1.000000
    73  H    0.999848
    74  H    0.999876
    75  H    0.999855
    76  H    0.999929
    77  H    0.999966
    78  H    0.999986
    79  H    0.999960
    80  Mg  11.996443
    81  C    6.024098
    82  C    5.994141
    83  C    5.977609
    84  C    6.011560
    85  N    7.016449
    86  C    5.969948
    87  C    6.006409
    88  C    5.993231
    89  C    6.025325
    90  C    5.994699
    91  C    6.003638
    92  C    6.001995
    93  H    0.998661
    94  N    6.985205
    95  C    6.039791
    96  C    6.023099
    97  C    6.010795
    98  C    6.041253
    99  C    5.995478
   100  C    6.012956
   101  O    8.024643
   102  C    5.993388
   103  N    6.999308
   104  C    6.034568
   105  C    5.986024
   106  C    6.010909
   107  C    5.978401
   108  C    6.000208
   109  C    6.001605
   110  C    5.999728
   111  N    6.999327
   112  C    5.956760
   113  C    5.966535
   114  C    6.000379
   115  C    5.960236
   116  C    6.000584
   117  C    5.985689
   118  O    7.974952
   119  C    5.994797
   120  C    5.996368
   121  O    7.991699
   122  O    8.000152
   123  C    6.002886
   124  H    1.011636
   125  H    1.006009
   126  H    0.988902
   127  H    1.001443
   128  H    1.001355
   129  H    1.002938
   130  H    1.015477
   131  H    0.997836
   132  H    0.985025
   133  H    1.004439
   134  H    1.003687
   135  H    0.993762
   136  H    1.020051
   137  H    1.018773
   138  H    1.019407
   139  H    1.007556
   140  H    1.005893
   141  H    1.015111
   142  H    1.002183
   143  H    0.997453
   144  H    0.993515
   145  H    1.009169
   146  H    1.002035
   147  H    1.008453
   148  H    0.992053
   149  H    0.995314
   150  H    0.995618
   151  H    1.003398
   152  H    0.981117
   153  H    0.976646
   154  H    0.982244
   155  H    0.991705
   156  H    0.993972
   157  H    0.998075
   158  H    0.995819
 Sum of Mulliken charges = 624.00000

 Dipole moment (field-independent basis, Debye):
    X=             -4.7418    Y=              8.8818    Z=             -3.6707  Tot=             10.7165
 Quadrupole moment (field-independent basis, Debye-Ang):
   XX=           -281.3988   YY=             11.5434   ZZ=             -1.3876
   XY=            264.8331   XZ=           -116.3362   YZ=             -2.1271

 Normal termination of Gaussian 16 at Thu Sep 23 12:07:47 2021.
