 Gaussian 16, Revision A.03,
 Gaussian 16:  ES64L-G16RevA.03 25-Dec-2016

 -----------------------------------
 #p cam-b3lyp/Def2SVP td=(nstates=5)
 -----------------------------------

 --------------------------------
 TDDFT excited states in gaussian
 --------------------------------
 Symbolic Z-matrix:
 Charge =  0 Multiplicity = 1

                         Standard orientation:
 ---------------------------------------------------------------------
 Center     Atomic      Atomic             Coordinates (Angstroms)
 Number     Number       Type             X           Y           Z
 ---------------------------------------------------------------------
      1         12           0        9.047535   -0.292399    0.107166
      2          6           0        7.673748    2.589116   -1.266491
      3          6           0       11.695139    1.497855    1.172387
      4          6           0       10.708650   -3.172136    0.729216
      5          6           0        6.696900   -2.197196   -1.736746
      6          7           0        9.483446    1.787988    0.000484
      7          6           0        8.759300    2.869184   -0.452456
      8          6           0        9.552165    4.186601   -0.230493
      9          6           0       10.989195    3.636388    0.025209
     10          6           0       10.705061    2.233149    0.540511
     11          6           0       11.907389    3.581286   -1.246200
     12          6           0        8.803583    5.013774    0.830644
     13          6           0        8.717948    6.460890    0.525892
     14          1           0        7.661156    7.179144    1.235413
     15          7           0       10.830071   -0.729477    1.046172
     16          6           0       11.754163    0.172781    1.466258
     17          6           0       12.675795   -0.497016    2.349119
     18          6           0       12.375769   -1.900989    2.218820
     19          6           0       11.303559   -1.988424    1.223132
     20          6           0       13.767094    0.196674    3.082792
     21          6           0       13.084875   -3.165302    2.804661
     22          8           0       12.685507   -4.312758    2.596490
     23          6           0       14.220534   -3.039695    3.781427
     24          7           0        8.898193   -2.359136   -0.741221
     25          6           0        9.673968   -3.402615   -0.166491
     26          6           0        9.219964   -4.768250   -0.563636
     27          6           0        7.825066   -4.381566   -1.154121
     28          6           0        7.765455   -2.856318   -1.154600
     29          6           0       10.183172   -5.502779   -1.556583
     30          6           0        6.615953   -4.963079   -0.334102
     31          6           0        6.641333   -4.683316    1.190190
     32          7           0        7.431677    0.072184   -1.144780
     33          6           0        6.534717   -0.799201   -1.781856
     34          6           0        5.612257    0.013436   -2.482508
     35          6           0        6.014890    1.326980   -2.275814
     36          6           0        7.112348    1.298562   -1.480010
     37          6           0        4.419269   -0.480211   -3.237324
     38          6           0        5.746086    2.636622   -2.646868
     39          8           0        4.856414    3.079746   -3.395848
     40          6           0        6.792530    3.603479   -2.015233
     41          6           0        5.921994    4.551136   -1.132238
     42          8           0        5.321647    4.220945   -0.094042
     43          8           0        5.936305    5.814097   -1.714224
     44          6           0        4.975470    6.842927   -1.203481
     45          1           0       12.535373    2.163811    1.380036
     46          1           0       11.020931   -4.195959    0.948641
     47          1           0        5.830525   -2.718603   -2.149175
     48          1           0        9.498129    4.814707   -1.119049
     49          1           0       11.447990    4.201665    0.835883
     50          1           0       11.487888    4.001121   -2.160900
     51          1           0       12.090768    2.548772   -1.540742
     52          1           0       12.808448    4.162289   -1.050730
     53          1           0        9.417727    4.958797    1.728392
     54          1           0        7.818190    4.566217    0.963031
     55          1           0        8.470715    6.522408   -0.534044
     56          1           0        9.706418    6.900531    0.657637
     57          1           0       13.580688    1.267998    3.155292
     58          1           0       14.719554   -0.141079    2.672944
     59          1           0       13.769133   -0.137158    4.120469
     60          1           0       14.775786   -3.971320    3.670121
     61          1           0       13.848559   -2.992454    4.805161
     62          1           0       14.884133   -2.210552    3.533994
     63          1           0        9.056414   -5.442181    0.278465
     64          1           0        7.769915   -4.740551   -2.182338
     65          1           0       10.808863   -4.761616   -2.054598
     66          1           0        9.717597   -6.089690   -2.348496
     67          1           0       10.871836   -6.220763   -1.110297
     68          1           0        6.574191   -6.023935   -0.581555
     69          1           0        5.747416   -4.526030   -0.826665
     70          1           0        5.766999   -4.127677    1.529757
     71          1           0        7.559012   -4.129353    1.389854
     72          1           0        6.668745   -5.596076    1.784600
     73          1           0        4.528884   -0.089735   -4.249022
     74          1           0        3.529065   -0.121166   -2.720893
     75          1           0        4.354766   -1.561789   -3.356831
     76          1           0        7.244128    4.185539   -2.818140
     77          1           0        3.979636    6.430356   -1.363757
     78          1           0        5.000753    7.831858   -1.661062
     79          1           0        5.308053    6.826499   -0.165551
     80         12           0       -8.440368   -1.050935    0.323348
     81          6           0      -10.585337    1.818259    0.682573
     82          6           0       -5.803426    1.114824    0.422691
     83          6           0       -6.470910   -3.689915   -0.315780
     84          6           0      -11.214884   -2.933877   -0.231402
     85          7           0       -8.241105    1.304042    0.591738
     86          6           0       -9.276539    2.177873    0.755233
     87          6           0       -8.687508    3.495150    1.091631
     88          6           0       -7.157678    3.327067    0.877771
     89          6           0       -6.977482    1.818715    0.553922
     90          6           0       -6.633407    4.212121   -0.297506
     91          6           0       -9.037651    4.045411    2.451546
     92          6           0       -8.675508    5.483524    2.785648
     93          1           0       -9.741114    6.320983    3.357556
     94          7           0       -6.439580   -1.270085    0.200267
     95          6           0       -5.487731   -0.213789    0.168511
     96          6           0       -4.157157   -0.850016    0.148463
     97          6           0       -4.380241   -2.191665   -0.150052
     98          6           0       -5.835533   -2.426550   -0.160607
     99          6           0       -2.890932   -0.024947    0.245588
    100          6           0       -3.365269   -3.337177   -0.353908
    101          8           0       -3.654092   -4.448091   -0.836786
    102          6           0       -1.980530   -3.085661    0.084935
    103          7           0       -8.770911   -3.057134   -0.272655
    104          6           0       -7.852348   -3.980624   -0.468912
    105          6           0       -8.439837   -5.359157   -0.878265
    106          6           0       -9.925526   -5.129156   -0.592727
    107          6           0       -9.973829   -3.645451   -0.308108
    108          6           0       -8.151082   -5.684500   -2.382639
    109          6           0      -10.542658   -5.946830    0.519450
    110          6           0      -11.937816   -6.537719    0.249267
    111          7           0      -10.461254   -0.661628    0.334867
    112          6           0      -11.475860   -1.562702    0.096318
    113          6           0      -12.817583   -0.923442    0.249244
    114          6           0      -12.425759    0.384418    0.452354
    115          6           0      -11.032616    0.523796    0.447743
    116          6           0      -14.160472   -1.576696    0.319282
    117          6           0      -12.976850    1.713306    0.673328
    118          8           0      -14.157126    2.023787    0.788453
    119          6           0      -11.813052    2.717558    0.837345
    120          6           0      -12.085578    3.810132   -0.061286
    121          8           0      -11.936173    3.817512   -1.306977
    122          8           0      -12.381342    4.937318    0.643301
    123          6           0      -12.417861    6.203534   -0.055314
    124          1           0       -4.947752    1.782911    0.538546
    125          1           0       -5.848615   -4.508019   -0.684020
    126          1           0      -12.006210   -3.559582   -0.648979
    127          1           0       -9.095063    4.143466    0.317054
    128          1           0       -6.581737    3.598248    1.762732
    129          1           0       -5.779481    4.884597   -0.209841
    130          1           0       -7.486854    4.838704   -0.556100
    131          1           0       -6.482498    3.686019   -1.240515
    132          1           0       -8.516535    3.504672    3.241752
    133          1           0      -10.047592    3.770584    2.754567
    134          1           0       -8.340922    6.012854    1.894738
    135          1           0       -8.011892    5.416308    3.647346
    136          1           0       -2.128799   -0.285984   -0.488360
    137          1           0       -2.415811   -0.055155    1.225915
    138          1           0       -3.018827    1.037871    0.038779
    139          1           0       -2.006597   -2.714820    1.109679
    140          1           0       -1.661592   -2.300437   -0.599602
    141          1           0       -1.488155   -4.056958    0.114844
    142          1           0       -7.993362   -6.089497   -0.202593
    143          1           0      -10.602403   -5.264899   -1.435755
    144          1           0       -9.064619   -5.680534   -2.976493
    145          1           0       -7.737559   -6.686330   -2.498672
    146          1           0       -7.484813   -4.892272   -2.724386
    147          1           0      -10.589210   -5.388938    1.454158
    148          1           0       -9.747330   -6.632011    0.811050
    149          1           0      -12.016001   -7.441244    0.853157
    150          1           0      -12.153912   -6.656449   -0.812928
    151          1           0      -12.576882   -5.731524    0.608853
    152          1           0      -14.549303   -1.694879    1.330861
    153          1           0      -14.070005   -2.479406   -0.284224
    154          1           0      -14.855362   -1.032585   -0.321589
    155          1           0      -11.968122    3.148437    1.826444
    156          1           0      -12.088597    6.159741   -1.093812
    157          1           0      -11.889879    6.970223    0.511057
    158          1           0      -13.427167    6.612784   -0.106330
 ---------------------------------------------------------------------

 SCF Done:  E(RCAM-B3LYP) =  -4069.82577587     A.U. after   19 cycles

 Excitation energies and oscillator strengths:

 Excited State   1:      Singlet-A      1.6582 eV  747.69 nm  f=0.4734  <S**2>=0.000
     309 -> 316       -0.16073
     311 -> 313        0.68410
     309 <- 316       -0.10336
 This state for optimization and/or second-order correction.
 Total Energy, E(TD-HF/TD-DFT) =  -4069.76483693
 Copying the excited state density for this state as the 1-particle RhoCI density.

 Excited State   2:      Singlet-A      1.7553 eV  706.33 nm  f=0.3191  <S**2>=0.000
     310 -> 315        0.19765
     312 -> 314        0.67631
     310 <- 315        0.11187

 Excited State   3:      Singlet-A      2.2186 eV  558.83 nm  f=0.1202  <S**2>=0.000
     309 -> 313        0.64350
     311 -> 316        0.27197

 Excited State   4:      Singlet-A      2.3191 eV  534.63 nm  f=0.0715  <S**2>=0.000
     310 -> 314        0.61685
     312 -> 315       -0.33890

 Excited State   5:      Singlet-A      2.6175 eV  473.68 nm  f=0.0000  <S**2>=0.000
     312 -> 313        0.70690

 The electronic state is 1-A.
 Alpha  occ. eigenvalues --  -46.88479 -46.88376 -19.25059 -19.24955 -19.20229
 Alpha  occ. eigenvalues --  -19.18917 -19.18872 -19.18729 -19.18493 -19.17835
 Alpha  occ. eigenvalues --  -14.42101 -14.41785 -14.41630 -14.40977 -14.39636
 Alpha  occ. eigenvalues --  -14.39501 -14.39477 -14.38668 -10.40241 -10.39031
 Alpha  occ. eigenvalues --  -10.35421 -10.35134 -10.34337 -10.33819 -10.32199
 Alpha  occ. eigenvalues --  -10.31121 -10.31110 -10.30719 -10.30621 -10.30484
 Alpha  occ. eigenvalues --  -10.30476 -10.30449 -10.30401 -10.30366 -10.30345
 Alpha  occ. eigenvalues --  -10.30287 -10.30265 -10.29950 -10.29462 -10.29369
 Alpha  occ. eigenvalues --  -10.28894 -10.28506 -10.28484 -10.28458 -10.28404
 Alpha  occ. eigenvalues --  -10.28375 -10.28272 -10.28067 -10.28049 -10.27973
 Alpha  occ. eigenvalues --  -10.27895 -10.27885 -10.27838 -10.27835 -10.27681
 Alpha  occ. eigenvalues --  -10.27617 -10.27481 -10.27327 -10.27302 -10.27192
 Alpha  occ. eigenvalues --  -10.27151 -10.27140 -10.27089 -10.26980 -10.26879
 Alpha  occ. eigenvalues --  -10.26843 -10.26778 -10.26686 -10.26538 -10.26501
 Alpha  occ. eigenvalues --  -10.26163 -10.26113 -10.26087 -10.26066 -10.25977
 Alpha  occ. eigenvalues --  -10.25940 -10.25938 -10.25915 -10.25895 -10.25858
 Alpha  occ. eigenvalues --  -10.25834 -10.25712 -10.25644 -10.25528 -10.24481
 Alpha  occ. eigenvalues --  -10.23950  -3.17075  -3.16982  -1.91955  -1.91891
 Alpha  occ. eigenvalues --   -1.91534  -1.91429  -1.91377  -1.91294  -1.16006
 Alpha  occ. eigenvalues --   -1.14631  -1.09610  -1.09361  -1.08950  -1.08131
 Alpha  occ. eigenvalues --   -1.06865  -1.05850  -1.05650  -1.04969  -1.04454
 Alpha  occ. eigenvalues --   -1.04057  -1.03670  -1.02946  -1.02385  -1.02053
 Alpha  occ. eigenvalues --   -0.93042  -0.92701  -0.89992  -0.89250  -0.89209
 Alpha  occ. eigenvalues --   -0.89186  -0.88722  -0.88342  -0.87945  -0.87450
 Alpha  occ. eigenvalues --   -0.87289  -0.86956  -0.86694  -0.86501  -0.84755
 Alpha  occ. eigenvalues --   -0.84552  -0.83956  -0.83665  -0.82818  -0.82472
 Alpha  occ. eigenvalues --   -0.82314  -0.81758  -0.81168  -0.81124  -0.80756
 Alpha  occ. eigenvalues --   -0.80557  -0.78512  -0.78361  -0.77597  -0.77321
 Alpha  occ. eigenvalues --   -0.77223  -0.77099  -0.76464  -0.76199  -0.75614
 Alpha  occ. eigenvalues --   -0.75113  -0.73413  -0.72862  -0.72198  -0.71828
 Alpha  occ. eigenvalues --   -0.69932  -0.69451  -0.69133  -0.68924  -0.67962
 Alpha  occ. eigenvalues --   -0.67697  -0.66685  -0.66406  -0.66317  -0.65496
 Alpha  occ. eigenvalues --   -0.65279  -0.64983  -0.64816  -0.64612  -0.64435
 Alpha  occ. eigenvalues --   -0.64218  -0.62432  -0.61751  -0.60279  -0.60033
 Alpha  occ. eigenvalues --   -0.59946  -0.59778  -0.59364  -0.59299  -0.58654
 Alpha  occ. eigenvalues --   -0.58589  -0.58281  -0.57723  -0.57485  -0.57192
 Alpha  occ. eigenvalues --   -0.56332  -0.56126  -0.55784  -0.55636  -0.55472
 Alpha  occ. eigenvalues --   -0.55391  -0.55267  -0.54950  -0.54326  -0.53903
 Alpha  occ. eigenvalues --   -0.53780  -0.53711  -0.53351  -0.53199  -0.53097
 Alpha  occ. eigenvalues --   -0.53053  -0.52976  -0.52840  -0.52619  -0.52083
 Alpha  occ. eigenvalues --   -0.51863  -0.51855  -0.51779  -0.51608  -0.51575
 Alpha  occ. eigenvalues --   -0.51077  -0.50677  -0.50633  -0.50494  -0.50335
 Alpha  occ. eigenvalues --   -0.50164  -0.49843  -0.49799  -0.49540  -0.49529
 Alpha  occ. eigenvalues --   -0.49336  -0.49059  -0.48950  -0.48917  -0.48672
 Alpha  occ. eigenvalues --   -0.48523  -0.48269  -0.48241  -0.48226  -0.48116
 Alpha  occ. eigenvalues --   -0.47843  -0.47837  -0.47651  -0.47521  -0.47238
 Alpha  occ. eigenvalues --   -0.47203  -0.47092  -0.46873  -0.46768  -0.46459
 Alpha  occ. eigenvalues --   -0.46419  -0.46157  -0.46092  -0.45926  -0.45845
 Alpha  occ. eigenvalues --   -0.45619  -0.45430  -0.45011  -0.44933  -0.44774
 Alpha  occ. eigenvalues --   -0.44652  -0.44406  -0.44333  -0.43909  -0.43847
 Alpha  occ. eigenvalues --   -0.43747  -0.43613  -0.43600  -0.43598  -0.43355
 Alpha  occ. eigenvalues --   -0.43272  -0.43211  -0.43025  -0.42842  -0.42523
 Alpha  occ. eigenvalues --   -0.42383  -0.42320  -0.42106  -0.41912  -0.41878
 Alpha  occ. eigenvalues --   -0.41747  -0.41637  -0.41567  -0.41451  -0.41221
 Alpha  occ. eigenvalues --   -0.41110  -0.40993  -0.40940  -0.40831  -0.40757
 Alpha  occ. eigenvalues --   -0.40444  -0.40119  -0.39991  -0.39828  -0.39322
 Alpha  occ. eigenvalues --   -0.38706  -0.38347  -0.38186  -0.37783  -0.37519
 Alpha  occ. eigenvalues --   -0.36986  -0.36914  -0.36756  -0.36285  -0.35949
 Alpha  occ. eigenvalues --   -0.35891  -0.35535  -0.34398  -0.34244  -0.33693
 Alpha  occ. eigenvalues --   -0.33411  -0.33387  -0.32882  -0.31470  -0.31433
 Alpha  occ. eigenvalues --   -0.30960  -0.30931  -0.30466  -0.30422  -0.30240
 Alpha  occ. eigenvalues --   -0.30135  -0.29894  -0.29554  -0.24398  -0.23948
 Alpha  occ. eigenvalues --   -0.21347  -0.20785
 Alpha virt. eigenvalues --   -0.09164  -0.08020  -0.01668  -0.01664   0.00376
 Alpha virt. eigenvalues --    0.00875   0.02021   0.02255   0.02640   0.03137
 Alpha virt. eigenvalues --    0.04669   0.04779   0.04894   0.05646   0.06159

 Mulliken charges:
               1
     1  Mg   0.820336
     2  C   -0.060295
     3  C   -0.109601
     4  C   -0.010562
     5  C   -0.097830
     6  N   -0.339961
     7  C   -0.021118
     8  C   -0.061487
     9  C   -0.031350
    10  C    0.010389
    11  C    0.081168
    12  C    0.079389
    13  C   -0.068891
    14  H    0.035069
    15  N   -0.383433
    16  C    0.221123
    17  C   -0.158532
    18  C   -0.039905
    19  C    0.171809
    20  C    0.117485
    21  C    0.010958
    22  O   -0.218406
    23  C    0.055061
    24  N   -0.251734
    25  C   -0.074764
    26  C   -0.004321
    27  C   -0.051247
    28  C    0.088156
    29  C    0.063611
    30  C    0.024194
    31  C    0.002281
    32  N   -0.340040
    33  C    0.098163
    34  C   -0.182613
    35  C    0.103632
    36  C    0.159605
    37  C    0.133537
    38  C   -0.059662
    39  O   -0.208329
    40  C    0.035855
    41  C    0.229274
    42  O   -0.242895
    43  O   -0.359963
    44  C    0.180454
    45  H   -0.025885
    46  H   -0.008528
    47  H   -0.020992
    48  H   -0.002114
    49  H   -0.007218
    50  H    0.013940
    51  H    0.031851
    52  H    0.021480
    53  H   -0.004110
    54  H    0.042143
    55  H    0.020673
    56  H    0.017181
    57  H    0.018614
    58  H    0.045884
    59  H    0.019976
    60  H    0.029824
    61  H    0.051981
    62  H    0.006494
    63  H    0.019463
    64  H    0.003506
    65  H    0.017885
    66  H    0.011709
    67  H    0.020831
    68  H    0.005906
    69  H   -0.001574
    70  H    0.022234
    71  H    0.027832
    72  H    0.019503
    73  H    0.035582
    74  H    0.042642
    75  H   -0.001836
    76  H    0.036434
    77  H    0.049438
    78  H    0.051611
    79  H    0.043028
    80  Mg   0.834310
    81  C    0.024754
    82  C   -0.055439
    83  C   -0.051987
    84  C   -0.106472
    85  N   -0.264107
    86  C   -0.113669
    87  C    0.060438
    88  C   -0.062283
    89  C    0.034819
    90  C    0.055013
    91  C    0.051977
    92  C   -0.061962
    93  H    0.017273
    94  N   -0.433311
    95  C    0.175074
    96  C   -0.114785
    97  C   -0.045646
    98  C    0.143734
    99  C    0.082576
   100  C    0.007351
   101  O   -0.223763
   102  C    0.070520
   103  N   -0.254221
   104  C   -0.036847
   105  C   -0.004037
   106  C   -0.057284
   107  C    0.011783
   108  C    0.079582
   109  C    0.047785
   110  C    0.022749
   111  N   -0.327755
   112  C    0.125421
   113  C   -0.201661
   114  C    0.044181
   115  C    0.113263
   116  C    0.151116
   117  C   -0.008793
   118  O   -0.173229
   119  C    0.036454
   120  C    0.195455
   121  O   -0.253629
   122  O   -0.318372
   123  C    0.172077
   124  H   -0.037235
   125  H    0.003878
   126  H   -0.019517
   127  H    0.008397
   128  H    0.010791
   129  H    0.019087
   130  H   -0.002578
   131  H    0.014254
   132  H   -0.010924
   133  H    0.001932
   134  H    0.035032
   135  H    0.034224
   136  H    0.020197
   137  H    0.031031
   138  H    0.018429
   139  H    0.031432
   140  H    0.041760
   141  H    0.034611
   142  H    0.016794
   143  H    0.006126
   144  H    0.011759
   145  H    0.025258
   146  H    0.033551
   147  H   -0.002095
   148  H   -0.015826
   149  H    0.028282
   150  H    0.017370
   151  H    0.021595
   152  H    0.054584
   153  H   -0.004559
   154  H    0.025417
   155  H    0.050790
   156  H    0.050050
   157  H    0.029508
   158  H    0.028144
 Sum of Mulliken charges =  -0.00000

 Dipole moment (field-independent basis, Debye):
    X=              7.5165    Y=              0.4293    Z=              3.7349  Tot=              8.4042
 Quadrupole moment (field-independent basis, Debye-Ang):
   XX=           -530.1151   YY=           -472.0049   ZZ=           -518.2713
   XY=             57.5866   XZ=             -0.6113   YZ=             14.6917

 Normal termination of Gaussian 16 at Wed Sep 15 11:11:09 2021.
