 Gaussian 16, Revision A.03,
 Gaussian 16:  ES64L-G16RevA.03 25-Dec-2016

 -----------------------------------
 #p cam-b3lyp/Def2SVP td=(nstates=5)
 -----------------------------------

 --------------------------------
 TDDFT excited states in gaussian
 --------------------------------
 Symbolic Z-matrix:
 Charge =  0 Multiplicity = 1

                         Standard orientation:
 ---------------------------------------------------------------------
 Center     Atomic      Atomic             Coordinates (Angstroms)
 Number     Number       Type             X           Y           Z
 ---------------------------------------------------------------------
      1         12           0      -31.926482   -0.088378    0.320797
      2          6           0      -29.386485   -1.667846   -1.482723
      3          6           0      -32.277231    2.076710   -2.414856
      4          6           0      -33.973078    1.864565    2.108656
      5          6           0      -30.741379   -1.586679    3.183301
      6          7           0      -31.003916    0.132717   -1.821494
      7          6           0      -29.950966   -0.630095   -2.218788
      8          6           0      -29.469630   -0.201913   -3.661627
      9          6           0      -30.264821    1.189318   -3.832698
     10          6           0      -31.209033    1.185093   -2.618752
     11          6           0      -29.225361    2.348631   -3.631408
     12          6           0      -30.000157   -1.283736   -4.672688
     13          6           0      -29.770799   -1.021244   -6.186063
     14          1           0      -30.725893   -1.197160   -7.328956
     15          7           0      -33.099919    1.570478   -0.175847
     16          6           0      -33.161434    2.324097   -1.359893
     17          6           0      -34.086021    3.359885   -1.161900
     18          6           0      -34.723000    3.206215    0.062227
     19          6           0      -33.940443    2.174050    0.721934
     20          6           0      -34.403737    4.305154   -2.273888
     21          6           0      -35.872920    4.030643    0.729452
     22          8           0      -36.367489    3.784761    1.824387
     23          6           0      -36.644609    5.112189   -0.031529
     24          7           0      -32.197071    0.171102    2.360990
     25          6           0      -33.208138    0.936776    2.828673
     26          6           0      -33.496281    0.731268    4.328709
     27          6           0      -32.368795   -0.270354    4.703267
     28          6           0      -31.795414   -0.692413    3.362410
     29          6           0      -33.634167    2.054937    5.151818
     30          6           0      -32.753818   -1.463719    5.620015
     31          6           0      -33.512286   -2.555205    4.992505
     32          7           0      -30.455532   -1.436706    0.799645
     33          6           0      -30.092647   -1.946577    1.953742
     34          6           0      -29.056129   -2.972388    1.798901
     35          6           0      -28.771601   -2.867529    0.399853
     36          6           0      -29.603627   -1.912138   -0.150238
     37          6           0      -28.725955   -4.086117    2.678484
     38          6           0      -27.942949   -3.438419   -0.647544
     39          8           0      -27.171298   -4.370327   -0.623764
     40          6           0      -28.284889   -2.604509   -1.888226
     41          6           0      -27.040391   -1.941653   -2.488027
     42          8           0      -26.520069   -0.950039   -2.046992
     43          8           0      -26.586290   -2.697527   -3.542300
     44          6           0      -25.385148   -2.113823   -4.182712
     45          1           0      -32.466623    2.659177   -3.317965
     46          1           0      -34.779133    2.331013    2.679336
     47          1           0      -30.659857   -2.010266    4.185818
     48          1           0      -28.397127   -0.010603   -3.705083
     49          1           0      -30.779027    1.304566   -4.787667
     50          1           0      -29.276517    2.890368   -2.687492
     51          1           0      -29.454827    3.204822   -4.266221
     52          1           0      -28.188401    2.041297   -3.765391
     53          1           0      -31.062936   -1.417194   -4.472542
     54          1           0      -29.555568   -2.235069   -4.379191
     55          1           0      -28.842969   -1.551883   -6.401738
     56          1           0      -29.605598    0.055384   -6.173642
     57          1           0      -33.828342    4.168125   -3.189836
     58          1           0      -34.402634    5.315469   -1.862500
     59          1           0      -35.432415    4.054711   -2.534577
     60          1           0      -36.046035    5.989977   -0.275286
     61          1           0      -37.590954    5.402403    0.425159
     62          1           0      -36.989671    4.645810   -0.954499
     63          1           0      -34.470314    0.255867    4.216570
     64          1           0      -31.613540    0.352368    5.182760
     65          1           0      -34.013057    2.864333    4.528660
     66          1           0      -32.653484    2.346044    5.529056
     67          1           0      -34.338615    1.966290    5.979117
     68          1           0      -33.362896   -0.964800    6.373152
     69          1           0      -31.868530   -1.824660    6.143906
     70          1           0      -32.822682   -3.235197    4.492597
     71          1           0      -34.278645   -2.166134    4.322402
     72          1           0      -34.004218   -3.186810    5.732817
     73          1           0      -29.634851   -4.261667    3.254461
     74          1           0      -27.975083   -3.957792    3.458276
     75          1           0      -28.441487   -4.915691    2.032057
     76          1           0      -28.739899   -3.272867   -2.619972
     77          1           0      -24.745976   -2.929654   -4.519794
     78          1           0      -24.690103   -1.598087   -3.519781
     79          1           0      -25.655640   -1.534673   -5.065019
     80         12           0       31.678487    0.514664   -0.447175
     81          6           0       29.517995   -2.169096    0.554781
     82          6           0       29.144047    2.667961    0.856589
     83          6           0       33.828204    3.093467   -0.315432
     84          6           0       34.176636   -1.771007   -0.928082
     85          7           0       29.632224    0.231319    0.597335
     86          6           0       28.959553   -0.924483    0.867733
     87          6           0       27.571273   -0.648111    1.543624
     88          6           0       27.380503    0.910979    1.221694
     89          6           0       28.823720    1.304905    0.950493
     90          6           0       26.516162    1.207054    0.017571
     91          6           0       27.501204   -1.106380    2.990935
     92          6           0       26.222356   -1.858106    3.443128
     93          1           0       25.071886   -1.104904    4.259807
     94          7           0       31.500306    2.685697    0.101294
     95          6           0       30.327637    3.347887    0.520697
     96          6           0       30.621875    4.778800    0.665674
     97          6           0       32.010548    4.914937    0.269684
     98          6           0       32.524707    3.574563    0.087575
     99          6           0       29.705201    5.835876    1.155285
    100          6           0       32.734900    6.225253    0.088409
    101          8           0       32.085934    7.246298    0.127628
    102          6           0       34.221266    6.353229   -0.153230
    103          7           0       33.662923    0.569414   -0.483430
    104          6           0       34.306018    1.800671   -0.574101
    105          6           0       35.799978    1.523090   -0.756657
    106          6           0       35.858937    0.004547   -1.160999
    107          6           0       34.457914   -0.423561   -0.881122
    108          6           0       36.628178    2.487011   -1.683337
    109          6           0       36.955921   -0.888594   -0.504350
    110          6           0       37.872309   -1.649590   -1.406064
    111          7           0       31.844063   -1.526622   -0.367296
    112          6           0       32.914102   -2.352071   -0.665704
    113          6           0       32.484130   -3.762079   -0.733947
    114          6           0       31.144845   -3.701100   -0.184633
    115          6           0       30.852722   -2.348352    0.014836
    116          6           0       33.242749   -4.991816   -1.158674
    117          6           0       29.971267   -4.552246    0.170719
    118          8           0       29.849203   -5.743923    0.186790
    119          6           0       28.954934   -3.578551    0.758395
    120          6           0       27.668673   -3.751079    0.007067
    121          8           0       27.631487   -3.447333   -1.165959
    122          8           0       26.545045   -4.175693    0.777913
    123          6           0       25.217927   -4.152418    0.091253
    124          1           0       28.373117    3.362691    1.196870
    125          1           0       34.645794    3.815937   -0.337203
    126          1           0       34.949715   -2.457200   -1.279294
    127          1           0       26.752086   -1.101240    0.986055
    128          1           0       27.067062    1.464801    2.106565
    129          1           0       27.123379    1.084386   -0.878983
    130          1           0       26.119638    2.213757    0.148821
    131          1           0       25.651699    0.571953   -0.178731
    132          1           0       27.540020   -0.199621    3.593787
    133          1           0       28.437544   -1.612953    3.224774
    134          1           0       26.620012   -2.666920    4.056617
    135          1           0       25.683716   -2.328416    2.620372
    136          1           0       29.305087    6.324665    0.267490
    137          1           0       30.287934    6.610790    1.653406
    138          1           0       28.880404    5.583648    1.822841
    139          1           0       34.608517    7.371923   -0.149268
    140          1           0       34.389805    5.936745   -1.146400
    141          1           0       34.914309    5.790854    0.471395
    142          1           0       36.184211    1.754932    0.237101
    143          1           0       35.884713   -0.053627   -2.248731
    144          1           0       35.968381    3.030330   -2.360312
    145          1           0       37.404058    1.933963   -2.212410
    146          1           0       37.185419    3.201979   -1.078420
    147          1           0       36.473045   -1.597966    0.167674
    148          1           0       37.513065   -0.253023    0.183810
    149          1           0       37.605836   -2.705852   -1.375008
    150          1           0       38.897538   -1.555145   -1.048430
    151          1           0       37.885670   -1.375085   -2.460626
    152          1           0       32.561315   -5.793151   -1.443614
    153          1           0       33.862749   -5.279002   -0.308962
    154          1           0       33.945800   -4.695628   -1.937407
    155          1           0       28.915899   -3.758470    1.832841
    156          1           0       25.130822   -5.032521   -0.546104
    157          1           0       25.138154   -3.291220   -0.571789
    158          1           0       24.407051   -4.104744    0.817845
 ---------------------------------------------------------------------

 SCF Done:  E(RCAM-B3LYP) =  -4069.82353471     A.U. after   18 cycles

 Excitation energies and oscillator strengths:

 Excited State   1:      Singlet-A      1.6714 eV  741.79 nm  f=0.3983  <S**2>=0.000
     309 -> 315        0.16934
     311 -> 313        0.68867
     309 <- 315        0.10660
 This state for optimization and/or second-order correction.
 Total Energy, E(TD-HF/TD-DFT) =  -4069.76211087
 Copying the excited state density for this state as the 1-particle RhoCI density.

 Excited State   2:      Singlet-A      1.7451 eV  710.49 nm  f=0.3911  <S**2>=0.000
     310 -> 316       -0.18611
     312 -> 314        0.68384
     310 <- 316       -0.10700

 Excited State   3:      Singlet-A      2.2361 eV  554.47 nm  f=0.1280  <S**2>=0.000
     309 -> 313        0.64117
     311 -> 315       -0.28143

 Excited State   4:      Singlet-A      2.2617 eV  548.19 nm  f=0.1156  <S**2>=0.000
     310 -> 314        0.64504
     312 -> 316        0.27671

 Excited State   5:      Singlet-A      3.1408 eV  394.76 nm  f=0.0000  <S**2>=0.000
     312 -> 313        0.70711

 The electronic state is 1-A.
 Alpha  occ. eigenvalues --  -46.89322 -46.88708 -19.25788 -19.25253 -19.20724
 Alpha  occ. eigenvalues --  -19.20417 -19.19723 -19.19435 -19.18836 -19.17981
 Alpha  occ. eigenvalues --  -14.42757 -14.42247 -14.41712 -14.41063 -14.39335
 Alpha  occ. eigenvalues --  -14.39155 -14.39147 -14.39140 -10.40216 -10.39783
 Alpha  occ. eigenvalues --  -10.36170 -10.35404 -10.34512 -10.34510 -10.32262
 Alpha  occ. eigenvalues --  -10.31817 -10.31383 -10.31292 -10.31079 -10.30693
 Alpha  occ. eigenvalues --  -10.30633 -10.30577 -10.30512 -10.30361 -10.30278
 Alpha  occ. eigenvalues --  -10.30231 -10.29963 -10.29652 -10.29619 -10.29486
 Alpha  occ. eigenvalues --  -10.29219 -10.29101 -10.28831 -10.28700 -10.28678
 Alpha  occ. eigenvalues --  -10.28660 -10.28635 -10.28560 -10.28553 -10.28396
 Alpha  occ. eigenvalues --  -10.28057 -10.27988 -10.27964 -10.27789 -10.27740
 Alpha  occ. eigenvalues --  -10.27646 -10.27600 -10.27599 -10.27507 -10.27427
 Alpha  occ. eigenvalues --  -10.27276 -10.27219 -10.27102 -10.27037 -10.27009
 Alpha  occ. eigenvalues --  -10.26961 -10.26913 -10.26565 -10.26522 -10.26520
 Alpha  occ. eigenvalues --  -10.26490 -10.26353 -10.26311 -10.26194 -10.26045
 Alpha  occ. eigenvalues --  -10.25992 -10.25991 -10.25890 -10.25836 -10.25732
 Alpha  occ. eigenvalues --  -10.25529 -10.25369 -10.25291 -10.25273 -10.25131
 Alpha  occ. eigenvalues --  -10.24297  -3.17891  -3.17271  -1.92740  -1.92352
 Alpha  occ. eigenvalues --   -1.92198  -1.92159  -1.91740  -1.91559  -1.16835
 Alpha  occ. eigenvalues --   -1.15363  -1.11723  -1.10400  -1.10302  -1.10212
 Alpha  occ. eigenvalues --   -1.08772  -1.07863  -1.04973  -1.04592  -1.03785
 Alpha  occ. eigenvalues --   -1.03575  -1.03350  -1.02773  -1.02443  -1.01509
 Alpha  occ. eigenvalues --   -0.93824  -0.92753  -0.89437  -0.89406  -0.88883
 Alpha  occ. eigenvalues --   -0.88566  -0.88455  -0.88249  -0.87612  -0.87486
 Alpha  occ. eigenvalues --   -0.87224  -0.86228  -0.86201  -0.85647  -0.84491
 Alpha  occ. eigenvalues --   -0.84069  -0.83958  -0.83627  -0.82492  -0.82407
 Alpha  occ. eigenvalues --   -0.81842  -0.81540  -0.80928  -0.80553  -0.80414
 Alpha  occ. eigenvalues --   -0.80202  -0.78514  -0.78163  -0.77597  -0.77486
 Alpha  occ. eigenvalues --   -0.76796  -0.76586  -0.76346  -0.76155  -0.75223
 Alpha  occ. eigenvalues --   -0.74865  -0.72644  -0.72484  -0.71802  -0.71779
 Alpha  occ. eigenvalues --   -0.70053  -0.69549  -0.69165  -0.68934  -0.68358
 Alpha  occ. eigenvalues --   -0.67920  -0.67007  -0.66710  -0.65943  -0.65374
 Alpha  occ. eigenvalues --   -0.65093  -0.64830  -0.64539  -0.64443  -0.64316
 Alpha  occ. eigenvalues --   -0.64012  -0.62491  -0.62321  -0.60072  -0.59794
 Alpha  occ. eigenvalues --   -0.59553  -0.59450  -0.59380  -0.59190  -0.59065
 Alpha  occ. eigenvalues --   -0.58637  -0.58326  -0.58244  -0.57646  -0.57352
 Alpha  occ. eigenvalues --   -0.56554  -0.56536  -0.55731  -0.55659  -0.55507
 Alpha  occ. eigenvalues --   -0.55432  -0.55237  -0.54599  -0.54326  -0.54016
 Alpha  occ. eigenvalues --   -0.53863  -0.53363  -0.53251  -0.53142  -0.53079
 Alpha  occ. eigenvalues --   -0.52958  -0.52691  -0.52548  -0.52240  -0.52097
 Alpha  occ. eigenvalues --   -0.51833  -0.51722  -0.51311  -0.51134  -0.51100
 Alpha  occ. eigenvalues --   -0.51017  -0.50923  -0.50602  -0.50434  -0.50287
 Alpha  occ. eigenvalues --   -0.49936  -0.49925  -0.49869  -0.49738  -0.49630
 Alpha  occ. eigenvalues --   -0.49457  -0.49302  -0.49221  -0.49110  -0.48976
 Alpha  occ. eigenvalues --   -0.48824  -0.48705  -0.48593  -0.48498  -0.48185
 Alpha  occ. eigenvalues --   -0.47904  -0.47688  -0.47501  -0.47097  -0.47083
 Alpha  occ. eigenvalues --   -0.46975  -0.46661  -0.46419  -0.46380  -0.46181
 Alpha  occ. eigenvalues --   -0.46118  -0.46053  -0.46003  -0.45971  -0.45825
 Alpha  occ. eigenvalues --   -0.45739  -0.45371  -0.45247  -0.45078  -0.44971
 Alpha  occ. eigenvalues --   -0.44957  -0.44736  -0.44658  -0.44428  -0.44210
 Alpha  occ. eigenvalues --   -0.44081  -0.43857  -0.43772  -0.43668  -0.43613
 Alpha  occ. eigenvalues --   -0.43446  -0.43339  -0.43305  -0.43246  -0.42903
 Alpha  occ. eigenvalues --   -0.42898  -0.42639  -0.42577  -0.42548  -0.42425
 Alpha  occ. eigenvalues --   -0.42407  -0.42393  -0.41917  -0.41850  -0.41661
 Alpha  occ. eigenvalues --   -0.41550  -0.41120  -0.40828  -0.40773  -0.40572
 Alpha  occ. eigenvalues --   -0.40262  -0.40256  -0.39612  -0.39287  -0.38843
 Alpha  occ. eigenvalues --   -0.38477  -0.38466  -0.37849  -0.37749  -0.37698
 Alpha  occ. eigenvalues --   -0.37339  -0.37329  -0.37154  -0.36716  -0.36506
 Alpha  occ. eigenvalues --   -0.36359  -0.35819  -0.35043  -0.34930  -0.34397
 Alpha  occ. eigenvalues --   -0.34271  -0.33182  -0.33164  -0.31601  -0.31444
 Alpha  occ. eigenvalues --   -0.31108  -0.31092  -0.30809  -0.30493  -0.30054
 Alpha  occ. eigenvalues --   -0.29672  -0.29183  -0.28739  -0.24306  -0.23794
 Alpha  occ. eigenvalues --   -0.21124  -0.21076
 Alpha virt. eigenvalues --   -0.08985  -0.08385  -0.01496  -0.01331   0.00434
 Alpha virt. eigenvalues --    0.00469   0.01246   0.01897   0.02555   0.02637
 Alpha virt. eigenvalues --    0.04400   0.04405   0.05147   0.05543   0.05604

 Mulliken charges:
               1
     1  Mg   0.838629
     2  C    0.003084
     3  C   -0.061071
     4  C   -0.104769
     5  C   -0.054741
     6  N   -0.218644
     7  C   -0.092808
     8  C   -0.042358
     9  C   -0.061298
    10  C    0.010996
    11  C    0.050374
    12  C    0.024658
    13  C   -0.040718
    14  H    0.041620
    15  N   -0.391172
    16  C    0.155144
    17  C   -0.142612
    18  C   -0.042391
    19  C    0.127192
    20  C    0.119220
    21  C    0.040018
    22  O   -0.203574
    23  C    0.039540
    24  N   -0.333301
    25  C    0.048243
    26  C   -0.057743
    27  C    0.015386
    28  C   -0.039411
    29  C    0.082145
    30  C    0.031358
    31  C    0.039673
    32  N   -0.320466
    33  C    0.146498
    34  C   -0.155211
    35  C   -0.024223
    36  C    0.123354
    37  C    0.118395
    38  C    0.036035
    39  O   -0.149055
    40  C   -0.004682
    41  C    0.202103
    42  O   -0.198435
    43  O   -0.329898
    44  C    0.164265
    45  H   -0.038345
    46  H   -0.000491
    47  H   -0.043701
    48  H    0.025027
    49  H    0.023761
    50  H    0.021434
    51  H    0.003554
    52  H    0.029313
    53  H    0.011278
    54  H    0.008510
    55  H    0.027380
    56  H    0.016225
    57  H    0.020647
    58  H    0.026114
    59  H    0.028291
    60  H    0.036704
    61  H    0.028221
    62  H    0.021112
    63  H    0.014651
    64  H    0.015003
    65  H    0.028223
    66  H    0.010041
    67  H    0.017429
    68  H   -0.003786
    69  H    0.009889
    70  H    0.011553
    71  H    0.012332
    72  H    0.011282
    73  H    0.009261
    74  H    0.018021
    75  H    0.040671
    76  H    0.048857
    77  H    0.031864
    78  H    0.052091
    79  H    0.038233
    80  Mg   0.850162
    81  C   -0.068702
    82  C   -0.046543
    83  C   -0.070145
    84  C   -0.117761
    85  N   -0.248508
    86  C   -0.056097
    87  C   -0.029280
    88  C   -0.067501
    89  C    0.027829
    90  C    0.088674
    91  C    0.079546
    92  C   -0.054258
    93  H    0.008695
    94  N   -0.346036
    95  C    0.095268
    96  C   -0.125942
    97  C   -0.029138
    98  C    0.139831
    99  C    0.130527
   100  C   -0.009064
   101  O   -0.204455
   102  C    0.048542
   103  N   -0.372399
   104  C    0.069210
   105  C   -0.081032
   106  C    0.022207
   107  C    0.057873
   108  C    0.063540
   109  C    0.049690
   110  C    0.008709
   111  N   -0.354572
   112  C    0.126930
   113  C   -0.180991
   114  C   -0.063979
   115  C    0.147730
   116  C    0.135420
   117  C    0.053061
   118  O   -0.136281
   119  C    0.059746
   120  C    0.212870
   121  O   -0.206830
   122  O   -0.375232
   123  C    0.175416
   124  H   -0.030901
   125  H   -0.056695
   126  H   -0.037319
   127  H    0.003961
   128  H    0.001853
   129  H    0.021991
   130  H    0.020336
   131  H    0.014395
   132  H    0.012525
   133  H    0.016699
   134  H    0.032671
   135  H    0.027192
   136  H    0.030812
   137  H    0.030813
   138  H    0.014446
   139  H    0.024083
   140  H    0.029758
   141  H    0.037077
   142  H    0.024826
   143  H    0.007134
   144  H    0.023788
   145  H    0.015794
   146  H    0.009088
   147  H    0.014437
   148  H   -0.000382
   149  H    0.015711
   150  H    0.013729
   151  H    0.015187
   152  H    0.047892
   153  H    0.030560
   154  H    0.013036
   155  H    0.042060
   156  H    0.044667
   157  H    0.034769
   158  H    0.047277
 Sum of Mulliken charges =  -0.00000

 Dipole moment (field-independent basis, Debye):
    X=             -0.6013    Y=              2.6718    Z=             -2.5958  Tot=              3.7734
 Quadrupole moment (field-independent basis, Debye-Ang):
   XX=           -220.9650   YY=           -569.2814   ZZ=           -482.8474
   XY=            -60.4080   XZ=             42.1236   YZ=            -16.2307

 Normal termination of Gaussian 16 at Tue Aug 31 21:45:16 2021.
