 Gaussian 16, Revision A.03,
 Gaussian 16:  ES64L-G16RevA.03 25-Dec-2016

 ----------------------------------------------------------
 #p cam-b3lyp/Def2SVP td=(nstates=5) density=(transition=1)
 ----------------------------------------------------------

 --------------------------------
 TDDFT excited states in gaussian
 --------------------------------
 Symbolic Z-matrix:
 Charge =  0 Multiplicity = 1

                         Standard orientation:
 ---------------------------------------------------------------------
 Center     Atomic      Atomic             Coordinates (Angstroms)
 Number     Number       Type             X           Y           Z
 ---------------------------------------------------------------------
      1         12           0       -9.723070    0.196037    0.794675
      2          6           0       -8.694692   -2.465939   -1.468348
      3          6           0       -6.948515   -0.537741    2.679613
      4          6           0       -9.755646    3.342117    1.927604
      5          6           0      -12.490427    0.689124   -1.114497
      6          7           0       -7.903837   -1.232437    0.483451
      7          6           0       -7.750746   -2.286533   -0.487823
      8          6           0       -6.568044   -3.174658   -0.091304
      9          6           0       -6.270476   -2.786540    1.387095
     10          6           0       -7.080444   -1.432616    1.598604
     11          6           0       -6.740998   -3.890519    2.448005
     12          6           0       -5.399331   -3.222889   -1.031596
     13          6           0       -5.284875   -2.097792   -2.087127
     14          1           0       -4.145947   -1.899724   -3.104018
     15          7           0       -8.583027    1.230979    2.247459
     16          6           0       -7.465273    0.747570    2.890983
     17          6           0       -7.034483    1.764859    3.900070
     18          6           0       -7.780816    2.895126    3.576567
     19          6           0       -8.732645    2.577755    2.514553
     20          6           0       -5.931805    1.474864    4.855668
     21          6           0       -7.603344    4.288548    4.247053
     22          8           0       -6.695512    4.422506    5.048289
     23          6           0       -8.368041    5.514347    3.871440
     24          7           0      -10.894765    1.804792    0.290636
     25          6           0      -10.771193    2.971267    1.044602
     26          6           0      -11.898318    3.952922    0.723932
     27          6           0      -12.949669    3.040807   -0.006117
     28          6           0      -12.111881    1.784478   -0.254478
     29          6           0      -12.536979    4.752353    1.888712
     30          6           0      -13.597498    3.635457   -1.297541
     31          6           0      -15.119667    4.100040   -1.165304
     32          7           0      -10.534491   -0.729147   -0.900146
     33          6           0      -11.743658   -0.448391   -1.519549
     34          6           0      -12.017625   -1.468797   -2.501322
     35          6           0      -10.815836   -2.189080   -2.533925
     36          6           0       -9.966939   -1.695608   -1.512584
     37          6           0      -13.290018   -1.503065   -3.365535
     38          6           0      -10.131373   -3.296378   -3.127735
     39          8           0      -10.605853   -4.048921   -4.002354
     40          6           0       -8.766246   -3.646888   -2.385625
     41          6           0       -7.768367   -3.721443   -3.471354
     42          8           0       -7.590986   -2.892113   -4.369827
     43          8           0       -7.003188   -4.810997   -3.216700
     44          6           0       -6.035461   -5.206820   -4.287454
     45          1           0       -6.056661   -0.761178    3.267985
     46          1           0       -9.761605    4.362414    2.317393
     47          1           0      -13.447659    0.798911   -1.627693
     48          1           0       -7.100151   -4.125847   -0.107509
     49          1           0       -5.239940   -2.467644    1.544304
     50          1           0       -5.800081   -4.256428    2.857047
     51          1           0       -7.341882   -4.646559    1.942021
     52          1           0       -7.291997   -3.342749    3.213325
     53          1           0       -5.404468   -4.222596   -1.465565
     54          1           0       -4.569933   -3.185020   -0.324567
     55          1           0       -5.352419   -1.174084   -1.511543
     56          1           0       -6.140808   -2.142264   -2.760850
     57          1           0       -5.101248    2.112179    4.553586
     58          1           0       -5.689162    0.415194    4.782084
     59          1           0       -6.280395    1.652224    5.873686
     60          1           0       -8.226598    5.923497    2.871818
     61          1           0       -8.081173    6.385258    4.460049
     62          1           0       -9.380077    5.199992    4.126135
     63          1           0      -11.323823    4.601950    0.061994
     64          1           0      -13.687899    2.809962    0.762206
     65          1           0      -12.164374    5.773867    1.971208
     66          1           0      -12.277843    4.282853    2.837082
     67          1           0      -13.619046    4.703940    1.761901
     68          1           0      -13.544980    2.980457   -2.167655
     69          1           0      -12.945890    4.470698   -1.554516
     70          1           0      -15.106915    5.056415   -1.687469
     71          1           0      -15.476276    4.224030   -0.142667
     72          1           0      -15.728091    3.300385   -1.586259
     73          1           0      -13.609643   -2.495239   -3.684940
     74          1           0      -12.955514   -0.943447   -4.238382
     75          1           0      -14.148121   -1.164216   -2.785482
     76          1           0       -8.883911   -4.585897   -1.842780
     77          1           0       -5.479193   -6.086278   -3.961232
     78          1           0       -5.313067   -4.413232   -4.479356
     79          1           0       -6.699804   -5.407345   -5.126836
     80         12           0        9.667863    0.788465    0.036413
     81          6           0        8.246013   -2.046150    1.500070
     82          6           0        6.417027    1.721546   -0.888709
     83          6           0       10.899667    3.242313   -1.876769
     84          6           0       12.729207   -0.781618    0.115862
     85          7           0        7.492376   -0.016219    0.366806
     86          6           0        7.267310   -1.223961    0.949158
     87          6           0        5.723097   -1.558938    0.951419
     88          6           0        5.179202   -0.431032   -0.063038
     89          6           0        6.414650    0.463292   -0.260701
     90          6           0        4.873807   -1.140907   -1.429717
     91          6           0        5.191800   -1.309618    2.410736
     92          6           0        3.662693   -1.442607    2.647293
     93          1           0        2.748540   -0.548651    3.431206
     94          7           0        8.768215    2.355173   -1.017851
     95          6           0        7.413271    2.624682   -1.273160
     96          6           0        7.347217    3.781230   -2.063701
     97          6           0        8.610697    4.340147   -2.201816
     98          6           0        9.493659    3.309715   -1.680701
     99          6           0        6.021957    4.346502   -2.457591
    100          6           0        9.077992    5.653613   -2.911483
    101          8           0       10.236672    6.053059   -2.954414
    102          6           0        8.082527    6.687639   -3.444564
    103          7           0       11.520281    1.087834   -0.847815
    104          6           0       11.806047    2.254843   -1.467225
    105          6           0       13.309629    2.459455   -1.736941
    106          6           0       13.879902    1.107533   -1.225220
    107          6           0       12.706025    0.463977   -0.509227
    108          6           0       13.652444    2.920803   -3.192364
    109          6           0       15.177143    1.160476   -0.372487
    110          6           0       15.031766    1.622203    1.015338
    111          7           0       10.416567   -0.985824    0.745157
    112          6           0       11.631109   -1.483608    0.718843
    113          6           0       11.722794   -2.746374    1.458877
    114          6           0       10.347844   -2.974742    1.785442
    115          6           0        9.598309   -1.917748    1.307320
    116          6           0       12.885352   -3.363644    2.083787
    117          6           0        9.472516   -3.907318    2.473718
    118          8           0        9.727285   -4.892529    3.128633
    119          6           0        8.066389   -3.345401    2.231483
    120          6           0        7.155412   -4.369551    1.546536
    121          8           0        7.183856   -4.624135    0.370558
    122          8           0        6.373837   -4.987530    2.493258
    123          6           0        5.455710   -5.989521    1.904498
    124          1           0        5.395599    2.066762   -1.056803
    125          1           0       11.360959    4.132960   -2.309127
    126          1           0       13.801707   -0.983215    0.130574
    127          1           0        5.508598   -2.545710    0.540296
    128          1           0        4.298631    0.108919    0.287255
    129          1           0        5.582305   -0.965735   -2.238678
    130          1           0        4.016349   -0.690496   -1.930318
    131          1           0        4.744817   -2.220016   -1.348635
    132          1           0        5.532767   -0.319603    2.712367
    133          1           0        5.739254   -1.987535    3.066141
    134          1           0        3.542990   -2.472408    2.985144
    135          1           0        3.297520   -1.326150    1.627655
    136          1           0        5.150690    3.768163   -2.148989
    137          1           0        6.069547    4.598912   -3.517780
    138          1           0        5.966784    5.280026   -1.896927
    139          1           0        7.499427    6.337861   -4.296545
    140          1           0        8.510298    7.670243   -3.644211
    141          1           0        7.409038    6.914420   -2.617863
    142          1           0       13.463232    3.280351   -1.037043
    143          1           0       14.043629    0.530700   -2.135475
    144          1           0       12.836850    3.503445   -3.619378
    145          1           0       13.808134    2.042456   -3.819307
    146          1           0       14.529311    3.567195   -3.234920
    147          1           0       15.778352    1.866527   -0.944460
    148          1           0       15.697966    0.204927   -0.436853
    149          1           0       14.720088    0.788300    1.644077
    150          1           0       14.352375    2.472096    1.077236
    151          1           0       15.986870    1.925108    1.445465
    152          1           0       13.576744   -2.538435    2.256027
    153          1           0       13.496141   -4.067339    1.518013
    154          1           0       12.527893   -3.842343    2.994859
    155          1           0        7.650835   -3.066889    3.200469
    156          1           0        5.347155   -6.811837    2.611434
    157          1           0        5.833229   -6.538203    1.041377
    158          1           0        4.463187   -5.567074    1.751263
 ---------------------------------------------------------------------

 SCF Done:  E(RCAM-B3LYP) =  -4069.78964508     A.U. after   19 cycles

 Excitation energies and oscillator strengths:

 Excited State   1:      Singlet-A      1.6554 eV  748.98 nm  f=0.3622  <S**2>=0.000
     309 -> 315       -0.15665
     312 -> 313        0.69069
     309 <- 315       -0.10164
 This state for optimization and/or second-order correction.
 Total Energy, E(TD-HF/TD-DFT) =  -4069.72881107
 Copying the excited state density for this state as the 1-particle RhoCI density.

 Excited State   2:      Singlet-A      1.7456 eV  710.26 nm  f=0.3832  <S**2>=0.000
     310 -> 316       -0.18608
     311 -> 314        0.68381
     310 <- 316       -0.10696

 Excited State   3:      Singlet-A      2.2617 eV  548.19 nm  f=0.1235  <S**2>=0.000
     310 -> 314        0.64323
     311 -> 316        0.27581

 Excited State   4:      Singlet-A      2.2761 eV  544.71 nm  f=0.0719  <S**2>=0.000
     309 -> 313        0.61727
     312 -> 315        0.32463

 Excited State   5:      Singlet-A      2.8584 eV  433.75 nm  f=0.0000  <S**2>=0.000
     311 -> 313        0.70696

 The electronic state is 1-A.
 Alpha  occ. eigenvalues --  -46.89442 -46.88685 -19.25810 -19.25503 -19.20427
 Alpha  occ. eigenvalues --  -19.19565 -19.19401 -19.19216 -19.18826 -19.17206
 Alpha  occ. eigenvalues --  -14.42605 -14.42225 -14.41685 -14.41039 -14.39864
 Alpha  occ. eigenvalues --  -14.39122 -14.39118 -14.38878 -10.39792 -10.39276
 Alpha  occ. eigenvalues --  -10.36135 -10.35642 -10.34502 -10.33666 -10.32266
 Alpha  occ. eigenvalues --  -10.32074 -10.31858 -10.31782 -10.31139 -10.31060
 Alpha  occ. eigenvalues --  -10.31006 -10.30947 -10.30646 -10.30612 -10.30557
 Alpha  occ. eigenvalues --  -10.30339 -10.29938 -10.29629 -10.29594 -10.29145
 Alpha  occ. eigenvalues --  -10.28971 -10.28870 -10.28724 -10.28659 -10.28637
 Alpha  occ. eigenvalues --  -10.28617 -10.28551 -10.28515 -10.28368 -10.28015
 Alpha  occ. eigenvalues --  -10.27998 -10.27960 -10.27811 -10.27793 -10.27751
 Alpha  occ. eigenvalues --  -10.27744 -10.27718 -10.27623 -10.27581 -10.27485
 Alpha  occ. eigenvalues --  -10.27435 -10.27398 -10.27371 -10.27281 -10.27261
 Alpha  occ. eigenvalues --  -10.27249 -10.27078 -10.27037 -10.27035 -10.26986
 Alpha  occ. eigenvalues --  -10.26966 -10.26922 -10.26495 -10.26406 -10.26309
 Alpha  occ. eigenvalues --  -10.26173 -10.26150 -10.26122 -10.25969 -10.25967
 Alpha  occ. eigenvalues --  -10.25809 -10.25275 -10.25250 -10.25111 -10.24277
 Alpha  occ. eigenvalues --  -10.24112  -3.17929  -3.17248  -1.92802  -1.92407
 Alpha  occ. eigenvalues --   -1.92211  -1.92135  -1.91717  -1.91536  -1.16852
 Alpha  occ. eigenvalues --   -1.16223  -1.10826  -1.10366  -1.10293  -1.08787
 Alpha  occ. eigenvalues --   -1.07618  -1.06814  -1.04973  -1.04951  -1.04156
 Alpha  occ. eigenvalues --   -1.03763  -1.03327  -1.02958  -1.02419  -1.00495
 Alpha  occ. eigenvalues --   -0.93810  -0.92074  -0.89472  -0.89414  -0.89112
 Alpha  occ. eigenvalues --   -0.88757  -0.88539  -0.88241  -0.87459  -0.87199
 Alpha  occ. eigenvalues --   -0.86958  -0.86787  -0.86217  -0.86180  -0.84514
 Alpha  occ. eigenvalues --   -0.84052  -0.83829  -0.83613  -0.82872  -0.82485
 Alpha  occ. eigenvalues --   -0.82400  -0.81515  -0.81102  -0.80910  -0.80398
 Alpha  occ. eigenvalues --   -0.80308  -0.78482  -0.78159  -0.77876  -0.77586
 Alpha  occ. eigenvalues --   -0.76631  -0.76578  -0.76144  -0.76135  -0.75394
 Alpha  occ. eigenvalues --   -0.74842  -0.73165  -0.72462  -0.71818  -0.71781
 Alpha  occ. eigenvalues --   -0.70032  -0.69755  -0.69164  -0.69152  -0.68347
 Alpha  occ. eigenvalues --   -0.67755  -0.67046  -0.66986  -0.66314  -0.65510
 Alpha  occ. eigenvalues --   -0.65361  -0.64815  -0.64801  -0.64428  -0.63993
 Alpha  occ. eigenvalues --   -0.63684  -0.62494  -0.62257  -0.60044  -0.59758
 Alpha  occ. eigenvalues --   -0.59430  -0.59362  -0.59253  -0.59180  -0.58637
 Alpha  occ. eigenvalues --   -0.58227  -0.58162  -0.57637  -0.57330  -0.57329
 Alpha  occ. eigenvalues --   -0.56908  -0.56538  -0.56424  -0.55733  -0.55486
 Alpha  occ. eigenvalues --   -0.55311  -0.55211  -0.54700  -0.54609  -0.54388
 Alpha  occ. eigenvalues --   -0.54008  -0.53811  -0.53593  -0.53221  -0.53137
 Alpha  occ. eigenvalues --   -0.52973  -0.52688  -0.52672  -0.52512  -0.52427
 Alpha  occ. eigenvalues --   -0.52081  -0.51979  -0.51517  -0.51342  -0.51185
 Alpha  occ. eigenvalues --   -0.51126  -0.51011  -0.50785  -0.50586  -0.50250
 Alpha  occ. eigenvalues --   -0.50094  -0.49910  -0.49792  -0.49670  -0.49599
 Alpha  occ. eigenvalues --   -0.49437  -0.49200  -0.49067  -0.48952  -0.48926
 Alpha  occ. eigenvalues --   -0.48817  -0.48497  -0.48461  -0.48246  -0.47886
 Alpha  occ. eigenvalues --   -0.47882  -0.47732  -0.47496  -0.47283  -0.47077
 Alpha  occ. eigenvalues --   -0.47046  -0.46929  -0.46677  -0.46644  -0.46372
 Alpha  occ. eigenvalues --   -0.46102  -0.45984  -0.45845  -0.45725  -0.45598
 Alpha  occ. eigenvalues --   -0.45353  -0.45327  -0.45111  -0.45056  -0.44961
 Alpha  occ. eigenvalues --   -0.44722  -0.44564  -0.44410  -0.44201  -0.44133
 Alpha  occ. eigenvalues --   -0.44077  -0.44070  -0.43836  -0.43643  -0.43609
 Alpha  occ. eigenvalues --   -0.43550  -0.43323  -0.43226  -0.42964  -0.42887
 Alpha  occ. eigenvalues --   -0.42870  -0.42691  -0.42590  -0.42414  -0.42391
 Alpha  occ. eigenvalues --   -0.42363  -0.42245  -0.42063  -0.41880  -0.41828
 Alpha  occ. eigenvalues --   -0.41638  -0.41198  -0.40901  -0.40750  -0.40243
 Alpha  occ. eigenvalues --   -0.40049  -0.39591  -0.39496  -0.39205  -0.38822
 Alpha  occ. eigenvalues --   -0.38661  -0.38474  -0.37849  -0.37736  -0.37541
 Alpha  occ. eigenvalues --   -0.37348  -0.37238  -0.36757  -0.36699  -0.36480
 Alpha  occ. eigenvalues --   -0.36340  -0.35993  -0.34933  -0.34519  -0.34250
 Alpha  occ. eigenvalues --   -0.33964  -0.33142  -0.32827  -0.31664  -0.31416
 Alpha  occ. eigenvalues --   -0.31310  -0.31063  -0.30797  -0.30242  -0.30028
 Alpha  occ. eigenvalues --   -0.29563  -0.29363  -0.29163  -0.24590  -0.23771
 Alpha  occ. eigenvalues --   -0.21054  -0.20888
 Alpha virt. eigenvalues --   -0.08721  -0.08361  -0.01927  -0.01308   0.00456
 Alpha virt. eigenvalues --    0.00793   0.01340   0.01920   0.02366   0.02578
 Alpha virt. eigenvalues --    0.04745   0.05143   0.05268   0.05528   0.05922

 Mulliken charges:
               1
     1  Mg  11.999743
     2  C    6.034375
     3  C    6.005165
     4  C    5.958654
     5  C    5.994981
     6  N    7.026416
     7  C    5.970349
     8  C    6.004345
     9  C    5.997944
    10  C    6.010741
    11  C    5.997528
    12  C    6.001368
    13  C    6.006868
    14  H    0.997788
    15  N    6.986661
    16  C    6.038859
    17  C    6.028318
    18  C    5.999867
    19  C    6.056725
    20  C    5.993344
    21  C    6.011976
    22  O    8.015091
    23  C    5.997697
    24  N    6.988455
    25  C    6.048438
    26  C    5.986440
    27  C    6.012928
    28  C    5.968594
    29  C    6.000703
    30  C    6.007139
    31  C    5.998212
    32  N    7.001943
    33  C    5.963263
    34  C    5.975253
    35  C    5.997629
    36  C    5.958514
    37  C    6.000255
    38  C    5.985412
    39  O    7.965638
    40  C    5.991231
    41  C    5.995845
    42  O    7.999031
    43  O    7.997746
    44  C    6.000274
    45  H    1.015034
    46  H    1.004189
    47  H    0.981781
    48  H    1.005255
    49  H    0.999501
    50  H    1.005683
    51  H    1.015427
    52  H    0.996935
    53  H    1.002900
    54  H    0.991372
    55  H    0.988936
    56  H    1.007297
    57  H    1.019813
    58  H    1.015936
    59  H    1.020331
    60  H    1.010765
    61  H    1.011562
    62  H    1.007683
    63  H    1.001797
    64  H    0.992971
    65  H    0.997496
    66  H    0.995063
    67  H    1.010102
    68  H    1.006374
    69  H    0.990022
    70  H    0.994663
    71  H    0.993727
    72  H    1.002925
    73  H    0.982691
    74  H    0.982392
    75  H    0.985192
    76  H    0.994202
    77  H    0.995120
    78  H    0.995728
    79  H    1.001392
    80  Mg  11.999955
    81  C    5.999620
    82  C    5.999973
    83  C    6.000641
    84  C    6.000219
    85  N    6.999855
    86  C    6.000122
    87  C    5.999989
    88  C    6.000021
    89  C    5.999774
    90  C    5.999866
    91  C    5.999996
    92  C    6.000965
    93  H    0.996535
    94  N    7.000068
    95  C    5.999648
    96  C    5.999931
    97  C    5.999909
    98  C    5.999653
    99  C    6.000179
   100  C    6.000011
   101  O    8.000029
   102  C    6.000037
   103  N    7.000182
   104  C    5.999675
   105  C    6.000031
   106  C    5.999830
   107  C    6.000199
   108  C    5.999931
   109  C    5.999868
   110  C    5.999890
   111  N    6.999949
   112  C    6.000199
   113  C    6.000709
   114  C    5.999949
   115  C    6.000412
   116  C    5.999844
   117  C    6.000174
   118  O    8.000363
   119  C    5.999966
   120  C    5.999983
   121  O    8.000424
   122  O    7.999745
   123  C    5.999864
   124  H    0.999098
   125  H    1.000212
   126  H    1.000476
   127  H    1.000257
   128  H    0.998744
   129  H    1.000657
   130  H    0.999963
   131  H    1.000198
   132  H    0.999927
   133  H    1.000175
   134  H    1.000181
   135  H    1.000221
   136  H    0.999393
   137  H    1.000304
   138  H    0.999379
   139  H    1.000236
   140  H    1.000108
   141  H    0.999583
   142  H    1.000040
   143  H    1.000388
   144  H    1.000145
   145  H    1.000258
   146  H    1.000227
   147  H    1.000338
   148  H    1.000216
   149  H    0.999852
   150  H    0.999943
   151  H    1.000284
   152  H    1.000275
   153  H    1.000652
   154  H    1.000184
   155  H    0.999617
   156  H    1.000114
   157  H    1.000620
   158  H    0.999552
 Sum of Mulliken charges = 624.00000

 Dipole moment (field-independent basis, Debye):
    X=              6.1360    Y=              3.8391    Z=              7.9372  Tot=             10.7419
 Quadrupole moment (field-independent basis, Debye-Ang):
   XX=           -112.3521   YY=              3.0534   ZZ=              8.6926
   XY=            -35.1506   XZ=            -70.4825   YZ=              1.8189

 Normal termination of Gaussian 16 at Tue Sep 21 18:49:44 2021.
