 Gaussian 16, Revision A.03,
 Gaussian 16:  ES64L-G16RevA.03 25-Dec-2016

 ----------------------------------------------------------
 #p cam-b3lyp/Def2SVP td=(nstates=5) density=(transition=1)
 ----------------------------------------------------------

 --------------------------------
 TDDFT excited states in gaussian
 --------------------------------
 Symbolic Z-matrix:
 Charge =  0 Multiplicity = 1

                         Standard orientation:
 ---------------------------------------------------------------------
 Center     Atomic      Atomic             Coordinates (Angstroms)
 Number     Number       Type             X           Y           Z
 ---------------------------------------------------------------------
      1         12           0        9.805507    0.748430   -0.086976
      2          6           0        8.385898   -1.873637   -1.967946
      3          6           0        7.548374    2.844349   -1.542873
      4          6           0       10.650661    3.090175    2.254690
      5          6           0       11.660378   -1.770830    1.619716
      6          7           0        8.031940    0.471178   -1.508036
      7          6           0        7.713945   -0.613840   -2.273586
      8          6           0        6.461008   -0.373701   -3.133449
      9          6           0        6.557270    1.229686   -3.182473
     10          6           0        7.440646    1.544283   -2.000835
     11          6           0        7.131843    1.830384   -4.493411
     12          6           0        5.094666   -0.850807   -2.463481
     13          6           0        3.910523   -1.177587   -3.360211
     14          1           0        2.645206   -0.294723   -3.405492
     15          7           0        9.241008    2.776327    0.351851
     16          6           0        8.397087    3.458876   -0.475280
     17          6           0        8.381853    4.819925   -0.165711
     18          6           0        9.305114    4.960677    0.937900
     19          6           0        9.774404    3.587376    1.276665
     20          6           0        7.565587    5.876688   -0.900129
     21          6           0        9.625372    6.298856    1.564622
     22          8           0        9.082804    7.340849    1.114529
     23          6           0       10.696556    6.497274    2.694188
     24          7           0       10.973213    0.614901    1.630056
     25          6           0       11.207529    1.762159    2.435480
     26          6           0       12.348718    1.501697    3.378956
     27          6           0       12.446492   -0.037825    3.446582
     28          6           0       11.729379   -0.451300    2.128387
     29          6           0       13.760422    2.034194    3.044402
     30          6           0       11.658371   -0.649149    4.721429
     31          6           0       12.374245   -0.697888    6.062843
     32          7           0       10.109424   -1.372186   -0.299546
     33          6           0       10.888909   -2.240498    0.449891
     34          6           0       10.728041   -3.551736    0.043509
     35          6           0        9.765185   -3.472977   -0.977235
     36          6           0        9.406811   -2.122496   -1.125708
     37          6           0       11.452611   -4.728405    0.617043
     38          6           0        9.119222   -4.194688   -1.941750
     39          8           0        9.262792   -5.352392   -2.282198
     40          6           0        8.018739   -3.235214   -2.441519
     41          6           0        6.742862   -3.785472   -1.877484
     42          8           0        6.542714   -3.949122   -0.714198
     43          8           0        5.873801   -4.143138   -2.909787
     44          6           0        4.720634   -4.823972   -2.432667
     45          1           0        6.994157    3.583609   -2.125345
     46          1           0       11.110278    3.840702    2.901858
     47          1           0       12.361835   -2.460569    2.093239
     48          1           0        6.593644   -0.701270   -4.164027
     49          1           0        5.535437    1.599619   -3.102869
     50          1           0        6.229461    2.112134   -5.036746
     51          1           0        7.672235    1.091517   -5.085029
     52          1           0        7.724828    2.724296   -4.299355
     53          1           0        4.703107   -0.074464   -1.806089
     54          1           0        5.350163   -1.679862   -1.803205
     55          1           0        3.622162   -2.184265   -3.054182
     56          1           0        4.292328   -1.260008   -4.377695
     57          1           0        7.979833    6.874920   -1.045585
     58          1           0        6.671624    5.834596   -0.278344
     59          1           0        7.411637    5.573056   -1.935625
     60          1           0       11.678417    6.214082    2.315875
     61          1           0       10.316118    5.853363    3.486882
     62          1           0       10.716968    7.477271    3.170751
     63          1           0       12.024290    1.860278    4.355282
     64          1           0       13.478978   -0.386174    3.475921
     65          1           0       14.504033    1.268821    2.822952
     66          1           0       14.006041    2.911104    3.643763
     67          1           0       13.633343    2.503365    2.068914
     68          1           0       11.452158   -1.651461    4.346542
     69          1           0       10.717933   -0.122421    4.884496
     70          1           0       11.747254   -0.226382    6.819108
     71          1           0       13.316906   -0.155275    5.986461
     72          1           0       12.529433   -1.725212    6.393443
     73          1           0       10.686794   -5.471743    0.836661
     74          1           0       11.931525   -4.503628    1.570849
     75          1           0       12.165795   -5.168602   -0.080089
     76          1           0        8.003591   -3.279230   -3.529980
     77          1           0        4.897038   -5.899085   -2.451850
     78          1           0        3.862116   -4.745411   -3.100742
     79          1           0        4.454257   -4.530445   -1.418727
     80         12           0       -9.817834    0.160629   -0.028832
     81          6           0       -6.906870   -1.924404   -0.010964
     82          6           0       -8.010509    2.588691   -1.651175
     83          6           0      -12.354505    2.363742    0.316721
     84          6           0      -11.169495   -1.981770    2.425653
     85          7           0       -7.714792    0.280161   -0.742766
     86          6           0       -6.703754   -0.693067   -0.708104
     87          6           0       -5.497166   -0.177136   -1.449488
     88          6           0       -5.750821    1.389259   -1.461301
     89          6           0       -7.285608    1.448307   -1.205988
     90          6           0       -4.915224    2.022274   -0.292144
     91          6           0       -5.247671   -0.872239   -2.834379
     92          6           0       -3.845411   -1.181602   -2.999456
     93          1           0       -3.510740   -2.202221   -4.199897
     94          7           0      -10.117829    2.136007   -0.779504
     95          6           0       -9.273455    2.932292   -1.446030
     96          6           0       -9.957090    4.127930   -1.833206
     97          6           0      -11.214132    4.110625   -1.266269
     98          6           0      -11.330388    2.761637   -0.541940
     99          6           0       -9.232473    5.298095   -2.571275
    100          6           0      -12.354797    5.140355   -1.400237
    101          8           0      -13.379908    4.960302   -0.793039
    102          6           0      -12.232541    6.310750   -2.347298
    103          7           0      -11.388273    0.288453    1.421150
    104          6           0      -12.372882    1.251178    1.227995
    105          6           0      -13.592395    0.930862    2.029626
    106          6           0      -13.227701   -0.483464    2.697954
    107          6           0      -11.872058   -0.794430    2.108612
    108          6           0      -13.975355    2.018861    2.975073
    109          6           0      -14.286158   -1.702172    2.499316
    110          6           0      -14.904193   -2.291146    3.705336
    111          7           0       -9.244504   -1.626039    0.995150
    112          6           0       -9.921857   -2.341525    1.956663
    113          6           0       -9.091211   -3.580076    2.286600
    114          6           0       -7.954432   -3.518087    1.455862
    115          6           0       -8.069721   -2.282577    0.727309
    116          6           0       -9.469824   -4.624633    3.345414
    117          6           0       -6.698286   -4.162971    1.219870
    118          8           0       -6.228172   -5.221247    1.695107
    119          6           0       -5.885316   -3.084768    0.392321
    120          6           0       -5.199856   -3.880293   -0.759022
    121          8           0       -5.672272   -3.867224   -1.910498
    122          8           0       -4.052499   -4.444717   -0.308729
    123          6           0       -3.521074   -5.367497   -1.369938
    124          1           0       -7.524201    3.269512   -2.353440
    125          1           0      -13.196031    3.051502    0.429033
    126          1           0      -11.545625   -2.753028    3.100843
    127          1           0       -4.651314   -0.334849   -0.780721
    128          1           0       -5.438395    1.842011   -2.401645
    129          1           0       -5.333135    1.831146    0.695938
    130          1           0       -4.803834    3.089400   -0.479575
    131          1           0       -3.907328    1.607433   -0.318457
    132          1           0       -5.422289   -0.108733   -3.592822
    133          1           0       -5.918126   -1.716898   -2.994709
    134          1           0       -3.467365   -1.756375   -2.153817
    135          1           0       -3.319999   -0.239222   -3.156209
    136          1           0       -9.851058    5.444710   -3.456644
    137          1           0       -8.219893    5.073210   -2.905912
    138          1           0       -9.165422    6.164921   -1.913977
    139          1           0      -13.091705    6.974304   -2.248513
    140          1           0      -12.225518    5.723326   -3.265389
    141          1           0      -11.294600    6.822815   -2.132652
    142          1           0      -14.352010    0.798075    1.259041
    143          1           0      -13.147531   -0.306765    3.770256
    144          1           0      -14.894055    2.428076    2.556707
    145          1           0      -13.277906    2.856332    2.966248
    146          1           0      -14.105982    1.715169    4.013983
    147          1           0      -13.651510   -2.483151    2.080604
    148          1           0      -15.002899   -1.395175    1.738818
    149          1           0      -14.621779   -3.337096    3.822198
    150          1           0      -15.930598   -2.264945    3.341001
    151          1           0      -14.818963   -1.655627    4.587841
    152          1           0       -8.963999   -4.312356    4.258362
    153          1           0       -9.146293   -5.629819    3.075343
    154          1           0      -10.555711   -4.662148    3.432588
    155          1           0       -5.168497   -2.707721    1.120498
    156          1           0       -4.070041   -6.302317   -1.482098
    157          1           0       -2.467832   -5.625554   -1.264431
    158          1           0       -3.546951   -4.790720   -2.294689
 ---------------------------------------------------------------------

 SCF Done:  E(RCAM-B3LYP) =  -4069.75428844     A.U. after   17 cycles

 Excitation energies and oscillator strengths:

 Excited State   1:      Singlet-A      1.7051 eV  727.13 nm  f=0.2240  <S**2>=0.000
     309 -> 316       -0.17718
     311 -> 313        0.65375
     312 -> 314        0.19626
     309 <- 316       -0.10358
 This state for optimization and/or second-order correction.
 Total Energy, E(TD-HF/TD-DFT) =  -4069.69162668
 Copying the excited state density for this state as the 1-particle RhoCI density.

 Excited State   2:      Singlet-A      1.7201 eV  720.82 nm  f=0.5162  <S**2>=0.000
     310 -> 315        0.18001
     311 -> 313       -0.19570
     312 -> 314        0.65350
     310 <- 315        0.10270

 Excited State   3:      Singlet-A      2.1430 eV  578.56 nm  f=0.1328  <S**2>=0.000
     309 -> 313        0.65037
     311 -> 316        0.26002

 Excited State   4:      Singlet-A      2.2689 eV  546.46 nm  f=0.0058  <S**2>=0.000
     310 -> 314        0.54872
     312 -> 315       -0.43698

 Excited State   5:      Singlet-A      2.3913 eV  518.48 nm  f=0.0000  <S**2>=0.000
     312 -> 313        0.70702

 The electronic state is 1-A.
 Alpha  occ. eigenvalues --  -46.90347 -46.89441 -19.26200 -19.25413 -19.20941
 Alpha  occ. eigenvalues --  -19.19793 -19.19491 -19.18758 -19.18122 -19.17929
 Alpha  occ. eigenvalues --  -14.43215 -14.42702 -14.42283 -14.41921 -14.39857
 Alpha  occ. eigenvalues --  -14.39375 -14.39238 -14.39163 -10.39754 -10.39718
 Alpha  occ. eigenvalues --  -10.35681 -10.35070 -10.34919 -10.33383 -10.32430
 Alpha  occ. eigenvalues --  -10.32367 -10.31668 -10.31594 -10.31387 -10.31315
 Alpha  occ. eigenvalues --  -10.31214 -10.31006 -10.30972 -10.30944 -10.30753
 Alpha  occ. eigenvalues --  -10.30488 -10.30262 -10.29982 -10.29280 -10.29183
 Alpha  occ. eigenvalues --  -10.29147 -10.29014 -10.28988 -10.28776 -10.28673
 Alpha  occ. eigenvalues --  -10.28632 -10.28358 -10.28327 -10.28249 -10.28184
 Alpha  occ. eigenvalues --  -10.28162 -10.28140 -10.28104 -10.28096 -10.28050
 Alpha  occ. eigenvalues --  -10.27999 -10.27896 -10.27864 -10.27813 -10.27698
 Alpha  occ. eigenvalues --  -10.27582 -10.27478 -10.27450 -10.27403 -10.27385
 Alpha  occ. eigenvalues --  -10.27354 -10.27018 -10.26937 -10.26645 -10.26507
 Alpha  occ. eigenvalues --  -10.26505 -10.26429 -10.26409 -10.26394 -10.26304
 Alpha  occ. eigenvalues --  -10.26273 -10.26099 -10.25951 -10.25905 -10.25879
 Alpha  occ. eigenvalues --  -10.25670 -10.25359 -10.25152 -10.25023 -10.24939
 Alpha  occ. eigenvalues --  -10.24198  -3.18639  -3.17778  -1.93538  -1.93087
 Alpha  occ. eigenvalues --   -1.92937  -1.92675  -1.92221  -1.92080  -1.17660
 Alpha  occ. eigenvalues --   -1.16083  -1.11741  -1.10068  -1.09532  -1.07859
 Alpha  occ. eigenvalues --   -1.07366  -1.07164  -1.05795  -1.04685  -1.04093
 Alpha  occ. eigenvalues --   -1.03958  -1.03045  -1.02708  -1.01946  -1.01443
 Alpha  occ. eigenvalues --   -0.94374  -0.91232  -0.89013  -0.88965  -0.88760
 Alpha  occ. eigenvalues --   -0.88710  -0.88705  -0.88191  -0.87598  -0.87512
 Alpha  occ. eigenvalues --   -0.87255  -0.87137  -0.85952  -0.85479  -0.84427
 Alpha  occ. eigenvalues --   -0.84426  -0.83797  -0.83662  -0.82955  -0.82622
 Alpha  occ. eigenvalues --   -0.82525  -0.81923  -0.80729  -0.80688  -0.80485
 Alpha  occ. eigenvalues --   -0.80389  -0.78222  -0.78108  -0.77548  -0.77419
 Alpha  occ. eigenvalues --   -0.77001  -0.76555  -0.75995  -0.75736  -0.75495
 Alpha  occ. eigenvalues --   -0.74933  -0.73647  -0.72293  -0.72180  -0.71446
 Alpha  occ. eigenvalues --   -0.69527  -0.68808  -0.68505  -0.68478  -0.67867
 Alpha  occ. eigenvalues --   -0.67428  -0.67205  -0.66406  -0.66353  -0.65404
 Alpha  occ. eigenvalues --   -0.65131  -0.64973  -0.64785  -0.64448  -0.64306
 Alpha  occ. eigenvalues --   -0.64257  -0.62842  -0.62063  -0.60567  -0.60192
 Alpha  occ. eigenvalues --   -0.59925  -0.59648  -0.59224  -0.59130  -0.59060
 Alpha  occ. eigenvalues --   -0.58440  -0.58248  -0.58100  -0.57432  -0.57109
 Alpha  occ. eigenvalues --   -0.56544  -0.55987  -0.55814  -0.55582  -0.55336
 Alpha  occ. eigenvalues --   -0.55125  -0.55067  -0.54349  -0.54016  -0.53987
 Alpha  occ. eigenvalues --   -0.53887  -0.53591  -0.53572  -0.53227  -0.52987
 Alpha  occ. eigenvalues --   -0.52825  -0.52744  -0.52641  -0.52608  -0.52474
 Alpha  occ. eigenvalues --   -0.52326  -0.51923  -0.51864  -0.51486  -0.51262
 Alpha  occ. eigenvalues --   -0.51257  -0.50857  -0.50657  -0.50554  -0.50429
 Alpha  occ. eigenvalues --   -0.50218  -0.50178  -0.50124  -0.49870  -0.49773
 Alpha  occ. eigenvalues --   -0.49518  -0.49389  -0.49131  -0.49042  -0.48949
 Alpha  occ. eigenvalues --   -0.48846  -0.48652  -0.48477  -0.48215  -0.48009
 Alpha  occ. eigenvalues --   -0.47984  -0.47861  -0.47447  -0.47387  -0.47273
 Alpha  occ. eigenvalues --   -0.47039  -0.46638  -0.46619  -0.46554  -0.46441
 Alpha  occ. eigenvalues --   -0.46378  -0.46239  -0.46100  -0.46062  -0.45867
 Alpha  occ. eigenvalues --   -0.45828  -0.45386  -0.45330  -0.45109  -0.44747
 Alpha  occ. eigenvalues --   -0.44641  -0.44626  -0.44567  -0.44360  -0.44100
 Alpha  occ. eigenvalues --   -0.43882  -0.43808  -0.43760  -0.43474  -0.43363
 Alpha  occ. eigenvalues --   -0.43298  -0.43162  -0.43037  -0.42972  -0.42862
 Alpha  occ. eigenvalues --   -0.42624  -0.42529  -0.42384  -0.42225  -0.42019
 Alpha  occ. eigenvalues --   -0.41941  -0.41590  -0.41477  -0.41368  -0.41236
 Alpha  occ. eigenvalues --   -0.41142  -0.41062  -0.40785  -0.40528  -0.40332
 Alpha  occ. eigenvalues --   -0.40248  -0.39848  -0.39449  -0.38852  -0.38574
 Alpha  occ. eigenvalues --   -0.38525  -0.37868  -0.37838  -0.37684  -0.37286
 Alpha  occ. eigenvalues --   -0.37163  -0.37105  -0.37000  -0.36972  -0.36610
 Alpha  occ. eigenvalues --   -0.36158  -0.35523  -0.35089  -0.34837  -0.34023
 Alpha  occ. eigenvalues --   -0.33836  -0.33444  -0.33110  -0.31739  -0.31479
 Alpha  occ. eigenvalues --   -0.31402  -0.30639  -0.30475  -0.30088  -0.30072
 Alpha  occ. eigenvalues --   -0.29958  -0.29558  -0.29340  -0.24355  -0.24262
 Alpha  occ. eigenvalues --   -0.22071  -0.20212
 Alpha virt. eigenvalues --   -0.09626  -0.07582  -0.02520  -0.02514  -0.00114
 Alpha virt. eigenvalues --   -0.00003   0.01387   0.01803   0.02393   0.02566
 Alpha virt. eigenvalues --    0.04254   0.04809   0.05119   0.05423   0.05466

 Mulliken charges:
               1
     1  Mg  12.000019
     2  C    6.001336
     3  C    5.968585
     4  C    5.987666
     5  C    6.034447
     6  N    6.988584
     7  C    5.968470
     8  C    6.011359
     9  C    5.988098
    10  C    6.038839
    11  C    5.996556
    12  C    6.001857
    13  C    6.002035
    14  H    0.988564
    15  N    6.990188
    16  C    6.048505
    17  C    6.016048
    18  C    6.014150
    19  C    6.039820
    20  C    5.998451
    21  C    6.009366
    22  O    8.024536
    23  C    5.998893
    24  N    7.014687
    25  C    6.028225
    26  C    5.988865
    27  C    6.007515
    28  C    5.958491
    29  C    6.002813
    30  C    6.001586
    31  C    5.999647
    32  N    7.001830
    33  C    5.957462
    34  C    5.979609
    35  C    5.990851
    36  C    5.978604
    37  C    6.003782
    38  C    5.983429
    39  O    7.965830
    40  C    6.005559
    41  C    5.995205
    42  O    7.996500
    43  O    7.997027
    44  C    6.004125
    45  H    1.003591
    46  H    1.010743
    47  H    0.996459
    48  H    0.998406
    49  H    1.001879
    50  H    1.004059
    51  H    1.011949
    52  H    0.992756
    53  H    0.987680
    54  H    1.005897
    55  H    1.001445
    56  H    0.998535
    57  H    1.014555
    58  H    1.016874
    59  H    1.019912
    60  H    1.009544
    61  H    1.007848
    62  H    1.013836
    63  H    1.001836
    64  H    1.000083
    65  H    1.013652
    66  H    1.001076
    67  H    0.997581
    68  H    1.007192
    69  H    0.989716
    70  H    0.995793
    71  H    0.995854
    72  H    1.002383
    73  H    0.985004
    74  H    0.980096
    75  H    0.982126
    76  H    0.988670
    77  H    0.997009
    78  H    0.992715
    79  H    0.995233
    80  Mg  12.000855
    81  C    5.993101
    82  C    6.003339
    83  C    6.009002
    84  C    5.995345
    85  N    6.995998
    86  C    6.010094
    87  C    5.998201
    88  C    6.004249
    89  C    5.989461
    90  C    6.001352
    91  C    5.998629
    92  C    5.999537
    93  H    1.001390
    94  N    7.005233
    95  C    5.989396
    96  C    5.995010
    97  C    5.996021
    98  C    5.986365
    99  C    6.000462
   100  C    5.996728
   101  O    7.993196
   102  C    6.000426
   103  N    7.001536
   104  C    5.986633
   105  C    6.004183
   106  C    5.995413
   107  C    6.009807
   108  C    6.000525
   109  C    5.999425
   110  C    5.999308
   111  N    6.998166
   112  C    6.012411
   113  C    6.010137
   114  C    5.999723
   115  C    6.010260
   116  C    5.999402
   117  C    6.004658
   118  O    8.008623
   119  C    5.999539
   120  C    6.001346
   121  O    8.002385
   122  O    7.999828
   123  C    5.998780
   124  H    0.996542
   125  H    0.998520
   126  H    1.002366
   127  H    0.999125
   128  H    0.998530
   129  H    0.997239
   130  H    0.999300
   131  H    0.996153
   132  H    1.003143
   133  H    0.998908
   134  H    0.999238
   135  H    1.001267
   136  H    0.995957
   137  H    0.995014
   138  H    0.994793
   139  H    0.995932
   140  H    0.998551
   141  H    0.998219
   142  H    0.999804
   143  H    1.001555
   144  H    0.999814
   145  H    1.000914
   146  H    0.996559
   147  H    0.998379
   148  H    1.003049
   149  H    0.999279
   150  H    1.001629
   151  H    1.001072
   152  H    1.005900
   153  H    1.005427
   154  H    1.005239
   155  H    1.002265
   156  H    1.000236
   157  H    1.003091
   158  H    1.001508
 Sum of Mulliken charges = 624.00000

 Dipole moment (field-independent basis, Debye):
    X=              0.3287    Y=              7.6630    Z=              3.2323  Tot=              8.3233
 Quadrupole moment (field-independent basis, Debye-Ang):
   XX=            -19.8186   YY=             13.8775   ZZ=              0.2846
   XY=            125.2382   XZ=              7.4179   YZ=             -0.1397

 Normal termination of Gaussian 16 at Wed Sep 22 13:02:02 2021.
