 Gaussian 16, Revision A.03,
 Gaussian 16:  ES64L-G16RevA.03 25-Dec-2016

 -----------------------------------
 #p cam-b3lyp/Def2SVP td=(nstates=5)
 -----------------------------------

 --------------------------------
 TDDFT excited states in gaussian
 --------------------------------
 Symbolic Z-matrix:
 Charge =  0 Multiplicity = 1

                         Standard orientation:
 ---------------------------------------------------------------------
 Center     Atomic      Atomic             Coordinates (Angstroms)
 Number     Number       Type             X           Y           Z
 ---------------------------------------------------------------------
      1         12           0      -29.739059    0.269099    0.352556
      2          6           0      -28.083729   -2.317837   -1.187400
      3          6           0      -29.572086    2.061706   -2.716370
      4          6           0      -30.865990    3.085963    1.844191
      5          6           0      -29.595911   -1.288033    3.319960
      6          7           0      -28.910039   -0.098586   -1.719564
      7          6           0      -28.262586   -1.251574   -2.074225
      8          6           0      -27.919252   -1.253137   -3.565553
      9          6           0      -28.246140    0.264082   -3.947069
     10          6           0      -28.950137    0.786548   -2.729046
     11          6           0      -26.994233    1.096385   -4.409346
     12          6           0      -28.777362   -2.293948   -4.420034
     13          6           0      -28.166889   -3.170610   -5.486887
     14          1           0      -27.246424   -2.546425   -6.474662
     15          7           0      -30.224450    2.312346   -0.329731
     16          6           0      -30.257337    2.764293   -1.602664
     17          6           0      -30.864711    4.050373   -1.683574
     18          6           0      -31.289674    4.371623   -0.355851
     19          6           0      -30.721613    3.252852    0.454085
     20          6           0      -30.891042    4.747924   -3.005220
     21          6           0      -31.932094    5.650303    0.154252
     22          8           0      -31.997531    5.923581    1.356798
     23          6           0      -32.506694    6.660503   -0.823275
     24          7           0      -30.039047    0.895606    2.365881
     25          6           0      -30.635608    2.068942    2.704140
     26          6           0      -30.990448    2.085602    4.190021
     27          6           0      -30.731888    0.588585    4.609381
     28          6           0      -30.089596    0.016957    3.360837
     29          6           0      -30.379844    3.144778    5.154647
     30          6           0      -31.979023   -0.225935    5.153090
     31          6           0      -32.820738   -1.059595    4.210289
     32          7           0      -28.925299   -1.381308    0.997922
     33          6           0      -29.034953   -2.022320    2.205795
     34          6           0      -28.353953   -3.264761    2.248288
     35          6           0      -27.998994   -3.456802    0.916750
     36          6           0      -28.387938   -2.297671    0.197218
     37          6           0      -28.118050   -4.287797    3.351777
     38          6           0      -27.371919   -4.307936    0.003252
     39          8           0      -26.826089   -5.374126    0.220183
     40          6           0      -27.351853   -3.616721   -1.473418
     41          6           0      -25.959126   -3.460370   -1.874311
     42          8           0      -25.115969   -2.727831   -1.319823
     43          8           0      -25.606457   -4.249158   -2.923734
     44          6           0      -24.182321   -4.431589   -3.225910
     45          1           0      -29.538865    2.476191   -3.725732
     46          1           0      -31.485720    3.862777    2.296446
     47          1           0      -29.853283   -1.956759    4.143097
     48          1           0      -26.881837   -1.570572   -3.678417
     49          1           0      -28.908905    0.322790   -4.810597
     50          1           0      -27.187888    1.448531   -5.421974
     51          1           0      -26.151787    0.416628   -4.280442
     52          1           0      -26.834724    2.033908   -3.875839
     53          1           0      -29.508112   -1.631033   -4.883668
     54          1           0      -29.437378   -2.875831   -3.777556
     55          1           0      -28.945167   -3.751516   -5.981743
     56          1           0      -27.503918   -3.851848   -4.954738
     57          1           0      -31.903856    5.139760   -3.091488
     58          1           0      -30.767019    4.035808   -3.821447
     59          1           0      -30.164947    5.549863   -3.142859
     60          1           0      -33.070690    6.214168   -1.642828
     61          1           0      -31.740709    7.390829   -1.087609
     62          1           0      -33.247825    7.203740   -0.236219
     63          1           0      -32.040369    2.379219    4.186003
     64          1           0      -30.095225    0.501078    5.488980
     65          1           0      -29.666675    2.673066    5.830495
     66          1           0      -31.211632    3.538183    5.738756
     67          1           0      -29.920129    3.895925    4.513294
     68          1           0      -32.638721    0.501545    5.624073
     69          1           0      -31.653894   -0.924769    5.924150
     70          1           0      -33.881133   -0.820370    4.293894
     71          1           0      -32.703939   -2.134433    4.355033
     72          1           0      -32.456033   -0.804823    3.215193
     73          1           0      -28.620414   -3.953383    4.260276
     74          1           0      -27.045388   -4.400583    3.511188
     75          1           0      -28.528855   -5.244023    3.029008
     76          1           0      -27.806895   -4.413857   -2.062021
     77          1           0      -23.958051   -5.346988   -3.773667
     78          1           0      -23.501903   -4.293230   -2.386213
     79          1           0      -23.962978   -3.685398   -3.989735
     80         12           0       29.542003    0.568865   -0.293289
     81          6           0       28.015886   -2.390057    0.649727
     82          6           0       26.551105    2.236273    0.194598
     83          6           0       31.247114    3.476516   -0.474939
     84          6           0       32.556276   -1.258953   -0.397648
     85          7           0       27.575510    0.021830    0.629715
     86          6           0       27.184616   -1.251711    0.730296
     87          6           0       25.718756   -1.320548    1.259637
     88          6           0       25.177764    0.128588    0.845176
     89          6           0       26.514545    0.864685    0.449162
     90          6           0       24.059193    0.071821   -0.223039
     91          6           0       25.707499   -1.473814    2.763564
     92          6           0       24.663293   -2.430903    3.316939
     93          1           0       23.890258   -2.164714    4.663301
     94          7           0       28.891547    2.602254   -0.324744
     95          6           0       27.675957    3.101442   -0.042057
     96          6           0       27.747645    4.518533   -0.193304
     97          6           0       29.071501    4.902815   -0.565617
     98          6           0       29.824139    3.643564   -0.508447
     99          6           0       26.530266    5.366727   -0.163798
    100          6           0       29.519932    6.312745   -0.718671
    101          8           0       28.715917    7.225408   -0.626334
    102          6           0       30.964091    6.658834   -1.061029
    103          7           0       31.697039    1.032477   -0.510972
    104          6           0       32.083247    2.338776   -0.484797
    105          6           0       33.566282    2.447482   -0.338534
    106          6           0       33.974667    0.899058   -0.307425
    107          6           0       32.696347    0.116743   -0.479647
    108          6           0       34.261162    3.299695   -1.416947
    109          6           0       34.817962    0.425366    0.958043
    110          6           0       36.143972   -0.349459    0.773756
    111          7           0       30.180737   -1.374564    0.016294
    112          6           0       31.394354   -1.969062   -0.131883
    113          6           0       31.245700   -3.355704   -0.183437
    114          6           0       29.912552   -3.621179    0.097027
    115          6           0       29.325823   -2.394574    0.282945
    116          6           0       32.417623   -4.362750   -0.373806
    117          6           0       28.947187   -4.605232    0.255679
    118          8           0       29.105334   -5.820602    0.287625
    119          6           0       27.575811   -3.893562    0.688060
    120          6           0       26.557775   -4.068150   -0.284067
    121          8           0       26.385337   -3.527715   -1.379189
    122          8           0       25.688641   -5.020648    0.239013
    123          6           0       24.516437   -5.447133   -0.505902
    124          1           0       25.583031    2.741076    0.193834
    125          1           0       31.928370    4.327263   -0.549101
    126          1           0       33.529209   -1.733383   -0.542520
    127          1           0       25.231807   -2.170431    0.782235
    128          1           0       24.843819    0.735168    1.686361
    129          1           0       23.902276   -0.941848   -0.591231
    130          1           0       24.314689    0.732094   -1.052424
    131          1           0       23.155566    0.480870    0.228302
    132          1           0       25.638554   -0.566233    3.363611
    133          1           0       26.726692   -1.770437    3.011213
    134          1           0       25.131266   -3.414880    3.341492
    135          1           0       23.942449   -2.447444    2.499514
    136          1           0       26.307722    5.500216   -1.222291
    137          1           0       26.714061    6.313783    0.343916
    138          1           0       25.689318    4.893794    0.343507
    139          1           0       31.513067    6.587973   -0.121915
    140          1           0       30.961649    7.722869   -1.296248
    141          1           0       31.344767    6.001572   -1.842711
    142          1           0       33.623216    2.915085    0.643893
    143          1           0       34.676480    0.653880   -1.104596
    144          1           0       34.540603    4.231597   -0.924337
    145          1           0       33.632275    3.476024   -2.290205
    146          1           0       35.186990    2.811650   -1.720533
    147          1           0       34.185553   -0.222978    1.564345
    148          1           0       35.149016    1.256225    1.581471
    149          1           0       35.755644   -1.367826    0.765852
    150          1           0       36.780705   -0.224296    1.648587
    151          1           0       36.671448   -0.314900   -0.179397
    152          1           0       32.987148   -4.406725    0.553651
    153          1           0       33.166376   -4.092939   -1.118822
    154          1           0       32.040413   -5.361702   -0.594434
    155          1           0       27.333937   -4.294431    1.672509
    156          1           0       24.329501   -6.485861   -0.235249
    157          1           0       24.557975   -5.267787   -1.580573
    158          1           0       23.658181   -4.913630   -0.097158
 ---------------------------------------------------------------------

 SCF Done:  E(RCAM-B3LYP) =  -4069.81122596     A.U. after   16 cycles

 Excitation energies and oscillator strengths:

 Excited State   1:      Singlet-A      1.6990 eV  729.75 nm  f=0.3964  <S**2>=0.000
     309 -> 315       -0.18510
     311 -> 313        0.68485
     309 <- 315       -0.10998
 This state for optimization and/or second-order correction.
 Total Energy, E(TD-HF/TD-DFT) =  -4069.74878896
 Copying the excited state density for this state as the 1-particle RhoCI density.

 Excited State   2:      Singlet-A      1.7199 eV  720.86 nm  f=0.4220  <S**2>=0.000
     310 -> 316        0.17812
     312 -> 314        0.68654
     310 <- 316        0.10694

 Excited State   3:      Singlet-A      2.1905 eV  566.01 nm  f=0.1754  <S**2>=0.000
     310 -> 314        0.66248
     312 -> 316       -0.23744

 Excited State   4:      Singlet-A      2.2279 eV  556.51 nm  f=0.1004  <S**2>=0.000
     309 -> 313        0.63673
     311 -> 315        0.29382

 Excited State   5:      Singlet-A      3.1840 eV  389.40 nm  f=0.0000  <S**2>=0.000
     312 -> 313        0.70711

 The electronic state is 1-A.
 Alpha  occ. eigenvalues --  -46.89693 -46.89113 -19.25086 -19.24643 -19.20196
 Alpha  occ. eigenvalues --  -19.19250 -19.18879 -19.18605 -19.18540 -19.18358
 Alpha  occ. eigenvalues --  -14.42355 -14.42141 -14.42024 -14.41548 -14.39810
 Alpha  occ. eigenvalues --  -14.39586 -14.39508 -14.39205 -10.39626 -10.38950
 Alpha  occ. eigenvalues --  -10.35368 -10.35234 -10.34626 -10.34533 -10.31634
 Alpha  occ. eigenvalues --  -10.31586 -10.31549 -10.31399 -10.31313 -10.31147
 Alpha  occ. eigenvalues --  -10.31080 -10.30909 -10.30883 -10.30434 -10.30134
 Alpha  occ. eigenvalues --  -10.30080 -10.30058 -10.29888 -10.29779 -10.29443
 Alpha  occ. eigenvalues --  -10.29016 -10.28835 -10.28723 -10.28586 -10.28505
 Alpha  occ. eigenvalues --  -10.28462 -10.28364 -10.28342 -10.28333 -10.28319
 Alpha  occ. eigenvalues --  -10.28281 -10.28180 -10.28178 -10.28013 -10.28007
 Alpha  occ. eigenvalues --  -10.27981 -10.27817 -10.27801 -10.27765 -10.27689
 Alpha  occ. eigenvalues --  -10.27506 -10.27464 -10.27376 -10.27321 -10.27044
 Alpha  occ. eigenvalues --  -10.26918 -10.26873 -10.26862 -10.26800 -10.26612
 Alpha  occ. eigenvalues --  -10.26609 -10.26535 -10.26425 -10.26238 -10.26184
 Alpha  occ. eigenvalues --  -10.26072 -10.26070 -10.26035 -10.25903 -10.25855
 Alpha  occ. eigenvalues --  -10.25718 -10.25213 -10.25046 -10.24911 -10.24854
 Alpha  occ. eigenvalues --  -10.24627  -3.18016  -3.17722  -1.92929  -1.92605
 Alpha  occ. eigenvalues --   -1.92466  -1.92309  -1.92138  -1.92071  -1.15869
 Alpha  occ. eigenvalues --   -1.15751  -1.10037  -1.09993  -1.09898  -1.09464
 Alpha  occ. eigenvalues --   -1.07528  -1.05863  -1.05516  -1.05382  -1.04648
 Alpha  occ. eigenvalues --   -1.04161  -1.04089  -1.03867  -1.03487  -1.02617
 Alpha  occ. eigenvalues --   -0.93904  -0.92622  -0.89484  -0.89159  -0.89029
 Alpha  occ. eigenvalues --   -0.88410  -0.88264  -0.88208  -0.87901  -0.87789
 Alpha  occ. eigenvalues --   -0.87425  -0.86885  -0.86430  -0.86200  -0.85432
 Alpha  occ. eigenvalues --   -0.84649  -0.84292  -0.83774  -0.83058  -0.82691
 Alpha  occ. eigenvalues --   -0.82263  -0.81849  -0.81490  -0.81174  -0.80806
 Alpha  occ. eigenvalues --   -0.80331  -0.78397  -0.78189  -0.77622  -0.77486
 Alpha  occ. eigenvalues --   -0.77108  -0.76573  -0.76517  -0.76260  -0.75501
 Alpha  occ. eigenvalues --   -0.75186  -0.73550  -0.73521  -0.72399  -0.71554
 Alpha  occ. eigenvalues --   -0.69831  -0.69641  -0.69269  -0.69222  -0.68138
 Alpha  occ. eigenvalues --   -0.68132  -0.67429  -0.67137  -0.66191  -0.65924
 Alpha  occ. eigenvalues --   -0.65643  -0.65495  -0.65130  -0.64870  -0.64777
 Alpha  occ. eigenvalues --   -0.64219  -0.62714  -0.62253  -0.60510  -0.60187
 Alpha  occ. eigenvalues --   -0.59899  -0.59843  -0.59136  -0.59111  -0.59076
 Alpha  occ. eigenvalues --   -0.58303  -0.58194  -0.58005  -0.57921  -0.57301
 Alpha  occ. eigenvalues --   -0.56364  -0.56251  -0.56163  -0.55469  -0.55415
 Alpha  occ. eigenvalues --   -0.54989  -0.54887  -0.54885  -0.54384  -0.54084
 Alpha  occ. eigenvalues --   -0.53550  -0.53408  -0.53311  -0.53139  -0.52798
 Alpha  occ. eigenvalues --   -0.52664  -0.52604  -0.52345  -0.52230  -0.52097
 Alpha  occ. eigenvalues --   -0.52092  -0.52091  -0.51842  -0.51512  -0.51445
 Alpha  occ. eigenvalues --   -0.51323  -0.50766  -0.50573  -0.50389  -0.50280
 Alpha  occ. eigenvalues --   -0.50148  -0.50024  -0.49851  -0.49600  -0.49547
 Alpha  occ. eigenvalues --   -0.49449  -0.49240  -0.49101  -0.49036  -0.48998
 Alpha  occ. eigenvalues --   -0.48805  -0.48769  -0.48571  -0.48396  -0.48303
 Alpha  occ. eigenvalues --   -0.48221  -0.47833  -0.47554  -0.47543  -0.47153
 Alpha  occ. eigenvalues --   -0.46893  -0.46864  -0.46763  -0.46717  -0.46620
 Alpha  occ. eigenvalues --   -0.46529  -0.46176  -0.46137  -0.45972  -0.45967
 Alpha  occ. eigenvalues --   -0.45896  -0.45830  -0.45486  -0.45324  -0.45307
 Alpha  occ. eigenvalues --   -0.45086  -0.44998  -0.44711  -0.44528  -0.44495
 Alpha  occ. eigenvalues --   -0.43951  -0.43934  -0.43915  -0.43634  -0.43619
 Alpha  occ. eigenvalues --   -0.43401  -0.43380  -0.43221  -0.43173  -0.42972
 Alpha  occ. eigenvalues --   -0.42881  -0.42236  -0.42196  -0.42064  -0.41932
 Alpha  occ. eigenvalues --   -0.41889  -0.41845  -0.41834  -0.41527  -0.41452
 Alpha  occ. eigenvalues --   -0.41328  -0.41121  -0.41078  -0.40631  -0.40256
 Alpha  occ. eigenvalues --   -0.39998  -0.39843  -0.39738  -0.39531  -0.38520
 Alpha  occ. eigenvalues --   -0.38299  -0.38242  -0.38222  -0.37977  -0.37384
 Alpha  occ. eigenvalues --   -0.37350  -0.37277  -0.36617  -0.36281  -0.36037
 Alpha  occ. eigenvalues --   -0.35681  -0.35680  -0.34926  -0.34563  -0.34371
 Alpha  occ. eigenvalues --   -0.33626  -0.33449  -0.32890  -0.31835  -0.31343
 Alpha  occ. eigenvalues --   -0.31228  -0.31212  -0.30897  -0.30724  -0.30505
 Alpha  occ. eigenvalues --   -0.30426  -0.30101  -0.29453  -0.24559  -0.23843
 Alpha  occ. eigenvalues --   -0.21553  -0.21474
 Alpha virt. eigenvalues --   -0.09191  -0.09093  -0.02280  -0.01199  -0.00185
 Alpha virt. eigenvalues --    0.00219   0.01836   0.02329   0.02467   0.02509
 Alpha virt. eigenvalues --    0.04045   0.04634   0.04751   0.05499   0.06143

 Mulliken charges:
               1
     1  Mg   0.838548
     2  C    0.011588
     3  C   -0.053540
     4  C   -0.054126
     5  C   -0.074731
     6  N   -0.259005
     7  C   -0.044612
     8  C   -0.039972
     9  C   -0.067780
    10  C    0.025073
    11  C    0.071346
    12  C    0.050802
    13  C   -0.046903
    14  H    0.016637
    15  N   -0.276116
    16  C    0.108828
    17  C   -0.140172
    18  C   -0.038880
    19  C    0.073802
    20  C    0.126620
    21  C   -0.001529
    22  O   -0.216468
    23  C    0.046159
    24  N   -0.278518
    25  C    0.028297
    26  C   -0.031849
    27  C    0.005481
    28  C    0.043863
    29  C    0.083008
    30  C   -0.011479
    31  C    0.012524
    32  N   -0.385136
    33  C    0.091421
    34  C   -0.180244
    35  C    0.092698
    36  C    0.102458
    37  C    0.138699
    38  C   -0.042515
    39  O   -0.171698
    40  C    0.016106
    41  C    0.193110
    42  O   -0.252918
    43  O   -0.327422
    44  C    0.186369
    45  H   -0.035440
    46  H   -0.008342
    47  H   -0.023983
    48  H    0.024585
    49  H    0.018103
    50  H    0.010046
    51  H    0.028612
    52  H    0.019048
    53  H   -0.011564
    54  H    0.007807
    55  H    0.032244
    56  H    0.033341
    57  H    0.009170
    58  H    0.014684
    59  H    0.039620
    60  H    0.033216
    61  H    0.047639
    62  H    0.024847
    63  H    0.009823
    64  H    0.009928
    65  H    0.015171
    66  H    0.018536
    67  H    0.029851
    68  H    0.004411
    69  H    0.004796
    70  H    0.014806
    71  H    0.015386
    72  H    0.016064
    73  H    0.004399
    74  H    0.043823
    75  H    0.038557
    76  H    0.030563
    77  H    0.035064
    78  H    0.058260
    79  H    0.019102
    80  Mg   0.803416
    81  C   -0.053559
    82  C   -0.077648
    83  C   -0.031523
    84  C   -0.113893
    85  N   -0.266420
    86  C   -0.028533
    87  C   -0.077927
    88  C   -0.056791
    89  C    0.065572
    90  C    0.083063
    91  C    0.065132
    92  C   -0.060429
    93  H    0.028862
    94  N   -0.375688
    95  C    0.137224
    96  C   -0.161460
    97  C   -0.018973
    98  C    0.178084
    99  C    0.123841
   100  C   -0.042896
   101  O   -0.205026
   102  C    0.068035
   103  N   -0.281940
   104  C   -0.040120
   105  C   -0.032402
   106  C   -0.000410
   107  C    0.029933
   108  C    0.073853
   109  C   -0.008464
   110  C   -0.012549
   111  N   -0.343824
   112  C    0.184285
   113  C   -0.180463
   114  C    0.103184
   115  C    0.131981
   116  C    0.117898
   117  C   -0.022210
   118  O   -0.171191
   119  C   -0.002517
   120  C    0.227942
   121  O   -0.227795
   122  O   -0.357572
   123  C    0.177850
   124  H   -0.025135
   125  H   -0.050655
   126  H   -0.029535
   127  H    0.016110
   128  H    0.020252
   129  H    0.026943
   130  H    0.012897
   131  H    0.013843
   132  H    0.013076
   133  H    0.002779
   134  H    0.032692
   135  H    0.023577
   136  H    0.036655
   137  H    0.042129
   138  H    0.002287
   139  H    0.036910
   140  H    0.024998
   141  H    0.043442
   142  H    0.026538
   143  H   -0.001271
   144  H    0.020690
   145  H    0.031760
   146  H    0.017638
   147  H    0.019565
   148  H    0.006260
   149  H    0.003067
   150  H    0.024534
   151  H    0.019073
   152  H    0.024508
   153  H    0.016644
   154  H    0.037801
   155  H    0.052384
   156  H    0.038630
   157  H    0.051826
   158  H    0.019153
 Sum of Mulliken charges =  -0.00000

 Dipole moment (field-independent basis, Debye):
    X=             -1.0632    Y=              1.5458    Z=             -2.2924  Tot=              2.9622
 Quadrupole moment (field-independent basis, Debye-Ang):
   XX=           -151.4199   YY=           -575.0761   ZZ=           -483.9699
   XY=             15.6285   XZ=             85.6574   YZ=             -9.7150

 Normal termination of Gaussian 16 at Thu Sep 16 13:55:49 2021.
