 Gaussian 16, Revision A.03,
 Gaussian 16:  ES64L-G16RevA.03 25-Dec-2016

 -----------------------------------------------------
 #p cam-b3lyp/Def2SVP td=(nstates=5) density=(current)
 -----------------------------------------------------

 --------------------------------
 TDDFT excited states in gaussian
 --------------------------------
 Symbolic Z-matrix:
 Charge =  0 Multiplicity = 1

                         Standard orientation:
 ---------------------------------------------------------------------
 Center     Atomic      Atomic             Coordinates (Angstroms)
 Number     Number       Type             X           Y           Z
 ---------------------------------------------------------------------
      1         12           0       -0.735716   -0.057329   -0.226342
      2          6           0        2.757139   -0.009276    0.125706
      3          6           0       -0.642444   -3.425182    0.210915
      4          6           0       -4.000645    0.109830   -0.133139
      5          6           0       -0.539237    3.512707    0.201030
      6          7           0        0.875068   -1.506200    0.053885
      7          6           0        2.215139   -1.276128    0.188460
      8          6           0        2.873960   -2.564787    0.702910
      9          6           0        1.922876   -3.633872    0.176423
     10          6           0        0.618864   -2.815934    0.243281
     11          6           0        2.250816   -4.071940   -1.269671
     12          6           0        2.973258   -2.572075    2.273248
     13          6           0        4.431335   -2.514939    2.946999
     14          1           0        4.787316   -1.328174    3.858555
     15          7           0       -2.131658   -1.452313    0.063757
     16          6           0       -1.901649   -2.801663    0.203991
     17          6           0       -3.164034   -3.472214    0.190464
     18          6           0       -4.205480   -2.511193   -0.030013
     19          6           0       -3.487502   -1.203711   -0.038721
     20          6           0       -3.316140   -5.023639    0.351243
     21          6           0       -5.724712   -2.861311   -0.229869
     22          8           0       -6.071456   -4.000218   -0.298840
     23          6           0       -6.636746   -1.788018   -0.606094
     24          7           0       -2.085312    1.562723    0.320576
     25          6           0       -3.353570    1.359803   -0.108764
     26          6           0       -4.062987    2.642573   -0.508958
     27          6           0       -3.100741    3.727958   -0.051092
     28          6           0       -1.797235    2.889344    0.187739
     29          6           0       -4.360331    2.723893   -2.051956
     30          6           0       -3.478903    4.638600    1.210208
     31          6           0       -3.873530    6.083446    1.060999
     32          7           0        0.744636    1.469430   -0.110275
     33          6           0        0.685370    2.858775    0.058452
     34          6           0        2.005156    3.438040    0.185877
     35          6           0        2.838552    2.346607    0.187744
     36          6           0        2.064027    1.150014    0.032583
     37          6           0        2.297873    4.869922    0.361792
     38          6           0        4.232385    1.940842    0.284091
     39          8           0        5.254247    2.636536    0.334532
     40          6           0        4.245936    0.433603    0.139658
     41          6           0        5.044148    0.106974   -1.117806
     42          8           0        4.705703    0.550969   -2.212568
     43          8           0        6.212852   -0.609602   -0.816813
     44          6           0        7.033146   -0.922405   -1.956369
     45          1           0       -0.563214   -4.513920    0.196776
     46          1           0       -5.052389    0.099767   -0.423330
     47          1           0       -0.484012    4.603361    0.217998
     48          1           0        3.905981   -2.549841    0.351575
     49          1           0        1.960182   -4.483111    0.857561
     50          1           0        2.250017   -5.150431   -1.115598
     51          1           0        3.238473   -3.653961   -1.466441
     52          1           0        1.553959   -3.762026   -2.048509
     53          1           0        2.539600   -3.510531    2.618488
     54          1           0        2.319633   -1.784985    2.648397
     55          1           0        5.127861   -2.429733    2.112573
     56          1           0        4.720382   -3.418453    3.482528
     57          1           0       -4.033196   -5.394274    1.083093
     58          1           0       -2.326613   -5.386186    0.631523
     59          1           0       -3.577993   -5.519559   -0.583593
     60          1           0       -6.678710   -0.962854    0.105184
     61          1           0       -7.635723   -2.209922   -0.715959
     62          1           0       -6.453847   -1.484469   -1.635961
     63          1           0       -5.050464    2.734425   -0.055451
     64          1           0       -2.865963    4.397804   -0.878325
     65          1           0       -5.381942    2.445184   -2.309716
     66          1           0       -3.587721    2.185125   -2.600482
     67          1           0       -4.249358    3.769698   -2.342024
     68          1           0       -2.850238    4.571750    2.097481
     69          1           0       -4.382485    4.084304    1.465365
     70          1           0       -4.912690    6.279619    1.323230
     71          1           0       -3.740757    6.392348    0.023871
     72          1           0       -3.189006    6.618123    1.719119
     73          1           0        1.421893    5.333769    0.816045
     74          1           0        2.402237    5.271049   -0.646727
     75          1           0        3.229012    5.022786    0.905502
     76          1           0        4.800608    0.119371    1.022759
     77          1           0        6.665314   -1.746588   -2.568118
     78          1           0        8.048198   -1.184543   -1.659278
     79          1           0        7.179793   -0.091791   -2.646255
 ---------------------------------------------------------------------

 SCF Done:  E(RCAM-B3LYP) =  -2034.90988170     A.U. after   19 cycles

 Excitation energies and oscillator strengths:

 Excited State   1:      Singlet-A      1.7237 eV  719.29 nm  f=0.3625  <S**2>=0.000
     155 ->158         0.19179
     156 ->157         0.68302
     155 <-158         0.11117
 This state for optimization and/or second-order correction.
 Total Energy, E(TD-HF/TD-DFT) =  -2034.84653690
 Copying the excited state density for this state as the 1-particle RhoCI density.

 Excited State   2:      Singlet-A      2.2830 eV  543.07 nm  f=0.0524  <S**2>=0.000
     155 ->157         0.60477
     156 ->158        -0.35605

 Excited State   3:      Singlet-A      3.4331 eV  361.14 nm  f=0.5074  <S**2>=0.000
     152 ->157        -0.14677
     153 ->157         0.24185
     154 ->157         0.15522
     155 ->157         0.28701
     156 ->158         0.54746

 Excited State   4:      Singlet-A      3.4821 eV  356.06 nm  f=0.0199  <S**2>=0.000
     153 ->157        -0.26035
     154 ->157         0.62692

 Excited State   5:      Singlet-A      3.5067 eV  353.56 nm  f=0.0064  <S**2>=0.000
     152 ->157         0.51061
     152 ->159         0.31171
     152 ->160        -0.13024
     152 ->161         0.14382
     153 ->157         0.16238
     154 ->157         0.18887

 The electronic state is 1-A.
 Alpha  occ. eigenvalues --  -46.88700 -19.26038 -19.20593 -19.19105 -19.18774
 Alpha  occ. eigenvalues --  -14.42150 -14.42091 -14.39397 -14.39362 -10.40263
 Alpha  occ. eigenvalues --  -10.35067 -10.34579 -10.31520 -10.31148 -10.31141
 Alpha  occ. eigenvalues --  -10.30848 -10.30669 -10.30564 -10.29806 -10.29552
 Alpha  occ. eigenvalues --  -10.29306 -10.28627 -10.28424 -10.28175 -10.28090
 Alpha  occ. eigenvalues --  -10.27901 -10.27888 -10.27831 -10.27829 -10.27556
 Alpha  occ. eigenvalues --  -10.27268 -10.26941 -10.26912 -10.26888 -10.26877
 Alpha  occ. eigenvalues --  -10.26864 -10.26448 -10.26245 -10.26242 -10.26013
 Alpha  occ. eigenvalues --  -10.25708 -10.25521 -10.25149  -3.17310  -1.92184
 Alpha  occ. eigenvalues --   -1.91780  -1.91609  -1.15978  -1.11922  -1.09118
 Alpha  occ. eigenvalues --   -1.08235  -1.04796  -1.04289  -1.02872  -1.02088
 Alpha  occ. eigenvalues --   -0.93060  -0.89165  -0.88985  -0.88521  -0.87627
 Alpha  occ. eigenvalues --   -0.87120  -0.85011  -0.84621  -0.84251  -0.82600
 Alpha  occ. eigenvalues --   -0.82535  -0.81051  -0.80870  -0.78017  -0.77241
 Alpha  occ. eigenvalues --   -0.76413  -0.76326  -0.75120  -0.72901  -0.72137
 Alpha  occ. eigenvalues --   -0.69044  -0.68632  -0.68169  -0.66789  -0.65885
 Alpha  occ. eigenvalues --   -0.65612  -0.64879  -0.64470  -0.62734  -0.60263
 Alpha  occ. eigenvalues --   -0.60062  -0.59132  -0.58902  -0.58513  -0.57694
 Alpha  occ. eigenvalues --   -0.56251  -0.56087  -0.55303  -0.54989  -0.53964
 Alpha  occ. eigenvalues --   -0.53553  -0.53210  -0.53011  -0.52797  -0.52693
 Alpha  occ. eigenvalues --   -0.52203  -0.51760  -0.51026  -0.50906  -0.50472
 Alpha  occ. eigenvalues --   -0.50152  -0.49840  -0.49659  -0.49310  -0.49096
 Alpha  occ. eigenvalues --   -0.48695  -0.48349  -0.48103  -0.47528  -0.47139
 Alpha  occ. eigenvalues --   -0.46605  -0.46361  -0.46305  -0.46149  -0.45980
 Alpha  occ. eigenvalues --   -0.45439  -0.45353  -0.44453  -0.44320  -0.44168
 Alpha  occ. eigenvalues --   -0.43869  -0.43573  -0.43307  -0.43078  -0.42590
 Alpha  occ. eigenvalues --   -0.42417  -0.42148  -0.41980  -0.41741  -0.41607
 Alpha  occ. eigenvalues --   -0.41090  -0.40881  -0.40732  -0.40386  -0.40047
 Alpha  occ. eigenvalues --   -0.38979  -0.38002  -0.37477  -0.37155  -0.36698
 Alpha  occ. eigenvalues --   -0.36538  -0.34859  -0.34723  -0.33494  -0.31418
 Alpha  occ. eigenvalues --   -0.31224  -0.30958  -0.30160  -0.29664  -0.24405
 Alpha  occ. eigenvalues --   -0.21006
 Alpha virt. eigenvalues --   -0.08331  -0.02239   0.00488   0.01817   0.02729
 Alpha virt. eigenvalues --    0.04190   0.05002   0.05863   0.07093   0.08110
 Alpha virt. eigenvalues --    0.08222   0.08838   0.09425   0.09830   0.10323

 Mulliken charges:
               1
     1  Mg   0.808152
     2  C   -0.037657
     3  C   -0.098987
     4  C   -0.055352
     5  C   -0.095152
     6  N   -0.274631
     7  C   -0.056966
     8  C   -0.071549
     9  C   -0.068576
    10  C    0.033988
    11  C    0.110341
    12  C    0.066705
    13  C   -0.082133
    14  H    0.031735
    15  N   -0.435180
    16  C    0.202239
    17  C   -0.157109
    18  C   -0.065920
    19  C    0.136800
    20  C    0.128782
    21  C    0.009425
    22  O   -0.167406
    23  C    0.047690
    24  N   -0.272222
    25  C    0.061637
    26  C   -0.048535
    27  C   -0.032252
    28  C    0.063526
    29  C    0.067643
    30  C    0.023541
    31  C    0.020801
    32  N   -0.344300
    33  C    0.114665
    34  C   -0.195765
    35  C    0.034888
    36  C    0.158180
    37  C    0.143088
    38  C    0.009760
    39  O   -0.192126
    40  C    0.046062
    41  C    0.221253
    42  O   -0.217038
    43  O   -0.331170
    44  C    0.181166
    45  H   -0.025683
    46  H   -0.053403
    47  H   -0.028294
    48  H   -0.001950
    49  H   -0.000134
    50  H    0.022156
    51  H    0.017303
    52  H    0.035036
    53  H    0.008630
    54  H    0.033216
    55  H    0.029633
    56  H    0.035904
    57  H    0.031837
    58  H   -0.009770
    59  H    0.027393
    60  H    0.049345
    61  H    0.013891
    62  H    0.045638
    63  H    0.010836
    64  H    0.004764
    65  H    0.026139
    66  H    0.021404
    67  H    0.010252
    68  H    0.021789
    69  H   -0.006889
    70  H    0.022867
    71  H    0.006554
    72  H    0.021642
    73  H    0.014036
    74  H    0.032701
    75  H    0.041302
    76  H    0.029419
    77  H    0.022938
    78  H    0.030926
    79  H    0.036532
 Sum of Mulliken charges =  -0.00000

 Dipole moment (field-independent basis, Debye):
    X=             -2.3511    Y=              0.3167    Z=             -0.9028  Tot=              2.5384
 Quadrupole moment (field-independent basis, Debye-Ang):
   XX=           -264.4106   YY=           -246.4290   ZZ=           -258.3315
   XY=            -52.5361   XZ=              2.4920   YZ=              0.3015

 Normal termination of Gaussian 16 at Fri Oct  8 15:49:17 2021.
