 Gaussian 16, Revision A.03,
 Gaussian 16:  ES64L-G16RevA.03 25-Dec-2016

 ----------------------------------------------------------
 #p cam-b3lyp/Def2SVP td=(nstates=5) density=(transition=1)
 ----------------------------------------------------------

 --------------------------------
 TDDFT excited states in gaussian
 --------------------------------
 Symbolic Z-matrix:
 Charge =  0 Multiplicity = 1

                         Standard orientation:
 ---------------------------------------------------------------------
 Center     Atomic      Atomic             Coordinates (Angstroms)
 Number     Number       Type             X           Y           Z
 ---------------------------------------------------------------------
      1         12           0        9.249449   -0.423295   -0.091816
      2          6           0        7.260914    2.461583   -0.117386
      3          6           0       12.087356    1.663635    0.264556
      4          6           0       11.228018   -3.164180   -0.411654
      5          6           0        6.513920   -2.235770   -1.165520
      6          7           0        9.558513    1.749890    0.214227
      7          6           0        8.534240    2.692694    0.340648
      8          6           0        9.111002    3.992621    1.008632
      9          6           0       10.619895    3.721486    1.016382
     10          6           0       10.787980    2.284827    0.409580
     11          6           0       11.366799    4.793113    0.177343
     12          6           0        8.450014    4.174398    2.369532
     13          6           0        8.316224    5.586339    2.916077
     14          1           0        9.123400    6.714132    2.234212
     15          7           0       11.356272   -0.761293   -0.069528
     16          6           0       12.348129    0.229739    0.057537
     17          6           0       13.672882   -0.361186   -0.014846
     18          6           0       13.499901   -1.795372   -0.144538
     19          6           0       11.985098   -1.954590   -0.234206
     20          6           0       14.977927    0.410017    0.220401
     21          6           0       14.518127   -2.918393   -0.192258
     22          8           0       14.150522   -4.081720   -0.288375
     23          6           0       15.936212   -2.602671    0.092551
     24          7           0        8.866236   -2.445913   -0.647072
     25          6           0        9.840291   -3.397358   -0.609953
     26          6           0        9.211668   -4.798523   -0.828128
     27          6           0        7.668633   -4.523048   -1.010087
     28          6           0        7.616539   -2.983859   -0.829437
     29          6           0        9.866403   -5.497498   -2.033065
     30          6           0        6.753972   -5.207417    0.040222
     31          6           0        6.113985   -6.444251   -0.582652
     32          7           0        7.276492   -0.044965   -0.676582
     33          6           0        6.282419   -0.830014   -1.157726
     34          6           0        5.180622    0.065065   -1.587428
     35          6           0        5.457713    1.315168   -1.116880
     36          6           0        6.776266    1.197732   -0.607739
     37          6           0        3.919751   -0.482695   -2.234651
     38          6           0        4.976688    2.691484   -0.937117
     39          8           0        3.918112    3.194238   -1.294182
     40          6           0        6.095929    3.416567   -0.215087
     41          6           0        6.334664    4.643297   -0.991787
     42          8           0        6.945845    4.810924   -2.055787
     43          8           0        5.666482    5.670277   -0.357045
     44          6           0        5.710439    6.967727   -0.995653
     45          1           0       12.929262    2.331758    0.456412
     46          1           0       11.925838   -4.004004   -0.395340
     47          1           0        5.725429   -2.862162   -1.588036
     48          1           0        8.815439    4.738595    0.269895
     49          1           0       10.950341    3.914732    2.036905
     50          1           0       11.806913    4.426068   -0.750001
     51          1           0       12.282331    5.017553    0.723902
     52          1           0       10.723917    5.633227   -0.084638
     53          1           0        9.011905    3.511556    3.028277
     54          1           0        7.465629    3.708394    2.346298
     55          1           0        8.539270    5.568082    3.982001
     56          1           0        7.243165    5.750110    2.810909
     57          1           0       14.846672    1.489748    0.293995
     58          1           0       15.672592    0.221350   -0.599191
     59          1           0       15.476744   -0.011526    1.092291
     60          1           0       16.015918   -2.270313    1.127880
     61          1           0       16.362361   -1.972201   -0.687800
     62          1           0       16.560478   -3.496143    0.078570
     63          1           0        9.449430   -5.403566    0.046497
     64          1           0        7.457902   -4.774529   -2.050356
     65          1           0        9.200841   -5.809156   -2.837527
     66          1           0       10.228671   -6.395175   -1.532484
     67          1           0       10.601960   -4.893685   -2.563798
     68          1           0        5.862425   -4.604404    0.213243
     69          1           0        7.270062   -5.482341    0.960292
     70          1           0        6.260888   -7.215892    0.172898
     71          1           0        6.657195   -6.847823   -1.436799
     72          1           0        5.057326   -6.349134   -0.834254
     73          1           0        3.978598   -1.519546   -2.566693
     74          1           0        3.592555    0.113250   -3.085764
     75          1           0        3.151218   -0.562748   -1.465045
     76          1           0        5.751541    3.631445    0.795987
     77          1           0        5.415343    6.831884   -2.036432
     78          1           0        6.696748    7.431659   -0.972366
     79          1           0        4.820904    7.481003   -0.632027
     80         12           0       -8.818986   -1.047688    0.499984
     81          6           0      -10.062552    2.184231   -0.509004
     82          6           0       -6.804850    0.651836    2.813467
     83          6           0       -7.761753   -3.985323    1.516083
     84          6           0      -10.670490   -2.514175   -2.077317
     85          7           0       -8.490588    1.228539    1.036493
     86          6           0       -9.240247    2.297573    0.659097
     87          6           0       -8.985088    3.510822    1.538511
     88          6           0       -7.660672    3.102799    2.395580
     89          6           0       -7.621468    1.585139    2.054247
     90          6           0       -6.388197    3.921789    2.063532
     91          6           0      -10.217058    3.879955    2.432139
     92          6           0      -10.724177    5.332419    2.237583
     93          1           0      -10.576124    6.265877    3.572960
     94          7           0       -7.515479   -1.573481    1.922537
     95          6           0       -6.715814   -0.765724    2.800160
     96          6           0       -5.867224   -1.559009    3.720549
     97          6           0       -6.217690   -2.898787    3.350840
     98          6           0       -7.187027   -2.854669    2.243219
     99          6           0       -4.892655   -0.971155    4.743103
    100          6           0       -5.663029   -4.171388    3.867628
    101          8           0       -6.148772   -5.284223    3.696139
    102          6           0       -4.450745   -4.096277    4.816541
    103          7           0       -9.305400   -2.937907   -0.074921
    104          6           0       -8.707492   -4.016860    0.479963
    105          6           0       -8.966592   -5.287649   -0.280490
    106          6           0       -9.934464   -4.866402   -1.413532
    107          6           0      -10.045614   -3.344684   -1.168383
    108          6           0       -7.721305   -6.027524   -0.722053
    109          6           0      -11.390510   -5.600146   -1.232932
    110          6           0      -11.930054   -6.422183   -2.525765
    111          7           0       -9.906647   -0.321222   -1.176446
    112          6           0      -10.671059   -1.085598   -2.090585
    113          6           0      -11.426493   -0.149689   -2.931142
    114          6           0      -11.303063    1.084053   -2.239530
    115          6           0      -10.296823    0.951636   -1.281449
    116          6           0      -12.231226   -0.404757   -4.202040
    117          6           0      -11.637181    2.528426   -2.390935
    118          8           0      -12.295179    3.217329   -3.219125
    119          6           0      -10.923022    3.239378   -1.177092
    120          6           0      -10.113578    4.385725   -1.707684
    121          8           0       -9.415207    4.326867   -2.679900
    122          8           0      -10.392378    5.514003   -0.987473
    123          6           0       -9.902565    6.748053   -1.652121
    124          1           0       -6.104719    1.232688    3.417180
    125          1           0       -7.447261   -4.990748    1.804633
    126          1           0      -11.286360   -2.952980   -2.864801
    127          1           0       -8.708538    4.318692    0.860993
    128          1           0       -7.827250    3.155362    3.471829
    129          1           0       -5.624021    3.286981    1.614070
    130          1           0       -5.994412    4.395644    2.963637
    131          1           0       -6.535014    4.789049    1.419744
    132          1           0       -9.990995    3.776557    3.493731
    133          1           0      -11.073510    3.239311    2.220299
    134          1           0      -11.805032    5.394712    2.108533
    135          1           0      -10.329543    5.849157    1.363306
    136          1           0       -5.030249    0.075940    5.014688
    137          1           0       -3.835362   -1.106035    4.515197
    138          1           0       -5.066506   -1.545409    5.653667
    139          1           0       -3.598774   -3.644359    4.308662
    140          1           0       -4.190095   -5.069225    5.234483
    141          1           0       -4.727477   -3.462887    5.659340
    142          1           0       -9.424980   -6.000666    0.406108
    143          1           0       -9.496676   -5.045894   -2.395040
    144          1           0       -7.535746   -6.941933   -0.157891
    145          1           0       -6.786566   -5.484915   -0.581308
    146          1           0       -7.818650   -6.239008   -1.787101
    147          1           0      -12.198829   -4.920300   -0.965594
    148          1           0      -11.390647   -6.333307   -0.426781
    149          1           0      -11.043929   -6.633894   -3.124471
    150          1           0      -12.664280   -5.849492   -3.093862
    151          1           0      -12.288100   -7.412502   -2.245601
    152          1           0      -13.079514    0.273075   -4.295162
    153          1           0      -12.706732   -1.380210   -4.093223
    154          1           0      -11.468802   -0.436777   -4.980495
    155          1           0      -11.723385    3.691576   -0.591947
    156          1           0       -8.841136    6.607039   -1.855142
    157          1           0       -9.972948    7.501127   -0.867400
    158          1           0      -10.348837    7.057251   -2.597247
 ---------------------------------------------------------------------

 SCF Done:  E(RCAM-B3LYP) =  -4069.79802230     A.U. after   19 cycles

 Excitation energies and oscillator strengths:

 Excited State   1:      Singlet-A      1.6692 eV  742.77 nm  f=0.6322  <S**2>=0.000
     310 -> 315        0.16538
     311 -> 313        0.60493
     312 -> 314        0.32177
 This state for optimization and/or second-order correction.
 Total Energy, E(TD-HF/TD-DFT) =  -4069.73667966
 Copying the excited state density for this state as the 1-particle RhoCI density.

 Excited State   2:      Singlet-A      1.6810 eV  737.55 nm  f=0.1482  <S**2>=0.000
     309 -> 316       -0.15342
     311 -> 313       -0.31990
     312 -> 314        0.60714

 Excited State   3:      Singlet-A      2.1737 eV  570.37 nm  f=0.1131  <S**2>=0.000
     310 -> 313        0.64594
     311 -> 315       -0.27660

 Excited State   4:      Singlet-A      2.1971 eV  564.31 nm  f=0.1334  <S**2>=0.000
     309 -> 314        0.64363
     312 -> 316        0.27344

 Excited State   5:      Singlet-A      2.7638 eV  448.59 nm  f=0.0000  <S**2>=0.000
     312 -> 313        0.70695

 The electronic state is 1-A.
 Alpha  occ. eigenvalues --  -46.89198 -46.88424 -19.25517 -19.24546 -19.19878
 Alpha  occ. eigenvalues --  -19.19612 -19.19387 -19.19274 -19.18880 -19.18577
 Alpha  occ. eigenvalues --  -14.42497 -14.42271 -14.41833 -14.41818 -14.40613
 Alpha  occ. eigenvalues --  -14.40198 -14.39285 -14.39142 -10.39448 -10.38689
 Alpha  occ. eigenvalues --  -10.35547 -10.35494 -10.35052 -10.35033 -10.32077
 Alpha  occ. eigenvalues --  -10.31789 -10.31713 -10.31479 -10.31382 -10.31285
 Alpha  occ. eigenvalues --  -10.31238 -10.31177 -10.31071 -10.31057 -10.30770
 Alpha  occ. eigenvalues --  -10.30732 -10.30701 -10.30571 -10.30159 -10.29875
 Alpha  occ. eigenvalues --  -10.29616 -10.29422 -10.29164 -10.28992 -10.28908
 Alpha  occ. eigenvalues --  -10.28886 -10.28804 -10.28674 -10.28506 -10.28499
 Alpha  occ. eigenvalues --  -10.28437 -10.28367 -10.28250 -10.28129 -10.28123
 Alpha  occ. eigenvalues --  -10.27987 -10.27856 -10.27855 -10.27854 -10.27753
 Alpha  occ. eigenvalues --  -10.27717 -10.27681 -10.27668 -10.27633 -10.27487
 Alpha  occ. eigenvalues --  -10.27221 -10.27166 -10.27063 -10.26898 -10.26656
 Alpha  occ. eigenvalues --  -10.26604 -10.26554 -10.26422 -10.26368 -10.26305
 Alpha  occ. eigenvalues --  -10.26025 -10.26011 -10.26001 -10.25847 -10.25604
 Alpha  occ. eigenvalues --  -10.25583 -10.25417 -10.25322 -10.25082 -10.25074
 Alpha  occ. eigenvalues --  -10.24856  -3.17596  -3.17068  -1.92509  -1.92010
 Alpha  occ. eigenvalues --   -1.91965  -1.91927  -1.91522  -1.91389  -1.16831
 Alpha  occ. eigenvalues --   -1.15881  -1.10526  -1.10102  -1.09897  -1.08554
 Alpha  occ. eigenvalues --   -1.06955  -1.06951  -1.04402  -1.03899  -1.03156
 Alpha  occ. eigenvalues --   -1.02866  -1.02720  -1.02478  -1.01910  -1.01707
 Alpha  occ. eigenvalues --   -0.93457  -0.91465  -0.89361  -0.88855  -0.88543
 Alpha  occ. eigenvalues --   -0.88412  -0.88041  -0.88005  -0.87318  -0.87185
 Alpha  occ. eigenvalues --   -0.86932  -0.86884  -0.85678  -0.85532  -0.84392
 Alpha  occ. eigenvalues --   -0.83959  -0.83907  -0.83072  -0.82812  -0.82452
 Alpha  occ. eigenvalues --   -0.81716  -0.81311  -0.80978  -0.80567  -0.80101
 Alpha  occ. eigenvalues --   -0.79669  -0.78998  -0.78171  -0.77339  -0.77007
 Alpha  occ. eigenvalues --   -0.76900  -0.76669  -0.76037  -0.75909  -0.75126
 Alpha  occ. eigenvalues --   -0.74612  -0.72615  -0.72453  -0.71310  -0.71085
 Alpha  occ. eigenvalues --   -0.69145  -0.69080  -0.68661  -0.68564  -0.68010
 Alpha  occ. eigenvalues --   -0.67486  -0.67153  -0.66992  -0.65831  -0.65517
 Alpha  occ. eigenvalues --   -0.65498  -0.65005  -0.64713  -0.64276  -0.63978
 Alpha  occ. eigenvalues --   -0.63889  -0.62248  -0.62214  -0.60709  -0.60198
 Alpha  occ. eigenvalues --   -0.59728  -0.59180  -0.59158  -0.58880  -0.58628
 Alpha  occ. eigenvalues --   -0.58431  -0.58243  -0.57844  -0.57716  -0.57028
 Alpha  occ. eigenvalues --   -0.56040  -0.55967  -0.55845  -0.55171  -0.55167
 Alpha  occ. eigenvalues --   -0.54941  -0.54853  -0.54395  -0.53706  -0.53670
 Alpha  occ. eigenvalues --   -0.53665  -0.53501  -0.53398  -0.53276  -0.52993
 Alpha  occ. eigenvalues --   -0.52896  -0.52586  -0.52456  -0.52064  -0.51975
 Alpha  occ. eigenvalues --   -0.51803  -0.51546  -0.51458  -0.51375  -0.51267
 Alpha  occ. eigenvalues --   -0.50851  -0.50730  -0.50404  -0.50368  -0.49960
 Alpha  occ. eigenvalues --   -0.49899  -0.49867  -0.49701  -0.49690  -0.49377
 Alpha  occ. eigenvalues --   -0.49343  -0.49328  -0.49120  -0.49106  -0.48730
 Alpha  occ. eigenvalues --   -0.48689  -0.48236  -0.48140  -0.47999  -0.47943
 Alpha  occ. eigenvalues --   -0.47906  -0.47476  -0.47462  -0.47359  -0.47205
 Alpha  occ. eigenvalues --   -0.46955  -0.46811  -0.46743  -0.46474  -0.46451
 Alpha  occ. eigenvalues --   -0.46113  -0.46093  -0.45963  -0.45850  -0.45460
 Alpha  occ. eigenvalues --   -0.45314  -0.45077  -0.44869  -0.44814  -0.44711
 Alpha  occ. eigenvalues --   -0.44661  -0.44530  -0.44464  -0.44297  -0.44282
 Alpha  occ. eigenvalues --   -0.44002  -0.43788  -0.43696  -0.43667  -0.43472
 Alpha  occ. eigenvalues --   -0.43253  -0.43208  -0.43119  -0.42884  -0.42756
 Alpha  occ. eigenvalues --   -0.42695  -0.42495  -0.42444  -0.42116  -0.41953
 Alpha  occ. eigenvalues --   -0.41951  -0.41609  -0.41426  -0.41322  -0.41199
 Alpha  occ. eigenvalues --   -0.41159  -0.40695  -0.40612  -0.40513  -0.40331
 Alpha  occ. eigenvalues --   -0.40097  -0.40072  -0.39294  -0.39014  -0.38538
 Alpha  occ. eigenvalues --   -0.38478  -0.38125  -0.38094  -0.38049  -0.37847
 Alpha  occ. eigenvalues --   -0.37387  -0.37213  -0.36529  -0.36397  -0.36270
 Alpha  occ. eigenvalues --   -0.35925  -0.35399  -0.34524  -0.34448  -0.34300
 Alpha  occ. eigenvalues --   -0.34168  -0.32913  -0.32699  -0.31644  -0.31548
 Alpha  occ. eigenvalues --   -0.31536  -0.31355  -0.30920  -0.30487  -0.30357
 Alpha  occ. eigenvalues --   -0.30167  -0.30063  -0.29276  -0.23884  -0.23801
 Alpha  occ. eigenvalues --   -0.21200  -0.21018
 Alpha virt. eigenvalues --   -0.08877  -0.08748  -0.01728  -0.01542   0.00100
 Alpha virt. eigenvalues --    0.00228   0.01740   0.02155   0.02417   0.03656
 Alpha virt. eigenvalues --    0.04329   0.05036   0.05118   0.05336   0.05790

 Mulliken charges:
               1
     1  Mg  11.999594
     2  C    6.013677
     3  C    5.994351
     4  C    5.986116
     5  C    6.005023
     6  N    7.006735
     7  C    5.982054
     8  C    6.002849
     9  C    5.993959
    10  C    6.015608
    11  C    5.998788
    12  C    6.002331
    13  C    5.999920
    14  H    0.997351
    15  N    6.995630
    16  C    6.021209
    17  C    6.008314
    18  C    6.009310
    19  C    6.017027
    20  C    5.997990
    21  C    6.006788
    22  O    8.014536
    23  C    5.995929
    24  N    6.996395
    25  C    6.017884
    26  C    5.995810
    27  C    6.006029
    28  C    5.986139
    29  C    5.998682
    30  C    6.002555
    31  C    6.000929
    32  N    7.002005
    33  C    5.980641
    34  C    5.986098
    35  C    5.998728
    36  C    5.981020
    37  C    6.002421
    38  C    5.991101
    39  O    7.986616
    40  C    5.999681
    41  C    5.998469
    42  O    7.996842
    43  O    7.999502
    44  C    6.000591
    45  H    1.006603
    46  H    1.000869
    47  H    0.994078
    48  H    1.001550
    49  H    1.003486
    50  H    0.999744
    51  H    0.999917
    52  H    1.006804
    53  H    0.995052
    54  H    1.003209
    55  H    0.998270
    56  H    1.001809
    57  H    1.008579
    58  H    1.009152
    59  H    1.008732
    60  H    1.003577
    61  H    1.003933
    62  H    1.007748
    63  H    0.999357
    64  H    0.998390
    65  H    1.004735
    66  H    1.000264
    67  H    0.997933
    68  H    1.001392
    69  H    0.994960
    70  H    0.997048
    71  H    0.997875
    72  H    1.000106
    73  H    0.990995
    74  H    0.991393
    75  H    0.987690
    76  H    0.995839
    77  H    1.000140
    78  H    0.996942
    79  H    0.998603
    80  Mg  11.996405
    81  C    6.025400
    82  C    5.994293
    83  C    5.969454
    84  C    6.010068
    85  N    7.014956
    86  C    5.967770
    87  C    6.009342
    88  C    5.988775
    89  C    6.028100
    90  C    5.997234
    91  C    6.001666
    92  C    6.002013
    93  H    0.993309
    94  N    6.993989
    95  C    6.034891
    96  C    6.021939
    97  C    6.012615
    98  C    6.028581
    99  C    5.995562
   100  C    6.010313
   101  O    8.028116
   102  C    5.996116
   103  N    6.992768
   104  C    6.035923
   105  C    5.990679
   106  C    6.010938
   107  C    5.971598
   108  C    5.999261
   109  C    6.004686
   110  C    6.000869
   111  N    7.004229
   112  C    5.959002
   113  C    5.973531
   114  C    5.995596
   115  C    5.970442
   116  C    5.999906
   117  C    5.991347
   118  O    7.972334
   119  C    5.995754
   120  C    5.993879
   121  O    8.000097
   122  O    7.998204
   123  C    6.001899
   124  H    1.012438
   125  H    1.000981
   126  H    0.988440
   127  H    1.002263
   128  H    1.000937
   129  H    1.000311
   130  H    1.003525
   131  H    1.012737
   132  H    0.991689
   133  H    1.004299
   134  H    1.002479
   135  H    1.001828
   136  H    1.014773
   137  H    1.018777
   138  H    1.014440
   139  H    1.007563
   140  H    1.012987
   141  H    1.004341
   142  H    0.998755
   143  H    0.996584
   144  H    0.997735
   145  H    0.995718
   146  H    1.008864
   147  H    1.000759
   148  H    0.988516
   149  H    0.996467
   150  H    1.002415
   151  H    0.993995
   152  H    0.985729
   153  H    0.984682
   154  H    0.984537
   155  H    0.995499
   156  H    0.996176
   157  H    0.995205
   158  H    0.999707
 Sum of Mulliken charges = 624.00000

 Dipole moment (field-independent basis, Debye):
    X=             11.5479    Y=             -2.5556    Z=              7.7365  Tot=             14.1329
 Quadrupole moment (field-independent basis, Debye-Ang):
   XX=             -9.8304   YY=              0.4460   ZZ=              4.6456
   XY=              2.5044   XZ=            -54.4465   YZ=             -7.7405

 Normal termination of Gaussian 16 at Wed Sep 22 22:25:12 2021.
