 Gaussian 16, Revision A.03,
 Gaussian 16:  ES64L-G16RevA.03 25-Dec-2016

 ----------------------------------------------------------
 #p cam-b3lyp/Def2SVP td=(nstates=5) density=(transition=1)
 ----------------------------------------------------------

 --------------------------------
 TDDFT excited states in gaussian
 --------------------------------
 Symbolic Z-matrix:
 Charge =  0 Multiplicity = 1

                         Standard orientation:
 ---------------------------------------------------------------------
 Center     Atomic      Atomic             Coordinates (Angstroms)
 Number     Number       Type             X           Y           Z
 ---------------------------------------------------------------------
      1         12           0        8.690162    0.473495   -0.104779
      2          6           0        6.436452   -2.172251   -0.980697
      3          6           0        6.535407    2.661492   -1.862269
      4          6           0       10.306331    3.054276    1.305134
      5          6           0       10.249756   -1.699160    2.077104
      6          7           0        6.698094    0.286672   -1.311636
      7          6           0        6.029364   -0.897117   -1.451712
      8          6           0        4.639202   -0.634643   -2.008852
      9          6           0        4.864987    0.850965   -2.516176
     10          6           0        6.101902    1.362388   -1.881745
     11          6           0        4.939864    1.076740   -4.063646
     12          6           0        3.559784   -0.918902   -0.915604
     13          6           0        2.256187   -1.737771   -1.288254
     14          1           0        0.874129   -1.073055   -1.156207
     15          7           0        8.611248    2.485307   -0.366905
     16          6           0        7.673372    3.221649   -1.137728
     17          6           0        7.977074    4.639909   -1.088133
     18          6           0        9.081637    4.737950   -0.147447
     19          6           0        9.366801    3.382814    0.285477
     20          6           0        7.136468    5.637448   -1.769648
     21          6           0        9.751626    6.075012    0.214124
     22          8           0        9.222542    7.116130   -0.273738
     23          6           0       10.998220    6.239772    1.109192
     24          7           0        9.928512    0.761015    1.681604
     25          6           0       10.599920    1.868353    1.933275
     26          6           0       11.482028    1.630153    3.116060
     27          6           0       11.477656    0.087547    3.287734
     28          6           0       10.404739   -0.335674    2.332165
     29          6           0       12.954773    2.224897    3.140246
     30          6           0       11.209697   -0.438817    4.791088
     31          6           0       12.338724   -1.212249    5.515345
     32          7           0        8.574819   -1.518764    0.314659
     33          6           0        9.254483   -2.261184    1.204859
     34          6           0        8.837945   -3.615345    1.179823
     35          6           0        7.758273   -3.622930    0.293645
     36          6           0        7.595400   -2.300055   -0.189818
     37          6           0        9.357224   -4.802567    1.886295
     38          6           0        6.770069   -4.512103   -0.234456
     39          8           0        6.585298   -5.678118    0.033528
     40          6           0        5.775647   -3.520483   -1.114634
     41          6           0        5.742227   -3.962508   -2.513831
     42          8           0        6.723651   -4.313460   -3.181032
     43          8           0        4.428787   -3.876385   -2.923683
     44          6           0        4.151071   -4.276080   -4.302240
     45          1           0        5.913465    3.385824   -2.390445
     46          1           0       10.787518    3.854819    1.870233
     47          1           0       10.852080   -2.464695    2.571053
     48          1           0        4.553171   -1.241633   -2.910474
     49          1           0        4.027729    1.313560   -1.992261
     50          1           0        5.894643    1.560450   -4.274766
     51          1           0        4.167471    1.737479   -4.456642
     52          1           0        4.957361    0.171810   -4.671782
     53          1           0        3.291679    0.107158   -0.664750
     54          1           0        3.924434   -1.363864    0.009941
     55          1           0        2.305565   -2.630578   -0.665179
     56          1           0        2.403069   -2.172974   -2.276283
     57          1           0        6.113047    5.446187   -1.446105
     58          1           0        7.146489    5.459736   -2.844817
     59          1           0        7.427700    6.685661   -1.697390
     60          1           0       10.701976    6.033780    2.137871
     61          1           0       11.446823    7.172203    0.768094
     62          1           0       11.653373    5.444130    0.752868
     63          1           0       11.002217    2.118932    3.963082
     64          1           0       12.413022   -0.190902    2.802123
     65          1           0       13.164835    2.378028    4.199092
     66          1           0       12.964825    3.145340    2.556686
     67          1           0       13.605923    1.450902    2.733629
     68          1           0       10.316951   -1.055580    4.688919
     69          1           0       10.857110    0.411251    5.375038
     70          1           0       11.993087   -2.143423    5.962304
     71          1           0       12.762043   -0.566612    6.285252
     72          1           0       13.198825   -1.427642    4.881089
     73          1           0        9.036450   -5.728450    1.409912
     74          1           0        8.867066   -4.624502    2.843622
     75          1           0       10.397596   -4.609247    2.147435
     76          1           0        4.804642   -3.406162   -0.634115
     77          1           0        4.562095   -5.260336   -4.527884
     78          1           0        4.548396   -3.528088   -4.989928
     79          1           0        3.071026   -4.339510   -4.435046
     80         12           0       -8.702929    0.360458   -0.195578
     81          6           0       -6.333083   -2.264912   -0.779416
     82          6           0       -6.839847    2.377733   -1.995887
     83          6           0      -10.535252    2.794464    1.109274
     84          6           0      -10.381521   -2.004595    2.066630
     85          7           0       -6.825272    0.057499   -1.299620
     86          6           0       -5.988534   -1.072255   -1.394857
     87          6           0       -4.699583   -0.836955   -2.269715
     88          6           0       -4.991016    0.730837   -2.692473
     89          6           0       -6.289928    1.112671   -1.989598
     90          6           0       -3.811039    1.701975   -2.257731
     91          6           0       -4.489268   -1.836850   -3.459645
     92          6           0       -3.507464   -1.388945   -4.535793
     93          1           0       -2.225564   -2.236617   -4.629414
     94          7           0       -8.744957    2.314099   -0.497170
     95          6           0       -7.914958    3.052551   -1.307541
     96          6           0       -8.269747    4.455947   -1.328696
     97          6           0       -9.383604    4.545657   -0.403008
     98          6           0       -9.637961    3.135365    0.061083
     99          6           0       -7.674475    5.495136   -2.157017
    100          6           0      -10.211740    5.748560    0.014238
    101          8           0      -11.191322    5.684087    0.702700
    102          6           0       -9.660846    7.077008   -0.431510
    103          7           0      -10.205440    0.402829    1.420217
    104          6           0      -10.827933    1.570447    1.720671
    105          6           0      -11.945481    1.349151    2.774819
    106          6           0      -11.943734   -0.210119    2.942770
    107          6           0      -10.802664   -0.658988    2.050321
    108          6           0      -11.828315    2.098729    4.145585
    109          6           0      -13.271246   -0.949620    2.550252
    110          6           0      -14.379049   -0.827611    3.619873
    111          7           0       -8.468332   -1.662501    0.548313
    112          6           0       -9.231355   -2.472908    1.357043
    113          6           0       -8.685080   -3.771492    1.350526
    114          6           0       -7.560789   -3.759969    0.613383
    115          6           0       -7.413880   -2.425518    0.127110
    116          6           0       -9.392549   -4.928707    2.043547
    117          6           0       -6.380545   -4.475932    0.118713
    118          8           0       -6.024799   -5.612995    0.292337
    119          6           0       -5.525448   -3.480544   -0.801570
    120          6           0       -4.249183   -3.193888   -0.076766
    121          8           0       -3.964471   -2.365963    0.759006
    122          8           0       -3.340585   -4.091114   -0.602183
    123          6           0       -1.954548   -4.029484   -0.080314
    124          1           0       -6.262326    3.134734   -2.530337
    125          1           0      -10.996782    3.652118    1.604570
    126          1           0      -11.052011   -2.604113    2.686718
    127          1           0       -3.843207   -0.813462   -1.595591
    128          1           0       -5.051186    0.777479   -3.780062
    129          1           0       -3.586795    2.385914   -3.076147
    130          1           0       -2.877487    1.272386   -1.895346
    131          1           0       -4.151326    2.382290   -1.477646
    132          1           0       -5.522719   -1.949603   -3.789894
    133          1           0       -4.222228   -2.868526   -3.229606
    134          1           0       -3.212417   -0.358363   -4.340455
    135          1           0       -3.962686   -1.554697   -5.511824
    136          1           0       -8.533954    5.733285   -2.783621
    137          1           0       -6.803015    5.119702   -2.693621
    138          1           0       -7.359787    6.418967   -1.672046
    139          1           0      -10.126133    7.361153   -1.375273
    140          1           0       -8.594741    7.196388   -0.236292
    141          1           0       -9.906395    7.731893    0.404038
    142          1           0      -12.877841    1.504958    2.231294
    143          1           0      -11.591965   -0.457179    3.944675
    144          1           0      -11.797393    1.472620    5.037758
    145          1           0      -12.775240    2.625285    4.262536
    146          1           0      -10.980517    2.777791    4.236150
    147          1           0      -13.067433   -2.012649    2.426653
    148          1           0      -13.549103   -0.529077    1.582793
    149          1           0      -13.945359   -0.590927    4.591660
    150          1           0      -14.912303   -1.778053    3.603726
    151          1           0      -15.083550   -0.014404    3.442762
    152          1           0       -9.138967   -5.881296    1.578261
    153          1           0      -10.466504   -4.742849    2.026795
    154          1           0       -9.161827   -4.930664    3.109078
    155          1           0       -5.352831   -3.896842   -1.794327
    156          1           0       -1.632545   -5.066735    0.011164
    157          1           0       -1.859219   -3.529103    0.883227
    158          1           0       -1.480664   -3.500587   -0.907821
 ---------------------------------------------------------------------

 SCF Done:  E(RCAM-B3LYP) =  -4069.80044068     A.U. after   18 cycles

 Excitation energies and oscillator strengths:

 Excited State   1:      Singlet-A      1.6906 eV  733.35 nm  f=0.0099  <S**2>=0.000
     309 -> 315       -0.12217
     310 -> 316       -0.13123
     311 -> 313       -0.45742
     312 -> 314        0.51178
 This state for optimization and/or second-order correction.
 Total Energy, E(TD-HF/TD-DFT) =  -4069.73831051
 Copying the excited state density for this state as the 1-particle RhoCI density.

 Excited State   2:      Singlet-A      1.7058 eV  726.86 nm  f=0.7508  <S**2>=0.000
     309 -> 315        0.13944
     310 -> 316       -0.11992
     311 -> 313        0.51038
     312 -> 314        0.45738

 Excited State   3:      Singlet-A      2.2110 eV  560.76 nm  f=0.1517  <S**2>=0.000
     310 -> 314        0.64875
     312 -> 316        0.26408

 Excited State   4:      Singlet-A      2.2523 eV  550.48 nm  f=0.1314  <S**2>=0.000
     309 -> 313        0.63874
     311 -> 315       -0.28854

 Excited State   5:      Singlet-A      2.7158 eV  456.53 nm  f=0.0000  <S**2>=0.000
     312 -> 313        0.70699

 The electronic state is 1-A.
 Alpha  occ. eigenvalues --  -46.88984 -46.88613 -19.26391 -19.23846 -19.20659
 Alpha  occ. eigenvalues --  -19.19941 -19.19815 -19.19137 -19.18979 -19.18204
 Alpha  occ. eigenvalues --  -14.42239 -14.42022 -14.41474 -14.41361 -14.40010
 Alpha  occ. eigenvalues --  -14.39902 -14.39668 -14.38888 -10.40198 -10.38994
 Alpha  occ. eigenvalues --  -10.35525 -10.35316 -10.35296 -10.34801 -10.32568
 Alpha  occ. eigenvalues --  -10.31288 -10.31165 -10.30965 -10.30919 -10.30844
 Alpha  occ. eigenvalues --  -10.30709 -10.30467 -10.30420 -10.30404 -10.30390
 Alpha  occ. eigenvalues --  -10.30230 -10.30143 -10.30142 -10.29831 -10.29538
 Alpha  occ. eigenvalues --  -10.29235 -10.29163 -10.29129 -10.28996 -10.28944
 Alpha  occ. eigenvalues --  -10.28829 -10.28800 -10.28648 -10.28529 -10.28178
 Alpha  occ. eigenvalues --  -10.27920 -10.27784 -10.27758 -10.27697 -10.27644
 Alpha  occ. eigenvalues --  -10.27641 -10.27593 -10.27558 -10.27538 -10.27290
 Alpha  occ. eigenvalues --  -10.27270 -10.27269 -10.27073 -10.27035 -10.26986
 Alpha  occ. eigenvalues --  -10.26852 -10.26834 -10.26829 -10.26805 -10.26788
 Alpha  occ. eigenvalues --  -10.26778 -10.26739 -10.26732 -10.26543 -10.26509
 Alpha  occ. eigenvalues --  -10.26283 -10.26266 -10.26102 -10.25907 -10.25737
 Alpha  occ. eigenvalues --  -10.25623 -10.25588 -10.25586 -10.25139 -10.24743
 Alpha  occ. eigenvalues --  -10.24637  -3.17538  -3.17156  -1.92428  -1.92052
 Alpha  occ. eigenvalues --   -1.91982  -1.91855  -1.91592  -1.91480  -1.16655
 Alpha  occ. eigenvalues --   -1.15717  -1.11397  -1.10895  -1.10817  -1.08273
 Alpha  occ. eigenvalues --   -1.07477  -1.07313  -1.05525  -1.04800  -1.03848
 Alpha  occ. eigenvalues --   -1.03837  -1.03336  -1.02544  -1.02417  -1.01644
 Alpha  occ. eigenvalues --   -0.93270  -0.93054  -0.89393  -0.88966  -0.88376
 Alpha  occ. eigenvalues --   -0.88284  -0.88242  -0.88219  -0.88050  -0.87557
 Alpha  occ. eigenvalues --   -0.87192  -0.86884  -0.86093  -0.86061  -0.84728
 Alpha  occ. eigenvalues --   -0.83956  -0.83937  -0.83221  -0.82805  -0.82215
 Alpha  occ. eigenvalues --   -0.82131  -0.82099  -0.81448  -0.80750  -0.80579
 Alpha  occ. eigenvalues --   -0.80104  -0.78296  -0.78151  -0.77730  -0.77003
 Alpha  occ. eigenvalues --   -0.76997  -0.76708  -0.76397  -0.75583  -0.75435
 Alpha  occ. eigenvalues --   -0.74863  -0.73275  -0.72812  -0.72302  -0.71374
 Alpha  occ. eigenvalues --   -0.69865  -0.69713  -0.69481  -0.68789  -0.68652
 Alpha  occ. eigenvalues --   -0.67777  -0.66998  -0.66845  -0.66219  -0.65737
 Alpha  occ. eigenvalues --   -0.65207  -0.65079  -0.64854  -0.64648  -0.64491
 Alpha  occ. eigenvalues --   -0.63923  -0.63058  -0.61475  -0.60222  -0.60117
 Alpha  occ. eigenvalues --   -0.59985  -0.59639  -0.59514  -0.59005  -0.58879
 Alpha  occ. eigenvalues --   -0.58538  -0.58354  -0.57886  -0.57666  -0.56910
 Alpha  occ. eigenvalues --   -0.56329  -0.56178  -0.56071  -0.55795  -0.55741
 Alpha  occ. eigenvalues --   -0.55042  -0.54943  -0.54594  -0.54495  -0.54321
 Alpha  occ. eigenvalues --   -0.54161  -0.53810  -0.53699  -0.53376  -0.53021
 Alpha  occ. eigenvalues --   -0.52708  -0.52690  -0.52397  -0.52189  -0.51994
 Alpha  occ. eigenvalues --   -0.51808  -0.51660  -0.51537  -0.51385  -0.51296
 Alpha  occ. eigenvalues --   -0.51021  -0.50700  -0.50621  -0.50395  -0.50220
 Alpha  occ. eigenvalues --   -0.50116  -0.50064  -0.49855  -0.49725  -0.49667
 Alpha  occ. eigenvalues --   -0.49525  -0.49503  -0.49186  -0.48879  -0.48854
 Alpha  occ. eigenvalues --   -0.48536  -0.48480  -0.48041  -0.48007  -0.47851
 Alpha  occ. eigenvalues --   -0.47797  -0.47779  -0.47735  -0.47678  -0.47518
 Alpha  occ. eigenvalues --   -0.47110  -0.47085  -0.46786  -0.46748  -0.46556
 Alpha  occ. eigenvalues --   -0.46385  -0.46201  -0.46030  -0.45925  -0.45810
 Alpha  occ. eigenvalues --   -0.45736  -0.45479  -0.45470  -0.45359  -0.45225
 Alpha  occ. eigenvalues --   -0.45079  -0.45057  -0.44882  -0.44757  -0.44676
 Alpha  occ. eigenvalues --   -0.44023  -0.43864  -0.43859  -0.43745  -0.43663
 Alpha  occ. eigenvalues --   -0.43515  -0.43345  -0.43223  -0.43165  -0.43052
 Alpha  occ. eigenvalues --   -0.42898  -0.42803  -0.42593  -0.42375  -0.42112
 Alpha  occ. eigenvalues --   -0.41868  -0.41646  -0.41596  -0.41313  -0.41245
 Alpha  occ. eigenvalues --   -0.41162  -0.40992  -0.40978  -0.40854  -0.40516
 Alpha  occ. eigenvalues --   -0.40474  -0.40292  -0.39372  -0.39075  -0.38875
 Alpha  occ. eigenvalues --   -0.38812  -0.38379  -0.38133  -0.37830  -0.37793
 Alpha  occ. eigenvalues --   -0.37753  -0.37072  -0.36643  -0.36550  -0.36385
 Alpha  occ. eigenvalues --   -0.35944  -0.35763  -0.35285  -0.34658  -0.34200
 Alpha  occ. eigenvalues --   -0.33977  -0.33096  -0.32632  -0.31412  -0.31351
 Alpha  occ. eigenvalues --   -0.31202  -0.30864  -0.30598  -0.30404  -0.30179
 Alpha  occ. eigenvalues --   -0.30146  -0.29779  -0.29445  -0.24248  -0.23631
 Alpha  occ. eigenvalues --   -0.21391  -0.21003
 Alpha virt. eigenvalues --   -0.09004  -0.08573  -0.01811  -0.01172   0.00204
 Alpha virt. eigenvalues --    0.00842   0.02225   0.02338   0.02423   0.02637
 Alpha virt. eigenvalues --    0.04146   0.04171   0.05004   0.05631   0.05847

 Mulliken charges:
               1
     1  Mg  11.999932
     2  C    5.985966
     3  C    6.016959
     4  C    6.014948
     5  C    5.982167
     6  N    7.002983
     7  C    6.020731
     8  C    5.994953
     9  C    6.006238
    10  C    5.977944
    11  C    6.002032
    12  C    5.994227
    13  C    5.999488
    14  H    1.007745
    15  N    7.004806
    16  C    5.962935
    17  C    5.987073
    18  C    5.990674
    19  C    5.974101
    20  C    6.004276
    21  C    5.991731
    22  O    7.984303
    23  C    5.998983
    24  N    6.999930
    25  C    5.976800
    26  C    6.008045
    27  C    5.991651
    28  C    6.025553
    29  C    6.001052
    30  C    5.998821
    31  C    5.999055
    32  N    6.996782
    33  C    6.028920
    34  C    6.018070
    35  C    6.004444
    36  C    6.022921
    37  C    5.999614
    38  C    6.010231
    39  O    8.019396
    40  C    6.003520
    41  C    6.003299
    42  O    8.002463
    43  O    8.001989
    44  C    5.997911
    45  H    0.993419
    46  H    0.994908
    47  H    1.004427
    48  H    1.000232
    49  H    0.997729
    50  H    1.003373
    51  H    0.997910
    52  H    0.991221
    53  H    1.007978
    54  H    0.996584
    55  H    0.998986
    56  H    1.000030
    57  H    0.985487
    58  H    0.985412
    59  H    0.989385
    60  H    0.992533
    61  H    0.991555
    62  H    0.994898
    63  H    0.998838
    64  H    1.001987
    65  H    0.996033
    66  H    1.005138
    67  H    0.994907
    68  H    0.996059
    69  H    1.006795
    70  H    0.998730
    71  H    1.004075
    72  H    1.000934
    73  H    1.009856
    74  H    1.013674
    75  H    1.013520
    76  H    1.007658
    77  H    1.001376
    78  H    1.003926
    79  H    1.004631
    80  Mg  11.999899
    81  C    6.022702
    82  C    5.989932
    83  C    5.983870
    84  C    6.011872
    85  N    7.007386
    86  C    5.973558
    87  C    6.012826
    88  C    5.988642
    89  C    6.022637
    90  C    5.999486
    91  C    6.001602
    92  C    5.999769
    93  H    0.998312
    94  N    6.993789
    95  C    6.034988
    96  C    6.012256
    97  C    6.015565
    98  C    6.025068
    99  C    5.994818
   100  C    6.011305
   101  O    8.022707
   102  C    5.992647
   103  N    6.998818
   104  C    6.027126
   105  C    5.989931
   106  C    6.008110
   107  C    5.975621
   108  C    5.999450
   109  C    6.005452
   110  C    5.998834
   111  N    7.002956
   112  C    5.970164
   113  C    5.979200
   114  C    5.998357
   115  C    5.966336
   116  C    6.001637
   117  C    5.986517
   118  O    7.976798
   119  C    5.994168
   120  C    6.000405
   121  O    7.994253
   122  O    7.999515
   123  C    6.001862
   124  H    1.007608
   125  H    1.003621
   126  H    0.991603
   127  H    0.995227
   128  H    1.003716
   129  H    1.001006
   130  H    1.008938
   131  H    0.995819
   132  H    0.999057
   133  H    1.002925
   134  H    0.994884
   135  H    0.998375
   136  H    1.013863
   137  H    1.014938
   138  H    1.016069
   139  H    1.008610
   140  H    1.005648
   141  H    1.011873
   142  H    1.000533
   143  H    1.000190
   144  H    1.007322
   145  H    1.000920
   146  H    0.996557
   147  H    1.004205
   148  H    0.992879
   149  H    0.997702
   150  H    0.999956
   151  H    0.994516
   152  H    0.988102
   153  H    0.986470
   154  H    0.983465
   155  H    0.993505
   156  H    0.996987
   157  H    0.997396
   158  H    0.994498
 Sum of Mulliken charges = 624.00000

 Dipole moment (field-independent basis, Debye):
    X=             -1.4175    Y=              0.7984    Z=             -0.6680  Tot=              1.7587
 Quadrupole moment (field-independent basis, Debye-Ang):
   XX=              2.0766   YY=             -0.6341   ZZ=              0.8095
   XY=           -130.3699   XZ=             25.8316   YZ=              0.9734

 Normal termination of Gaussian 16 at Wed Sep 22 05:50:33 2021.
