 Gaussian 16, Revision A.03,
 Gaussian 16:  ES64L-G16RevA.03 25-Dec-2016

 -----------------------------------
 #p cam-b3lyp/Def2SVP td=(nstates=5)
 -----------------------------------

 --------------------------------
 TDDFT excited states in gaussian
 --------------------------------
 Symbolic Z-matrix:
 Charge =  0 Multiplicity = 1

                         Standard orientation:
 ---------------------------------------------------------------------
 Center     Atomic      Atomic             Coordinates (Angstroms)
 Number     Number       Type             X           Y           Z
 ---------------------------------------------------------------------
      1         12           0      -28.508035    0.359724    0.232910
      2          6           0      -26.818480   -2.272558   -1.298110
      3          6           0      -28.301533    2.160606   -2.690963
      4          6           0      -29.904742    2.916885    1.939511
      5          6           0      -28.304378   -1.446023    3.309842
      6          7           0      -27.560513   -0.002830   -1.691214
      7          6           0      -26.952473   -1.141181   -2.122342
      8          6           0      -26.589854   -1.053470   -3.610461
      9          6           0      -26.968356    0.457746   -3.941062
     10          6           0      -27.682333    0.895223   -2.657811
     11          6           0      -25.735706    1.310246   -4.217074
     12          6           0      -27.425812   -1.967021   -4.575989
     13          6           0      -26.763209   -2.412825   -5.853540
     14          1           0      -25.549587   -1.736813   -6.312734
     15          7           0      -29.098552    2.203728   -0.324096
     16          6           0      -28.911400    2.770283   -1.600798
     17          6           0      -29.627762    4.018816   -1.595313
     18          6           0      -30.152568    4.259635   -0.300374
     19          6           0      -29.723690    3.099471    0.519001
     20          6           0      -29.585052    5.002947   -2.744686
     21          6           0      -30.985076    5.354293    0.222251
     22          8           0      -31.193446    5.526582    1.404310
     23          6           0      -31.524205    6.473321   -0.740882
     24          7           0      -29.215022    0.670966    2.337673
     25          6           0      -29.712868    1.798608    2.749105
     26          6           0      -30.016627    1.763735    4.277194
     27          6           0      -29.590803    0.374835    4.717195
     28          6           0      -28.933927   -0.205286    3.413202
     29          6           0      -29.331776    3.010400    5.012056
     30          6           0      -30.753581   -0.462875    5.289976
     31          6           0      -30.926145   -0.479517    6.854852
     32          7           0      -28.000581   -1.499460    0.855598
     33          6           0      -27.962547   -2.108335    2.134587
     34          6           0      -27.478320   -3.433776    2.056854
     35          6           0      -26.937892   -3.485887    0.702085
     36          6           0      -27.338129   -2.282375    0.054159
     37          6           0      -27.207465   -4.355007    3.232268
     38          6           0      -26.178789   -4.341463   -0.133348
     39          8           0      -25.717240   -5.462606    0.038939
     40          6           0      -26.146781   -3.553647   -1.602796
     41          6           0      -24.695766   -3.488136   -1.979397
     42          8           0      -23.820400   -2.942658   -1.299221
     43          8           0      -24.397129   -4.244686   -3.151279
     44          6           0      -22.964375   -4.236607   -3.583036
     45          1           0      -28.197712    2.674573   -3.649585
     46          1           0      -30.178342    3.842449    2.449617
     47          1           0      -28.262767   -2.061578    4.210455
     48          1           0      -25.515305   -1.227582   -3.670690
     49          1           0      -27.603973    0.553446   -4.821269
     50          1           0      -24.858487    0.689278   -4.396671
     51          1           0      -25.560477    2.060967   -3.446000
     52          1           0      -25.764564    1.828332   -5.175670
     53          1           0      -28.350595   -1.438831   -4.805505
     54          1           0      -27.770481   -2.811699   -3.979079
     55          1           0      -27.470284   -2.218092   -6.659604
     56          1           0      -26.528024   -3.474625   -5.779814
     57          1           0      -29.061579    5.926975   -2.499465
     58          1           0      -30.611054    5.193579   -3.062230
     59          1           0      -29.056579    4.673558   -3.639147
     60          1           0      -30.699377    7.174632   -0.869700
     61          1           0      -32.286852    7.066578   -0.236203
     62          1           0      -31.785897    6.057447   -1.713088
     63          1           0      -31.097806    1.898993    4.311958
     64          1           0      -28.746212    0.408955    5.403660
     65          1           0      -28.673335    2.670091    5.811152
     66          1           0      -30.040253    3.645527    5.544187
     67          1           0      -28.755251    3.503184    4.228102
     68          1           0      -30.577488   -1.486213    4.956640
     69          1           0      -31.661214   -0.108209    4.801366
     70          1           0      -30.274606   -1.260033    7.249362
     71          1           0      -31.928627   -0.563627    7.274877
     72          1           0      -30.448157    0.464792    7.113253
     73          1           0      -28.179372   -4.812290    3.415861
     74          1           0      -26.898743   -3.795081    4.114241
     75          1           0      -26.338386   -5.008591    3.146926
     76          1           0      -26.756116   -4.113520   -2.313351
     77          1           0      -22.317556   -4.695521   -2.836158
     78          1           0      -22.504925   -3.281628   -3.839417
     79          1           0      -23.042457   -4.910451   -4.436227
     80         12           0       28.467189    0.455003   -0.188691
     81          6           0       26.113312   -2.017644   -0.065618
     82          6           0       25.801879    2.754008   -0.711493
     83          6           0       30.707091    2.964478    0.078298
     84          6           0       30.788540   -1.726176    1.222310
     85          7           0       26.082181    0.389376    0.006916
     86          6           0       25.415166   -0.783405   -0.183850
     87          6           0       23.937783   -0.519976   -0.278166
     88          6           0       23.828145    1.056328   -0.459246
     89          6           0       25.326482    1.492626   -0.406118
     90          6           0       22.833843    1.541063   -1.450164
     91          6           0       22.945554   -1.142599    0.814174
     92          6           0       23.457029   -1.328763    2.211924
     93          1           0       22.575113   -0.821943    3.344464
     94          7           0       28.304503    2.521707   -0.537578
     95          6           0       27.180127    3.255695   -0.756202
     96          6           0       27.466980    4.652449   -0.899099
     97          6           0       28.950788    4.719187   -0.784353
     98          6           0       29.390208    3.358567   -0.405060
     99          6           0       26.545208    5.748718   -1.149110
    100          6           0       29.871369    5.912772   -0.994676
    101          8           0       29.426097    6.995758   -1.138116
    102          6           0       31.374128    5.902330   -0.945391
    103          7           0       30.380859    0.616474    0.653742
    104          6           0       31.133091    1.710493    0.459783
    105          6           0       32.551081    1.572405    1.226089
    106          6           0       32.662109   -0.029822    1.226054
    107          6           0       31.200199   -0.379103    1.079758
    108          6           0       33.740866    2.267321    0.558117
    109          6           0       33.421743   -0.575693    2.448599
    110          6           0       34.526895   -1.625162    2.280999
    111          7           0       28.442971   -1.457478    0.559735
    112          6           0       29.453692   -2.261489    1.071874
    113          6           0       29.021387   -3.594011    1.242408
    114          6           0       27.720986   -3.605183    0.765550
    115          6           0       27.392379   -2.266223    0.350201
    116          6           0       29.815511   -4.760893    1.742645
    117          6           0       26.567198   -4.340442    0.452423
    118          8           0       26.380866   -5.542458    0.630515
    119          6           0       25.425530   -3.354985    0.072521
    120          6           0       24.891932   -3.931800   -1.230501
    121          8           0       23.686974   -4.182694   -1.444748
    122          8           0       25.937885   -3.973191   -2.122048
    123          6           0       25.732618   -4.249513   -3.564958
    124          1           0       24.934549    3.416631   -0.743131
    125          1           0       31.359209    3.795461    0.354747
    126          1           0       31.543437   -2.419531    1.597977
    127          1           0       23.554708   -1.028191   -1.163837
    128          1           0       23.470144    1.440480    0.495494
    129          1           0       23.234345    2.285539   -2.138142
    130          1           0       21.901102    1.852886   -0.980181
    131          1           0       22.557551    0.720178   -2.111980
    132          1           0       22.580311   -2.140929    0.572989
    133          1           0       22.116568   -0.454446    0.982416
    134          1           0       24.505015   -1.066764    2.353609
    135          1           0       23.397079   -2.395973    2.427927
    136          1           0       25.705384    5.372725   -1.732592
    137          1           0       26.989672    6.593394   -1.674139
    138          1           0       26.191802    6.087069   -0.174418
    139          1           0       31.474727    4.887917   -1.332064
    140          1           0       31.766529    5.975269    0.068427
    141          1           0       31.897889    6.640248   -1.553275
    142          1           0       32.364347    1.899052    2.249541
    143          1           0       33.121023   -0.521662    0.368742
    144          1           0       34.352354    1.483903    0.109579
    145          1           0       34.204254    2.972432    1.247569
    146          1           0       33.449789    2.916327   -0.267281
    147          1           0       32.669735   -0.994244    3.118011
    148          1           0       33.795998    0.277264    3.014923
    149          1           0       35.485715   -1.456785    2.771554
    150          1           0       34.690397   -1.908581    1.240443
    151          1           0       34.030852   -2.527171    2.637935
    152          1           0       29.560331   -5.716538    1.284051
    153          1           0       29.667353   -4.841184    2.819790
    154          1           0       30.884479   -4.671297    1.544932
    155          1           0       24.737023   -3.452856    0.910970
    156          1           0       26.377595   -3.645668   -4.203059
    157          1           0       24.691024   -4.035539   -3.805081
    158          1           0       25.874838   -5.252616   -3.965077
 ---------------------------------------------------------------------

 SCF Done:  E(RCAM-B3LYP) =  -4069.78896533     A.U. after   19 cycles

 Excitation energies and oscillator strengths:

 Excited State   1:      Singlet-A      1.6348 eV  758.42 nm  f=0.3851  <S**2>=0.000
     309 -> 315        0.16910
     311 -> 313        0.68879
     309 <- 315        0.10872
 This state for optimization and/or second-order correction.
 Total Energy, E(TD-HF/TD-DFT) =  -4069.72888852
 Copying the excited state density for this state as the 1-particle RhoCI density.

 Excited State   2:      Singlet-A      1.7264 eV  718.16 nm  f=0.3747  <S**2>=0.000
     310 -> 316        0.17541
     312 -> 314        0.68644
     310 <- 316        0.10553

 Excited State   3:      Singlet-A      2.1489 eV  576.98 nm  f=0.1479  <S**2>=0.000
     309 -> 313        0.65218
     311 -> 315       -0.25538

 Excited State   4:      Singlet-A      2.2226 eV  557.83 nm  f=0.1463  <S**2>=0.000
     310 -> 314        0.65064
     312 -> 316       -0.26125

 Excited State   5:      Singlet-A      3.0631 eV  404.76 nm  f=0.0000  <S**2>=0.000
     312 -> 313        0.70711

 The electronic state is 1-A.
 Alpha  occ. eigenvalues --  -46.89962 -46.87980 -19.26235 -19.24142 -19.20337
 Alpha  occ. eigenvalues --  -19.19444 -19.19265 -19.18490 -19.18213 -19.17252
 Alpha  occ. eigenvalues --  -14.42680 -14.42594 -14.42048 -14.41644 -14.40163
 Alpha  occ. eigenvalues --  -14.40067 -14.39673 -14.39345 -10.40489 -10.39058
 Alpha  occ. eigenvalues --  -10.35466 -10.34331 -10.34289 -10.33590 -10.32834
 Alpha  occ. eigenvalues --  -10.32105 -10.31692 -10.31619 -10.31603 -10.31180
 Alpha  occ. eigenvalues --  -10.31151 -10.31024 -10.30939 -10.30846 -10.30804
 Alpha  occ. eigenvalues --  -10.30773 -10.30710 -10.30686 -10.30190 -10.29693
 Alpha  occ. eigenvalues --  -10.29402 -10.28909 -10.28893 -10.28869 -10.28861
 Alpha  occ. eigenvalues --  -10.28481 -10.28475 -10.28446 -10.28308 -10.28213
 Alpha  occ. eigenvalues --  -10.28098 -10.28041 -10.27982 -10.27971 -10.27928
 Alpha  occ. eigenvalues --  -10.27841 -10.27816 -10.27765 -10.27763 -10.27752
 Alpha  occ. eigenvalues --  -10.27608 -10.27532 -10.27524 -10.27497 -10.27470
 Alpha  occ. eigenvalues --  -10.27244 -10.26874 -10.26804 -10.26804 -10.26790
 Alpha  occ. eigenvalues --  -10.26743 -10.26705 -10.26359 -10.26358 -10.26341
 Alpha  occ. eigenvalues --  -10.26321 -10.26235 -10.26080 -10.25988 -10.25854
 Alpha  occ. eigenvalues --  -10.25846 -10.25798 -10.25527 -10.25178 -10.25095
 Alpha  occ. eigenvalues --  -10.24526  -3.18433  -3.16676  -1.93291  -1.92925
 Alpha  occ. eigenvalues --   -1.92709  -1.91588  -1.91124  -1.90994  -1.15694
 Alpha  occ. eigenvalues --   -1.13439  -1.11430  -1.11121  -1.09370  -1.08619
 Alpha  occ. eigenvalues --   -1.07266  -1.05818  -1.05191  -1.05183  -1.04379
 Alpha  occ. eigenvalues --   -1.03948  -1.03376  -1.02952  -1.02420  -1.02171
 Alpha  occ. eigenvalues --   -0.93708  -0.92100  -0.89858  -0.89291  -0.88974
 Alpha  occ. eigenvalues --   -0.88753  -0.88421  -0.88407  -0.87958  -0.87765
 Alpha  occ. eigenvalues --   -0.87485  -0.87269  -0.86265  -0.85904  -0.84569
 Alpha  occ. eigenvalues --   -0.84330  -0.84014  -0.83117  -0.82986  -0.82203
 Alpha  occ. eigenvalues --   -0.82195  -0.81494  -0.81001  -0.80608  -0.80391
 Alpha  occ. eigenvalues --   -0.80026  -0.78789  -0.78535  -0.77825  -0.77270
 Alpha  occ. eigenvalues --   -0.77011  -0.76864  -0.76715  -0.75862  -0.75495
 Alpha  occ. eigenvalues --   -0.75061  -0.73605  -0.73122  -0.71773  -0.71618
 Alpha  occ. eigenvalues --   -0.70050  -0.69566  -0.69409  -0.68975  -0.68423
 Alpha  occ. eigenvalues --   -0.67985  -0.67290  -0.66588  -0.66292  -0.65788
 Alpha  occ. eigenvalues --   -0.65512  -0.65253  -0.64952  -0.64734  -0.64611
 Alpha  occ. eigenvalues --   -0.64420  -0.63615  -0.61395  -0.60350  -0.60301
 Alpha  occ. eigenvalues --   -0.59642  -0.59414  -0.59319  -0.58908  -0.58533
 Alpha  occ. eigenvalues --   -0.58083  -0.57782  -0.57642  -0.57354  -0.57239
 Alpha  occ. eigenvalues --   -0.56550  -0.56262  -0.55817  -0.55348  -0.55131
 Alpha  occ. eigenvalues --   -0.54975  -0.54628  -0.54484  -0.54005  -0.53991
 Alpha  occ. eigenvalues --   -0.53395  -0.53293  -0.53235  -0.53203  -0.52904
 Alpha  occ. eigenvalues --   -0.52529  -0.52492  -0.52372  -0.52257  -0.52097
 Alpha  occ. eigenvalues --   -0.52051  -0.51866  -0.51824  -0.51594  -0.51370
 Alpha  occ. eigenvalues --   -0.51099  -0.51019  -0.50713  -0.50612  -0.50562
 Alpha  occ. eigenvalues --   -0.50138  -0.50001  -0.49871  -0.49733  -0.49608
 Alpha  occ. eigenvalues --   -0.49514  -0.49482  -0.49288  -0.49203  -0.49085
 Alpha  occ. eigenvalues --   -0.49017  -0.48570  -0.48383  -0.48248  -0.48147
 Alpha  occ. eigenvalues --   -0.47890  -0.47656  -0.47580  -0.47500  -0.47325
 Alpha  occ. eigenvalues --   -0.47242  -0.47217  -0.47142  -0.47102  -0.46933
 Alpha  occ. eigenvalues --   -0.46920  -0.46710  -0.46433  -0.46162  -0.45773
 Alpha  occ. eigenvalues --   -0.45635  -0.45549  -0.45337  -0.45074  -0.45050
 Alpha  occ. eigenvalues --   -0.45039  -0.44903  -0.44689  -0.44537  -0.44256
 Alpha  occ. eigenvalues --   -0.44173  -0.44092  -0.44019  -0.43895  -0.43402
 Alpha  occ. eigenvalues --   -0.43375  -0.43091  -0.43020  -0.42885  -0.42727
 Alpha  occ. eigenvalues --   -0.42656  -0.42616  -0.42477  -0.42392  -0.42094
 Alpha  occ. eigenvalues --   -0.42000  -0.41963  -0.41839  -0.41745  -0.41502
 Alpha  occ. eigenvalues --   -0.41497  -0.41305  -0.41304  -0.40818  -0.40582
 Alpha  occ. eigenvalues --   -0.40265  -0.40247  -0.39865  -0.39430  -0.39050
 Alpha  occ. eigenvalues --   -0.38693  -0.38625  -0.38004  -0.37780  -0.37384
 Alpha  occ. eigenvalues --   -0.37232  -0.36987  -0.36899  -0.36166  -0.36163
 Alpha  occ. eigenvalues --   -0.35782  -0.35621  -0.34800  -0.34375  -0.33881
 Alpha  occ. eigenvalues --   -0.33853  -0.33513  -0.33100  -0.31661  -0.31586
 Alpha  occ. eigenvalues --   -0.31076  -0.30911  -0.30522  -0.30511  -0.29776
 Alpha  occ. eigenvalues --   -0.29564  -0.29484  -0.28367  -0.24478  -0.24189
 Alpha  occ. eigenvalues --   -0.21735  -0.21547
 Alpha virt. eigenvalues --   -0.09681  -0.09058  -0.01974  -0.01655   0.00128
 Alpha virt. eigenvalues --    0.00210   0.00984   0.02397   0.02677   0.03743
 Alpha virt. eigenvalues --    0.04555   0.04709   0.04898   0.05208   0.05897

 Mulliken charges:
               1
     1  Mg   0.837754
     2  C   -0.064333
     3  C   -0.101920
     4  C   -0.064657
     5  C   -0.069219
     6  N   -0.258938
     7  C   -0.042793
     8  C    0.004748
     9  C   -0.089126
    10  C    0.049842
    11  C    0.062947
    12  C    0.057723
    13  C   -0.049645
    14  H    0.021463
    15  N   -0.445160
    16  C    0.218500
    17  C   -0.136267
    18  C    0.001382
    19  C    0.123263
    20  C    0.099294
    21  C   -0.029025
    22  O   -0.193698
    23  C    0.055178
    24  N   -0.251938
    25  C    0.025429
    26  C   -0.042234
    27  C    0.006484
    28  C    0.003634
    29  C    0.061045
    30  C    0.040833
    31  C    0.012898
    32  N   -0.354128
    33  C    0.120112
    34  C   -0.140565
    35  C   -0.036381
    36  C    0.156042
    37  C    0.107126
    38  C    0.042564
    39  O   -0.174806
    40  C   -0.012641
    41  C    0.224447
    42  O   -0.232315
    43  O   -0.374599
    44  C    0.182345
    45  H   -0.020865
    46  H    0.005681
    47  H   -0.023862
    48  H    0.019848
    49  H    0.013822
    50  H    0.012103
    51  H    0.027936
    52  H    0.000683
    53  H    0.000788
    54  H    0.001726
    55  H    0.026170
    56  H    0.043850
    57  H    0.040765
    58  H    0.027829
    59  H    0.006501
    60  H    0.030785
    61  H    0.029456
    62  H    0.018264
    63  H    0.021894
    64  H    0.001258
    65  H    0.008341
    66  H    0.023163
    67  H    0.031269
    68  H    0.001444
    69  H    0.002351
    70  H    0.015189
    71  H    0.031742
    72  H    0.007755
    73  H    0.031010
    74  H    0.017758
    75  H    0.040074
    76  H    0.041921
    77  H    0.040489
    78  H    0.036942
    79  H    0.035255
    80  Mg   0.824959
    81  C    0.019302
    82  C   -0.076962
    83  C   -0.075317
    84  C   -0.091248
    85  N   -0.272160
    86  C   -0.046268
    87  C    0.019122
    88  C   -0.037948
    89  C    0.011848
    90  C    0.090877
    91  C    0.034494
    92  C   -0.113680
    93  H    0.011960
    94  N   -0.363507
    95  C    0.155760
    96  C   -0.164917
    97  C   -0.053239
    98  C    0.113969
    99  C    0.136386
   100  C   -0.034862
   101  O   -0.178704
   102  C    0.046385
   103  N   -0.288400
   104  C    0.057801
   105  C   -0.083497
   106  C   -0.035970
   107  C    0.048025
   108  C    0.096422
   109  C    0.030963
   110  C    0.010217
   111  N   -0.351637
   112  C    0.123566
   113  C   -0.172824
   114  C    0.107933
   115  C    0.078490
   116  C    0.118781
   117  C   -0.023659
   118  O   -0.180928
   119  C   -0.040751
   120  C    0.244523
   121  O   -0.225268
   122  O   -0.349249
   123  C    0.180473
   124  H   -0.016076
   125  H   -0.017625
   126  H   -0.037877
   127  H    0.015012
   128  H    0.022357
   129  H    0.014212
   130  H    0.019010
   131  H    0.005481
   132  H    0.034708
   133  H    0.020730
   134  H    0.042985
   135  H    0.034004
   136  H    0.010763
   137  H    0.039534
   138  H    0.029649
   139  H    0.015080
   140  H    0.049015
   141  H    0.031111
   142  H    0.029329
   143  H    0.016135
   144  H    0.016714
   145  H    0.016751
   146  H    0.012741
   147  H    0.006074
   148  H    0.002124
   149  H    0.033176
   150  H    0.005110
   151  H    0.010968
   152  H    0.037313
   153  H    0.037078
   154  H    0.010966
   155  H    0.037027
   156  H    0.035822
   157  H    0.037909
   158  H    0.041430
 Sum of Mulliken charges =  -0.00000

 Dipole moment (field-independent basis, Debye):
    X=              1.8882    Y=              4.1956    Z=             -4.1766  Tot=              6.2139
 Quadrupole moment (field-independent basis, Debye-Ang):
   XX=           -151.7435   YY=           -589.2283   ZZ=           -463.4119
   XY=           -121.6354   XZ=             59.1152   YZ=             -0.0701

 Normal termination of Gaussian 16 at Thu Sep 16 05:36:47 2021.
