 Gaussian 16, Revision A.03,
 Gaussian 16:  ES64L-G16RevA.03 25-Dec-2016

 -----------------------------------
 #p cam-b3lyp/Def2SVP td=(nstates=5)
 -----------------------------------

 --------------------------------
 TDDFT excited states in gaussian
 --------------------------------
 Symbolic Z-matrix:
 Charge =  0 Multiplicity = 1

                         Standard orientation:
 ---------------------------------------------------------------------
 Center     Atomic      Atomic             Coordinates (Angstroms)
 Number     Number       Type             X           Y           Z
 ---------------------------------------------------------------------
      1         12           0      -25.806702   -0.461774   -0.203703
      2          6           0      -24.463980    2.534222   -1.216087
      3          6           0      -26.488795    1.032311    2.952574
      4          6           0      -26.660837   -3.453971    1.117994
      5          6           0      -24.860687   -1.951301   -3.056246
      6          7           0      -25.499778    1.564626    0.753193
      7          6           0      -24.906676    2.616312    0.107788
      8          6           0      -24.943316    3.881160    0.968460
      9          6           0      -25.425475    3.275098    2.366521
     10          6           0      -25.830010    1.872532    2.018208
     11          6           0      -24.367475    3.402464    3.523290
     12          6           0      -25.936189    5.003550    0.416896
     13          6           0      -25.568089    6.467164    0.375338
     14          1           0      -24.951069    7.076364    1.583942
     15          7           0      -26.541431   -1.150158    1.761566
     16          6           0      -26.909476   -0.384322    2.812152
     17          6           0      -27.577825   -1.152628    3.808378
     18          6           0      -27.675708   -2.480350    3.284723
     19          6           0      -26.872906   -2.401269    2.027904
     20          6           0      -27.963139   -0.484788    5.088824
     21          6           0      -28.231397   -3.727339    3.951176
     22          8           0      -28.010056   -4.862814    3.518990
     23          6           0      -29.076881   -3.611241    5.207324
     24          7           0      -25.628376   -2.492104   -0.821721
     25          6           0      -26.177243   -3.532937   -0.141697
     26          6           0      -26.153796   -4.803960   -0.989034
     27          6           0      -25.729350   -4.252017   -2.402888
     28          6           0      -25.389769   -2.808155   -2.089670
     29          6           0      -25.374064   -6.069764   -0.525405
     30          6           0      -26.763422   -4.454220   -3.587885
     31          6           0      -27.772030   -3.374453   -3.918278
     32          7           0      -24.781815    0.093626   -1.766932
     33          6           0      -24.558914   -0.538646   -2.963771
     34          6           0      -23.830872    0.249199   -3.890313
     35          6           0      -23.807762    1.494648   -3.270481
     36          6           0      -24.416752    1.351930   -1.997158
     37          6           0      -23.281396   -0.021778   -5.284799
     38          6           0      -23.386854    2.823175   -3.370415
     39          8           0      -22.754762    3.346837   -4.269296
     40          6           0      -23.765324    3.627889   -2.003693
     41          6           0      -22.524039    4.111971   -1.412317
     42          8           0      -21.605351    3.402599   -0.956480
     43          8           0      -22.405257    5.465912   -1.436516
     44          6           0      -21.093205    6.066981   -1.171960
     45          1           0      -26.725888    1.618540    3.842426
     46          1           0      -27.185257   -4.367345    1.405694
     47          1           0      -24.874627   -2.284106   -4.095494
     48          1           0      -23.952326    4.336549    0.951386
     49          1           0      -26.283292    3.819882    2.761169
     50          1           0      -24.822005    3.985916    4.323234
     51          1           0      -23.488296    3.832290    3.042982
     52          1           0      -24.125237    2.472259    4.038132
     53          1           0      -26.789297    4.873108    1.082929
     54          1           0      -26.388580    4.695504   -0.525142
     55          1           0      -26.416373    7.054567    0.024022
     56          1           0      -24.762761    6.540570   -0.354632
     57          1           0      -28.983092   -0.817143    5.278576
     58          1           0      -28.011544    0.597014    4.962024
     59          1           0      -27.332251   -0.696079    5.952885
     60          1           0      -29.804460   -2.799562    5.179404
     61          1           0      -28.435364   -3.672867    6.087460
     62          1           0      -29.674443   -4.523346    5.208464
     63          1           0      -27.184687   -5.153904   -0.931040
     64          1           0      -24.891463   -4.798192   -2.834547
     65          1           0      -24.494464   -6.221376   -1.150873
     66          1           0      -26.053038   -6.911233   -0.662323
     67          1           0      -25.123205   -5.893844    0.520069
     68          1           0      -27.319566   -5.362029   -3.358018
     69          1           0      -26.225106   -4.623938   -4.520635
     70          1           0      -28.788818   -3.766267   -3.954060
     71          1           0      -27.572593   -2.864391   -4.861639
     72          1           0      -27.677278   -2.650444   -3.108978
     73          1           0      -23.558528   -1.032696   -5.586152
     74          1           0      -22.198561    0.104986   -5.273107
     75          1           0      -23.713809    0.704115   -5.972846
     76          1           0      -24.313808    4.470559   -2.425611
     77          1           0      -20.968603    7.064804   -1.592810
     78          1           0      -20.233477    5.433480   -1.388168
     79          1           0      -21.105039    6.301490   -0.107439
     80         12           0       24.918141   -0.681205    0.069913
     81          6           0       26.423741    2.342051   -0.503368
     82          6           0       23.277040    0.615039    2.682557
     83          6           0       23.710300   -3.774327    0.650322
     84          6           0       27.112984   -2.140610   -2.434498
     85          7           0       25.087361    1.247755    1.148041
     86          6           0       25.661111    2.364492    0.684071
     87          6           0       25.316667    3.620613    1.637597
     88          6           0       24.288660    2.941180    2.617677
     89          6           0       24.214155    1.467352    2.170384
     90          6           0       24.609096    3.169893    4.107630
     91          6           0       24.735565    4.845856    0.876405
     92          6           0       24.034490    5.970264    1.706534
     93          1           0       24.835734    7.304254    1.955066
     94          7           0       23.690343   -1.485707    1.519138
     95          6           0       23.039804   -0.795542    2.432615
     96          6           0       22.183840   -1.704807    3.179440
     97          6           0       22.352118   -3.037550    2.696998
     98          6           0       23.280256   -2.806908    1.568226
     99          6           0       21.364772   -1.338325    4.406009
    100          6           0       21.789728   -4.360171    3.207359
    101          8           0       22.270177   -5.432165    2.850951
    102          6           0       20.642718   -4.331528    4.155875
    103          7           0       25.393295   -2.686691   -0.752645
    104          6           0       24.719832   -3.766252   -0.373417
    105          6           0       25.045108   -4.987610   -1.249193
    106          6           0       25.942738   -4.350018   -2.306475
    107          6           0       26.184419   -2.988090   -1.771242
    108          6           0       25.643053   -6.226509   -0.566076
    109          6           0       25.448812   -4.523606   -3.720425
    110          6           0       26.369875   -5.359176   -4.679329
    111          7           0       26.380909   -0.073605   -1.222633
    112          6           0       27.138075   -0.735912   -2.246369
    113          6           0       27.939447    0.206482   -2.995870
    114          6           0       27.637529    1.417167   -2.312432
    115          6           0       26.725363    1.184881   -1.275334
    116          6           0       28.734228    0.054544   -4.244686
    117          6           0       27.840555    2.833920   -2.481271
    118          8           0       28.340856    3.536111   -3.372607
    119          6           0       27.208590    3.517829   -1.294785
    120          6           0       28.335300    4.028735   -0.369914
    121          8           0       29.376176    3.436485   -0.046120
    122          8           0       27.984286    5.275882    0.054303
    123          6           0       28.943461    6.004683    0.943560
    124          1           0       22.595829    0.940637    3.471489
    125          1           0       23.531127   -4.824895    0.888363
    126          1           0       27.637592   -2.623230   -3.261054
    127          1           0       26.262198    3.832892    2.135285
    128          1           0       23.305836    3.359537    2.400685
    129          1           0       23.665270    3.397878    4.601728
    130          1           0       25.256407    4.033994    4.257748
    131          1           0       25.069805    2.285089    4.547082
    132          1           0       23.902234    4.448011    0.297309
    133          1           0       25.521429    5.331792    0.298255
    134          1           0       23.910577    5.582568    2.718213
    135          1           0       23.111469    6.252084    1.201039
    136          1           0       21.465276   -0.280750    4.649902
    137          1           0       21.704755   -1.923448    5.260148
    138          1           0       20.306506   -1.555876    4.267320
    139          1           0       19.914876   -3.659408    3.700477
    140          1           0       20.736656   -4.008578    5.192242
    141          1           0       20.186663   -5.310896    4.296548
    142          1           0       24.115750   -5.314301   -1.714491
    143          1           0       26.896717   -4.876157   -2.276673
    144          1           0       25.157960   -7.062785   -1.068886
    145          1           0       25.491478   -6.181432    0.512294
    146          1           0       26.730609   -6.283771   -0.610181
    147          1           0       25.471200   -3.511952   -4.124337
    148          1           0       24.459729   -4.976074   -3.785679
    149          1           0       27.270796   -5.672310   -4.151030
    150          1           0       26.668026   -4.699347   -5.494667
    151          1           0       25.885625   -6.196817   -5.181487
    152          1           0       28.552172   -0.923889   -4.688455
    153          1           0       29.772992    0.023967   -3.917872
    154          1           0       28.408859    0.877905   -4.882180
    155          1           0       26.638271    4.336946   -1.733240
    156          1           0       29.348779    5.418059    1.768355
    157          1           0       28.562419    6.944338    1.342140
    158          1           0       29.808508    6.220477    0.316713
 ---------------------------------------------------------------------

 SCF Done:  E(RCAM-B3LYP) =  -4069.83546092     A.U. after   19 cycles

 Excitation energies and oscillator strengths:

 Excited State   1:      Singlet-A      1.7199 eV  720.86 nm  f=0.3908  <S**2>=0.000
     310 -> 316       -0.17803
     311 -> 313        0.68619
     310 <- 316       -0.10689
 This state for optimization and/or second-order correction.
 Total Energy, E(TD-HF/TD-DFT) =  -4069.77225421
 Copying the excited state density for this state as the 1-particle RhoCI density.

 Excited State   2:      Singlet-A      1.7216 eV  720.18 nm  f=0.4283  <S**2>=0.000
     309 -> 315       -0.17571
     312 -> 314        0.68347
     309 <- 315       -0.10314

 Excited State   3:      Singlet-A      2.1905 eV  566.01 nm  f=0.1748  <S**2>=0.000
     310 -> 313        0.66248
     311 -> 316        0.23744

 Excited State   4:      Singlet-A      2.2690 eV  546.42 nm  f=0.1129  <S**2>=0.000
     309 -> 314        0.63909
     312 -> 315        0.28653

 Excited State   5:      Singlet-A      3.0744 eV  403.29 nm  f=0.0000  <S**2>=0.000
     312 -> 313        0.70711

 The electronic state is 1-A.
 Alpha  occ. eigenvalues --  -46.89169 -46.89135 -19.25606 -19.25110 -19.19518
 Alpha  occ. eigenvalues --  -19.19433 -19.18900 -19.18627 -19.18563 -19.17657
 Alpha  occ. eigenvalues --  -14.42163 -14.42049 -14.41711 -14.41570 -14.40068
 Alpha  occ. eigenvalues --  -14.39607 -14.39530 -14.39258 -10.39536 -10.38974
 Alpha  occ. eigenvalues --  -10.36076 -10.35390 -10.34555 -10.33323 -10.32163
 Alpha  occ. eigenvalues --  -10.31661 -10.31659 -10.31103 -10.30949 -10.30905
 Alpha  occ. eigenvalues --  -10.30470 -10.30455 -10.30364 -10.30291 -10.30156
 Alpha  occ. eigenvalues --  -10.30102 -10.30080 -10.30001 -10.29965 -10.29910
 Alpha  occ. eigenvalues --  -10.29331 -10.29038 -10.28785 -10.28608 -10.28562
 Alpha  occ. eigenvalues --  -10.28484 -10.28386 -10.28366 -10.28303 -10.28079
 Alpha  occ. eigenvalues --  -10.28045 -10.28034 -10.28030 -10.28003 -10.27970
 Alpha  occ. eigenvalues --  -10.27752 -10.27711 -10.27527 -10.27519 -10.27486
 Alpha  occ. eigenvalues --  -10.27473 -10.27342 -10.27006 -10.27005 -10.26940
 Alpha  occ. eigenvalues --  -10.26895 -10.26733 -10.26687 -10.26634 -10.26505
 Alpha  occ. eigenvalues --  -10.26474 -10.26447 -10.26258 -10.26238 -10.26225
 Alpha  occ. eigenvalues --  -10.26207 -10.26205 -10.26162 -10.26095 -10.25740
 Alpha  occ. eigenvalues --  -10.25694 -10.25643 -10.25235 -10.25066 -10.24649
 Alpha  occ. eigenvalues --  -10.24378  -3.17744  -3.17693  -1.92627  -1.92585
 Alpha  occ. eigenvalues --   -1.92160  -1.92142  -1.92093  -1.92007  -1.15893
 Alpha  occ. eigenvalues --   -1.15540  -1.10367  -1.09920  -1.09486  -1.07947
 Alpha  occ. eigenvalues --   -1.06519  -1.05887  -1.05709  -1.05404  -1.04670
 Alpha  occ. eigenvalues --   -1.04365  -1.04183  -1.03856  -1.03509  -1.02936
 Alpha  occ. eigenvalues --   -0.92644  -0.91250  -0.89900  -0.89050  -0.88709
 Alpha  occ. eigenvalues --   -0.88285  -0.88230  -0.88151  -0.87811  -0.87532
 Alpha  occ. eigenvalues --   -0.87447  -0.87136  -0.86982  -0.86452  -0.84314
 Alpha  occ. eigenvalues --   -0.84170  -0.83796  -0.83314  -0.82712  -0.82338
 Alpha  occ. eigenvalues --   -0.82147  -0.81870  -0.81197  -0.81088  -0.80353
 Alpha  occ. eigenvalues --   -0.80020  -0.78515  -0.78419  -0.77537  -0.77508
 Alpha  occ. eigenvalues --   -0.77130  -0.76720  -0.76283  -0.76078  -0.75523
 Alpha  occ. eigenvalues --   -0.75331  -0.73572  -0.72614  -0.71665  -0.71576
 Alpha  occ. eigenvalues --   -0.69662  -0.69424  -0.69244  -0.69091  -0.68160
 Alpha  occ. eigenvalues --   -0.67690  -0.67556  -0.67159  -0.65826  -0.65665
 Alpha  occ. eigenvalues --   -0.65152  -0.64869  -0.64799  -0.64442  -0.64241
 Alpha  occ. eigenvalues --   -0.63924  -0.62616  -0.62276  -0.60710  -0.60209
 Alpha  occ. eigenvalues --   -0.59865  -0.59638  -0.59098  -0.58861  -0.58619
 Alpha  occ. eigenvalues --   -0.58326  -0.57968  -0.57943  -0.57419  -0.57322
 Alpha  occ. eigenvalues --   -0.56290  -0.56273  -0.55640  -0.55438  -0.55124
 Alpha  occ. eigenvalues --   -0.55011  -0.54909  -0.54520  -0.54174  -0.54106
 Alpha  occ. eigenvalues --   -0.53723  -0.53381  -0.53333  -0.53161  -0.52819
 Alpha  occ. eigenvalues --   -0.52780  -0.52625  -0.52554  -0.52252  -0.52146
 Alpha  occ. eigenvalues --   -0.52115  -0.51664  -0.51467  -0.51169  -0.51095
 Alpha  occ. eigenvalues --   -0.50788  -0.50687  -0.50595  -0.50462  -0.50302
 Alpha  occ. eigenvalues --   -0.49949  -0.49872  -0.49770  -0.49674  -0.49569
 Alpha  occ. eigenvalues --   -0.49347  -0.49262  -0.49123  -0.49022  -0.48949
 Alpha  occ. eigenvalues --   -0.48828  -0.48791  -0.48594  -0.48550  -0.48243
 Alpha  occ. eigenvalues --   -0.48147  -0.47855  -0.47774  -0.47639  -0.47576
 Alpha  occ. eigenvalues --   -0.47282  -0.47175  -0.46885  -0.46768  -0.46551
 Alpha  occ. eigenvalues --   -0.46364  -0.46198  -0.46121  -0.45989  -0.45950
 Alpha  occ. eigenvalues --   -0.45918  -0.45346  -0.45020  -0.44965  -0.44677
 Alpha  occ. eigenvalues --   -0.44517  -0.44499  -0.44388  -0.44110  -0.43989
 Alpha  occ. eigenvalues --   -0.43973  -0.43956  -0.43844  -0.43655  -0.43574
 Alpha  occ. eigenvalues --   -0.43402  -0.43243  -0.42995  -0.42902  -0.42740
 Alpha  occ. eigenvalues --   -0.42259  -0.42189  -0.41999  -0.41969  -0.41911
 Alpha  occ. eigenvalues --   -0.41855  -0.41818  -0.41550  -0.41510  -0.41350
 Alpha  occ. eigenvalues --   -0.41143  -0.41077  -0.40820  -0.40653  -0.40408
 Alpha  occ. eigenvalues --   -0.40019  -0.39865  -0.39553  -0.39258  -0.39071
 Alpha  occ. eigenvalues --   -0.38541  -0.38264  -0.38248  -0.37849  -0.37372
 Alpha  occ. eigenvalues --   -0.37034  -0.36662  -0.36639  -0.36186  -0.36059
 Alpha  occ. eigenvalues --   -0.35938  -0.35704  -0.34585  -0.34269  -0.33985
 Alpha  occ. eigenvalues --   -0.33472  -0.33340  -0.32912  -0.31948  -0.31364
 Alpha  occ. eigenvalues --   -0.31249  -0.31089  -0.30920  -0.30572  -0.30448
 Alpha  occ. eigenvalues --   -0.30123  -0.29952  -0.29650  -0.23896  -0.23865
 Alpha  occ. eigenvalues --   -0.21496  -0.21087
 Alpha virt. eigenvalues --   -0.09115  -0.08534  -0.01753  -0.01221   0.00197
 Alpha virt. eigenvalues --    0.00593   0.01816   0.01914   0.02445   0.02569
 Alpha virt. eigenvalues --    0.04727   0.04918   0.05695   0.06121   0.06311

 Mulliken charges:
               1
     1  Mg   0.838565
     2  C    0.011612
     3  C   -0.053542
     4  C   -0.054109
     5  C   -0.074730
     6  N   -0.259011
     7  C   -0.044633
     8  C   -0.039950
     9  C   -0.067776
    10  C    0.025081
    11  C    0.071343
    12  C    0.050796
    13  C   -0.046907
    14  H    0.016623
    15  N   -0.276116
    16  C    0.108834
    17  C   -0.140174
    18  C   -0.038856
    19  C    0.073763
    20  C    0.126611
    21  C   -0.001533
    22  O   -0.216464
    23  C    0.046153
    24  N   -0.278517
    25  C    0.028276
    26  C   -0.031840
    27  C    0.005477
    28  C    0.043863
    29  C    0.083006
    30  C   -0.011478
    31  C    0.012518
    32  N   -0.385152
    33  C    0.091423
    34  C   -0.180248
    35  C    0.092691
    36  C    0.102458
    37  C    0.138699
    38  C   -0.042508
    39  O   -0.171702
    40  C    0.016078
    41  C    0.193116
    42  O   -0.252933
    43  O   -0.327420
    44  C    0.186375
    45  H   -0.035440
    46  H   -0.008334
    47  H   -0.023976
    48  H    0.024570
    49  H    0.018112
    50  H    0.010047
    51  H    0.028597
    52  H    0.019035
    53  H   -0.011553
    54  H    0.007819
    55  H    0.032260
    56  H    0.033335
    57  H    0.009185
    58  H    0.014690
    59  H    0.039611
    60  H    0.033228
    61  H    0.047631
    62  H    0.024861
    63  H    0.009835
    64  H    0.009921
    65  H    0.015162
    66  H    0.018550
    67  H    0.029840
    68  H    0.004420
    69  H    0.004798
    70  H    0.014823
    71  H    0.015395
    72  H    0.016059
    73  H    0.004405
    74  H    0.043804
    75  H    0.038569
    76  H    0.030576
    77  H    0.035065
    78  H    0.058240
    79  H    0.019092
    80  Mg   0.832102
    81  C   -0.058946
    82  C   -0.068391
    83  C   -0.048465
    84  C   -0.064226
    85  N   -0.282669
    86  C   -0.070727
    87  C    0.037231
    88  C   -0.103344
    89  C    0.096663
    90  C    0.074349
    91  C    0.030363
    92  C   -0.078897
    93  H   -0.000483
    94  N   -0.351759
    95  C    0.093661
    96  C   -0.163046
    97  C   -0.023576
    98  C    0.114237
    99  C    0.115767
   100  C    0.042810
   101  O   -0.195752
   102  C    0.027063
   103  N   -0.202759
   104  C   -0.029767
   105  C   -0.063757
   106  C   -0.010507
   107  C   -0.014905
   108  C    0.083985
   109  C    0.049332
   110  C   -0.014702
   111  N   -0.364344
   112  C    0.117916
   113  C   -0.165064
   114  C   -0.033237
   115  C    0.166904
   116  C    0.154757
   117  C    0.031407
   118  O   -0.204155
   119  C    0.011462
   120  C    0.227303
   121  O   -0.237196
   122  O   -0.334636
   123  C    0.179448
   124  H   -0.045389
   125  H    0.005821
   126  H   -0.021660
   127  H    0.012712
   128  H    0.012084
   129  H    0.012181
   130  H    0.020267
   131  H    0.026669
   132  H    0.007769
   133  H    0.051198
   134  H    0.027690
   135  H    0.042493
   136  H    0.007538
   137  H    0.029950
   138  H    0.019404
   139  H    0.028821
   140  H    0.041993
   141  H    0.025836
   142  H    0.012616
   143  H   -0.000594
   144  H    0.024231
   145  H    0.022906
   146  H    0.008023
   147  H    0.006260
   148  H    0.012174
   149  H    0.013260
   150  H    0.012262
   151  H    0.019507
   152  H   -0.002870
   153  H    0.041539
   154  H    0.058659
   155  H    0.040262
   156  H    0.041150
   157  H    0.045315
   158  H    0.038471
 Sum of Mulliken charges =  -0.00000

 Dipole moment (field-independent basis, Debye):
    X=             -8.4160    Y=              0.5492    Z=              4.0136  Tot=              9.3402
 Quadrupole moment (field-independent basis, Debye-Ang):
   XX=           -546.1516   YY=           -506.4631   ZZ=           -491.5490
   XY=            -61.2183   XZ=             18.2824   YZ=             59.7983

 Normal termination of Gaussian 16 at Fri Sep  3 04:13:39 2021.
