 Gaussian 16, Revision A.03,
 Gaussian 16:  ES64L-G16RevA.03 25-Dec-2016

 -----------------------------------
 #p cam-b3lyp/Def2SVP td=(nstates=5)
 -----------------------------------

 --------------------------------
 TDDFT excited states in gaussian
 --------------------------------
 Symbolic Z-matrix:
 Charge =  0 Multiplicity = 1

                         Standard orientation:
 ---------------------------------------------------------------------
 Center     Atomic      Atomic             Coordinates (Angstroms)
 Number     Number       Type             X           Y           Z
 ---------------------------------------------------------------------
      1         12           0       -9.024933    0.301051   -0.123911
      2          6           0       -7.027911   -2.322811   -0.993914
      3          6           0      -10.514900   -1.757857    2.336741
      4          6           0      -11.161837    2.773796    0.605751
      5          6           0       -7.459724    2.225128   -2.500217
      6          7           0       -9.031979   -1.862581    0.384249
      7          6           0       -8.014932   -2.720917   -0.052711
      8          6           0       -8.112210   -4.123372    0.611827
      9          6           0       -9.283829   -3.846277    1.590971
     10          6           0       -9.702976   -2.400243    1.396985
     11          6           0      -10.562446   -4.786608    1.645157
     12          6           0       -6.807833   -4.658246    1.351462
     13          6           0       -7.039213   -6.047350    2.004406
     14          1           0       -6.321732   -7.184368    1.275532
     15          7           0      -10.621998    0.491618    1.348586
     16          6           0      -10.877598   -0.385150    2.380902
     17          6           0      -12.004611    0.182891    3.111363
     18          6           0      -12.188295    1.503869    2.589807
     19          6           0      -11.300329    1.667907    1.482165
     20          6           0      -12.650133   -0.563021    4.214782
     21          6           0      -13.312748    2.474590    3.093683
     22          8           0      -13.621454    3.535258    2.513498
     23          6           0      -14.139102    2.107025    4.298475
     24          7           0       -9.282021    2.109393   -0.822051
     25          6           0      -10.278275    3.020917   -0.372181
     26          6           0      -10.393078    4.202348   -1.308628
     27          6           0       -8.986345    4.202250   -1.903852
     28          6           0       -8.488644    2.777707   -1.704637
     29          6           0      -11.512252    4.020721   -2.388310
     30          6           0       -8.021531    5.151909   -1.159160
     31          6           0       -7.989768    6.601912   -1.561612
     32          7           0       -7.556818    0.092028   -1.556207
     33          6           0       -6.910531    0.968135   -2.342240
     34          6           0       -5.905657    0.278660   -3.096357
     35          6           0       -5.884756   -1.008645   -2.603170
     36          6           0       -6.888717   -1.070065   -1.624275
     37          6           0       -5.047746    0.963364   -4.102392
     38          6           0       -5.232155   -2.241770   -2.725903
     39          8           0       -4.297450   -2.597385   -3.417454
     40          6           0       -5.962194   -3.180971   -1.655162
     41          6           0       -6.490936   -4.369921   -2.376312
     42          8           0       -7.382426   -4.392995   -3.189634
     43          8           0       -5.950559   -5.499175   -1.908705
     44          6           0       -6.447711   -6.788180   -2.527224
     45          1           0      -10.812943   -2.397992    3.169547
     46          1           0      -11.847469    3.591444    0.837028
     47          1           0       -6.832430    2.803543   -3.181161
     48          1           0       -8.423249   -4.842652   -0.145863
     49          1           0       -8.910713   -3.861163    2.615451
     50          1           0      -10.996932   -4.954894    2.630910
     51          1           0      -10.385492   -5.684362    1.052584
     52          1           0      -11.336206   -4.206415    1.142570
     53          1           0       -6.565381   -3.853396    2.044302
     54          1           0       -6.003164   -4.720475    0.618953
     55          1           0       -8.106149   -6.216746    2.149521
     56          1           0       -6.583037   -6.002232    2.992892
     57          1           0      -13.652335   -0.841447    3.888381
     58          1           0      -12.547715    0.067782    5.097802
     59          1           0      -12.082850   -1.461414    4.458478
     60          1           0      -14.824875    2.919347    4.539218
     61          1           0      -13.416642    2.098241    5.115764
     62          1           0      -14.671313    1.156795    4.263426
     63          1           0      -10.616825    5.118615   -0.761583
     64          1           0       -8.965868    4.440499   -2.967101
     65          1           0      -11.206663    3.309351   -3.154572
     66          1           0      -11.763860    4.981743   -2.837683
     67          1           0      -12.381362    3.656123   -1.841864
     68          1           0       -6.992221    4.795522   -1.158351
     69          1           0       -8.226933    5.111164   -0.089372
     70          1           0       -8.258970    7.175724   -0.675296
     71          1           0       -8.850303    6.689782   -2.225011
     72          1           0       -7.067791    6.917251   -2.050372
     73          1           0       -4.092042    1.240585   -3.659259
     74          1           0       -5.481041    1.774914   -4.687787
     75          1           0       -4.812083    0.195645   -4.839599
     76          1           0       -5.224176   -3.492385   -0.915582
     77          1           0       -7.536766   -6.761021   -2.484708
     78          1           0       -6.138087   -7.676846   -1.976595
     79          1           0       -6.092869   -6.819710   -3.557601
     80         12           0        8.412390    1.102426    0.379204
     81          6           0       10.557060   -1.705590    0.623025
     82          6           0        5.810486   -1.213015    0.083525
     83          6           0        6.270234    3.587134    0.249091
     84          6           0       11.183078    3.141830   -0.124829
     85          7           0        8.253878   -1.176969    0.395220
     86          6           0        9.220825   -2.101212    0.651965
     87          6           0        8.765067   -3.570459    0.653304
     88          6           0        7.203635   -3.316432    0.343191
     89          6           0        7.118000   -1.821155    0.259509
     90          6           0        6.695665   -3.957934   -1.008328
     91          6           0        9.005732   -4.284455    2.023309
     92          6           0       10.007630   -5.410531    2.246774
     93          1           0        9.714078   -6.549387    3.214417
     94          7           0        6.311145    1.209959    0.268516
     95          6           0        5.414444    0.148130    0.081388
     96          6           0        4.100665    0.721460   -0.107935
     97          6           0        4.176688    2.097131    0.095471
     98          6           0        5.620302    2.347994    0.272638
     99          6           0        2.935439   -0.199517   -0.234490
    100          6           0        3.109769    3.189765    0.036137
    101          8           0        3.326853    4.393240    0.206978
    102          6           0        1.705061    2.749494   -0.095851
    103          7           0        8.643921    3.082452   -0.000536
    104          6           0        7.637032    3.985110    0.202280
    105          6           0        8.204878    5.435717    0.365680
    106          6           0        9.699651    5.244610    0.143887
    107          6           0        9.871377    3.716964   -0.083559
    108          6           0        7.504819    6.488798   -0.554171
    109          6           0       10.474327    5.776541    1.359234
    110          6           0       11.689659    6.596251    1.119095
    111          7           0       10.456261    0.829574    0.160987
    112          6           0       11.466524    1.742154   -0.008928
    113          6           0       12.749295    1.105012   -0.024351
    114          6           0       12.503366   -0.311448    0.328930
    115          6           0       11.058939   -0.392757    0.432854
    116          6           0       14.096055    1.798341   -0.292445
    117          6           0       13.086808   -1.650873    0.593049
    118          8           0       14.272351   -1.995633    0.734448
    119          6           0       11.826820   -2.589080    0.797336
    120          6           0       12.068114   -3.585828   -0.292908
    121          8           0       11.736177   -3.523670   -1.470502
    122          8           0       12.606488   -4.674184    0.185108
    123          6           0       13.080854   -5.729340   -0.742911
    124          1           0        5.095011   -2.034175    0.158300
    125          1           0        5.676628    4.499541    0.165744
    126          1           0       12.043615    3.807722   -0.213079
    127          1           0        9.244504   -4.065042   -0.192390
    128          1           0        6.473820   -3.594749    1.104092
    129          1           0        7.453943   -4.271791   -1.725170
    130          1           0        6.068215   -3.245314   -1.542512
    131          1           0        6.084501   -4.827365   -0.765424
    132          1           0        8.047256   -4.713816    2.315436
    133          1           0        9.307524   -3.559189    2.777892
    134          1           0       10.809917   -4.861213    2.739622
    135          1           0       10.198419   -5.738937    1.225034
    136          1           0        2.222483   -0.067579    0.578214
    137          1           0        3.255635   -1.241698   -0.226001
    138          1           0        2.365528   -0.049859   -1.150998
    139          1           0        1.495851    1.976154    0.643365
    140          1           0        1.524059    2.205952   -1.023270
    141          1           0        0.969037    3.534004    0.077053
    142          1           0        7.946275    5.653467    1.401799
    143          1           0       10.054000    5.848277   -0.691486
    144          1           0        6.615721    6.117745   -1.063790
    145          1           0        8.145821    6.877779   -1.344449
    146          1           0        7.315008    7.401398    0.010646
    147          1           0       10.751956    4.859347    1.877069
    148          1           0        9.896212    6.420422    2.021574
    149          1           0       12.476438    6.085676    1.673931
    150          1           0       11.503223    7.635537    1.389526
    151          1           0       12.059358    6.580516    0.093599
    152          1           0       14.307217    1.760189   -1.360479
    153          1           0       14.862172    1.292457    0.294935
    154          1           0       14.073774    2.856565   -0.031208
    155          1           0       11.938118   -3.050484    1.778402
    156          1           0       12.296942   -6.155300   -1.368164
    157          1           0       13.605082   -6.550291   -0.254097
    158          1           0       13.850881   -5.443999   -1.459015
 ---------------------------------------------------------------------

 SCF Done:  E(RCAM-B3LYP) =  -4069.82862681     A.U. after   17 cycles

 Excitation energies and oscillator strengths:

 Excited State   1:      Singlet-A      1.6508 eV  751.06 nm  f=0.4572  <S**2>=0.000
     309 -> 316       -0.15902
     311 -> 313        0.68771
     309 <- 316       -0.10332
 This state for optimization and/or second-order correction.
 Total Energy, E(TD-HF/TD-DFT) =  -4069.76796165
 Copying the excited state density for this state as the 1-particle RhoCI density.

 Excited State   2:      Singlet-A      1.7590 eV  704.86 nm  f=0.3432  <S**2>=0.000
     310 -> 315        0.18266
     312 -> 314        0.68061
     310 <- 315        0.10418

 Excited State   3:      Singlet-A      2.2207 eV  558.30 nm  f=0.0913  <S**2>=0.000
     310 -> 314        0.63531
     312 -> 315       -0.29345

 Excited State   4:      Singlet-A      2.2501 eV  551.01 nm  f=0.1146  <S**2>=0.000
     309 -> 313        0.63757
     311 -> 316        0.28744

 Excited State   5:      Singlet-A      2.6879 eV  461.26 nm  f=0.0000  <S**2>=0.000
     312 -> 313        0.70691

 The electronic state is 1-A.
 Alpha  occ. eigenvalues --  -46.88467 -46.87722 -19.25253 -19.25168 -19.19647
 Alpha  occ. eigenvalues --  -19.19533 -19.18983 -19.18818 -19.18736 -19.18133
 Alpha  occ. eigenvalues --  -14.42944 -14.42523 -14.41949 -14.41844 -14.39761
 Alpha  occ. eigenvalues --  -14.39094 -14.39066 -14.38928 -10.38776 -10.38592
 Alpha  occ. eigenvalues --  -10.35926 -10.35396 -10.35387 -10.35212 -10.32531
 Alpha  occ. eigenvalues --  -10.32274 -10.31897 -10.31584 -10.31554 -10.31341
 Alpha  occ. eigenvalues --  -10.31046 -10.30856 -10.30797 -10.30688 -10.30462
 Alpha  occ. eigenvalues --  -10.30224 -10.29786 -10.29722 -10.29498 -10.29358
 Alpha  occ. eigenvalues --  -10.29209 -10.29203 -10.28973 -10.28835 -10.28798
 Alpha  occ. eigenvalues --  -10.28712 -10.28707 -10.28661 -10.28569 -10.28357
 Alpha  occ. eigenvalues --  -10.28325 -10.28323 -10.28009 -10.27983 -10.27979
 Alpha  occ. eigenvalues --  -10.27962 -10.27912 -10.27813 -10.27680 -10.27649
 Alpha  occ. eigenvalues --  -10.27627 -10.27546 -10.27386 -10.27292 -10.27000
 Alpha  occ. eigenvalues --  -10.26957 -10.26940 -10.26883 -10.26740 -10.26560
 Alpha  occ. eigenvalues --  -10.26450 -10.26425 -10.26421 -10.26355 -10.25998
 Alpha  occ. eigenvalues --  -10.25901 -10.25821 -10.25765 -10.25740 -10.25733
 Alpha  occ. eigenvalues --  -10.25630 -10.25591 -10.25254 -10.25235 -10.25189
 Alpha  occ. eigenvalues --  -10.24832  -3.17064  -3.16502  -1.91965  -1.91521
 Alpha  occ. eigenvalues --   -1.91404  -1.91368  -1.90972  -1.90800  -1.17744
 Alpha  occ. eigenvalues --   -1.17160  -1.10717  -1.10038  -1.08460  -1.08335
 Alpha  occ. eigenvalues --   -1.07388  -1.06433  -1.05666  -1.05412  -1.04148
 Alpha  occ. eigenvalues --   -1.03948  -1.03307  -1.02722  -1.02179  -1.01302
 Alpha  occ. eigenvalues --   -0.93576  -0.91788  -0.89524  -0.89265  -0.89003
 Alpha  occ. eigenvalues --   -0.88980  -0.88881  -0.88726  -0.88134  -0.87655
 Alpha  occ. eigenvalues --   -0.87391  -0.86781  -0.86704  -0.85052  -0.84553
 Alpha  occ. eigenvalues --   -0.84284  -0.84165  -0.83432  -0.82824  -0.82737
 Alpha  occ. eigenvalues --   -0.82637  -0.81791  -0.81442  -0.80844  -0.80775
 Alpha  occ. eigenvalues --   -0.80458  -0.78689  -0.78605  -0.77756  -0.77448
 Alpha  occ. eigenvalues --   -0.77439  -0.76805  -0.76432  -0.76143  -0.75410
 Alpha  occ. eigenvalues --   -0.75096  -0.73448  -0.72168  -0.72026  -0.71755
 Alpha  occ. eigenvalues --   -0.69670  -0.69196  -0.69165  -0.68489  -0.68160
 Alpha  occ. eigenvalues --   -0.67556  -0.66873  -0.66293  -0.66024  -0.65816
 Alpha  occ. eigenvalues --   -0.65238  -0.65145  -0.64846  -0.64807  -0.64406
 Alpha  occ. eigenvalues --   -0.64145  -0.62349  -0.62321  -0.60877  -0.60455
 Alpha  occ. eigenvalues --   -0.60222  -0.59449  -0.59345  -0.59101  -0.58926
 Alpha  occ. eigenvalues --   -0.58563  -0.58441  -0.58248  -0.57795  -0.57582
 Alpha  occ. eigenvalues --   -0.56772  -0.56634  -0.56324  -0.55587  -0.55232
 Alpha  occ. eigenvalues --   -0.54991  -0.54915  -0.54476  -0.54263  -0.54124
 Alpha  occ. eigenvalues --   -0.53785  -0.53644  -0.53572  -0.53492  -0.53129
 Alpha  occ. eigenvalues --   -0.52936  -0.52851  -0.52584  -0.52509  -0.52496
 Alpha  occ. eigenvalues --   -0.52092  -0.51983  -0.51888  -0.51540  -0.51371
 Alpha  occ. eigenvalues --   -0.50590  -0.50524  -0.50450  -0.50394  -0.50181
 Alpha  occ. eigenvalues --   -0.50139  -0.49974  -0.49959  -0.49813  -0.49691
 Alpha  occ. eigenvalues --   -0.49511  -0.49336  -0.49155  -0.48991  -0.48982
 Alpha  occ. eigenvalues --   -0.48657  -0.48455  -0.48434  -0.48281  -0.48126
 Alpha  occ. eigenvalues --   -0.47968  -0.47967  -0.47747  -0.47700  -0.47374
 Alpha  occ. eigenvalues --   -0.47333  -0.47122  -0.46733  -0.46690  -0.46567
 Alpha  occ. eigenvalues --   -0.46255  -0.46246  -0.46097  -0.46041  -0.45779
 Alpha  occ. eigenvalues --   -0.45723  -0.45513  -0.45506  -0.45386  -0.45113
 Alpha  occ. eigenvalues --   -0.44970  -0.44928  -0.44602  -0.44458  -0.44299
 Alpha  occ. eigenvalues --   -0.44195  -0.43974  -0.43948  -0.43938  -0.43785
 Alpha  occ. eigenvalues --   -0.43532  -0.43134  -0.43067  -0.43002  -0.42750
 Alpha  occ. eigenvalues --   -0.42360  -0.42203  -0.41995  -0.41851  -0.41840
 Alpha  occ. eigenvalues --   -0.41793  -0.41591  -0.41363  -0.41322  -0.41180
 Alpha  occ. eigenvalues --   -0.41079  -0.40852  -0.40774  -0.40615  -0.40382
 Alpha  occ. eigenvalues --   -0.40229  -0.40036  -0.40020  -0.39800  -0.39452
 Alpha  occ. eigenvalues --   -0.38621  -0.38392  -0.38315  -0.37862  -0.37688
 Alpha  occ. eigenvalues --   -0.37190  -0.37163  -0.36878  -0.36800  -0.36572
 Alpha  occ. eigenvalues --   -0.36329  -0.35799  -0.34438  -0.34396  -0.34245
 Alpha  occ. eigenvalues --   -0.33503  -0.33386  -0.33032  -0.31862  -0.31725
 Alpha  occ. eigenvalues --   -0.31691  -0.31516  -0.30866  -0.30677  -0.30550
 Alpha  occ. eigenvalues --   -0.30257  -0.29308  -0.28659  -0.24827  -0.23858
 Alpha  occ. eigenvalues --   -0.21333  -0.21122
 Alpha virt. eigenvalues --   -0.09296  -0.08458  -0.01806  -0.01767  -0.00136
 Alpha virt. eigenvalues --    0.00176   0.02130   0.02144   0.02738   0.03180
 Alpha virt. eigenvalues --    0.04419   0.05143   0.05287   0.05823   0.05975

 Mulliken charges:
               1
     1  Mg   0.828417
     2  C    0.007213
     3  C   -0.059416
     4  C   -0.069044
     5  C   -0.093304
     6  N   -0.267848
     7  C   -0.051398
     8  C    0.020451
     9  C   -0.104156
    10  C    0.038463
    11  C    0.063627
    12  C    0.034935
    13  C   -0.056482
    14  H    0.031655
    15  N   -0.358699
    16  C    0.139340
    17  C   -0.202714
    18  C   -0.035778
    19  C    0.110683
    20  C    0.139484
    21  C    0.019424
    22  O   -0.225158
    23  C    0.055923
    24  N   -0.391596
    25  C    0.083795
    26  C   -0.019521
    27  C   -0.020652
    28  C    0.118342
    29  C    0.088187
    30  C   -0.004922
    31  C    0.053295
    32  N   -0.339271
    33  C    0.089060
    34  C   -0.168492
    35  C    0.068706
    36  C    0.103721
    37  C    0.108108
    38  C    0.016737
    39  O   -0.155136
    40  C   -0.052016
    41  C    0.180688
    42  O   -0.216535
    43  O   -0.331951
    44  C    0.178978
    45  H   -0.027244
    46  H   -0.006149
    47  H   -0.026823
    48  H    0.017746
    49  H    0.009413
    50  H    0.020571
    51  H    0.021933
    52  H    0.015682
    53  H    0.010506
    54  H    0.032360
    55  H    0.030499
    56  H    0.029133
    57  H    0.043315
    58  H    0.028016
    59  H    0.001167
    60  H    0.024863
    61  H    0.024942
    62  H    0.040143
    63  H    0.000640
    64  H   -0.003494
    65  H    0.020517
    66  H    0.019726
    67  H    0.019265
    68  H   -0.002883
    69  H   -0.003927
    70  H    0.013010
    71  H   -0.002328
    72  H    0.029167
    73  H    0.036402
    74  H    0.024517
    75  H    0.027473
    76  H    0.041676
    77  H    0.041929
    78  H    0.041612
    79  H    0.051481
    80  Mg   0.831973
    81  C    0.053393
    82  C   -0.081542
    83  C   -0.070677
    84  C   -0.080748
    85  N   -0.209655
    86  C   -0.072072
    87  C    0.011222
    88  C   -0.072482
    89  C   -0.024656
    90  C    0.046566
    91  C    0.028554
    92  C   -0.068239
    93  H    0.027656
    94  N   -0.362220
    95  C    0.170070
    96  C   -0.116049
    97  C   -0.038300
    98  C    0.148258
    99  C    0.098026
   100  C    0.036548
   101  O   -0.201418
   102  C    0.053990
   103  N   -0.348543
   104  C   -0.000872
   105  C   -0.010961
   106  C   -0.014510
   107  C    0.090633
   108  C    0.059016
   109  C    0.000499
   110  C    0.009616
   111  N   -0.370043
   112  C    0.134114
   113  C   -0.185373
   114  C   -0.008004
   115  C    0.094145
   116  C    0.119469
   117  C    0.044230
   118  O   -0.191408
   119  C   -0.048629
   120  C    0.168008
   121  O   -0.239791
   122  O   -0.279077
   123  C    0.189682
   124  H   -0.019723
   125  H   -0.008949
   126  H   -0.032411
   127  H    0.036533
   128  H    0.020148
   129  H    0.030157
   130  H    0.018316
   131  H    0.015011
   132  H    0.014726
   133  H    0.008249
   134  H    0.040639
   135  H    0.030179
   136  H    0.032041
   137  H    0.011666
   138  H    0.027028
   139  H    0.019398
   140  H    0.029359
   141  H    0.033308
   142  H    0.027453
   143  H    0.006860
   144  H    0.037075
   145  H    0.003312
   146  H    0.012436
   147  H    0.012999
   148  H    0.006965
   149  H    0.015152
   150  H    0.020739
   151  H    0.005645
   152  H    0.033329
   153  H    0.038243
   154  H    0.004962
   155  H    0.046346
   156  H    0.033417
   157  H    0.033682
   158  H    0.035314
 Sum of Mulliken charges =  -0.00000

 Dipole moment (field-independent basis, Debye):
    X=             -5.2377    Y=             -2.1800    Z=              4.6939  Tot=              7.3633
 Quadrupole moment (field-independent basis, Debye-Ang):
   XX=           -613.1403   YY=           -469.3864   ZZ=           -512.9281
   XY=             44.6575   XZ=            -21.7445   YZ=            -23.3162

 Normal termination of Gaussian 16 at Thu Sep  2 11:36:03 2021.
