 Gaussian 16, Revision A.03,
 Gaussian 16:  ES64L-G16RevA.03 25-Dec-2016

 ----------------------------------------------------------
 #p cam-b3lyp/Def2SVP td=(nstates=5) density=(transition=1)
 ----------------------------------------------------------

 --------------------------------
 TDDFT excited states in gaussian
 --------------------------------
 Symbolic Z-matrix:
 Charge =  0 Multiplicity = 1

                         Standard orientation:
 ---------------------------------------------------------------------
 Center     Atomic      Atomic             Coordinates (Angstroms)
 Number     Number       Type             X           Y           Z
 ---------------------------------------------------------------------
      1         12           0       25.492765    0.377455    0.640608
      2          6           0       24.210184   -1.774093   -1.863356
      3          6           0       25.985611    2.687546   -1.936053
      4          6           0       26.606510    2.539214    2.846487
      5          6           0       25.667634   -2.317985    2.830116
      6          7           0       25.093162    0.414866   -1.608824
      7          6           0       24.438752   -0.499039   -2.378014
      8          6           0       24.276938   -0.136370   -3.864180
      9          6           0       25.004228    1.301634   -3.819876
     10          6           0       25.382737    1.440860   -2.375045
     11          6           0       26.295813    1.405956   -4.723806
     12          6           0       22.781878   -0.049280   -4.313442
     13          6           0       22.113005   -1.016134   -5.282766
     14          1           0       21.053481   -0.541013   -6.268245
     15          7           0       26.136310    2.380117    0.521274
     16          6           0       26.338204    3.140226   -0.639778
     17          6           0       26.948844    4.387654   -0.237774
     18          6           0       26.992199    4.439470    1.153291
     19          6           0       26.514217    3.106942    1.570712
     20          6           0       27.185526    5.429805   -1.276941
     21          6           0       27.514788    5.509975    2.110686
     22          8           0       27.522333    5.408284    3.341242
     23          6           0       27.905015    6.806817    1.518750
     24          7           0       26.164688    0.159274    2.543034
     25          6           0       26.387838    1.230166    3.363488
     26          6           0       26.361854    0.801331    4.869752
     27          6           0       26.168605   -0.707545    4.792248
     28          6           0       26.058772   -1.012448    3.272414
     29          6           0       27.605069    1.292099    5.681389
     30          6           0       24.920397   -1.110191    5.592243
     31          6           0       25.001315   -2.301403    6.476038
     32          7           0       25.145489   -1.664169    0.537439
     33          6           0       25.227449   -2.634521    1.503878
     34          6           0       24.807344   -3.908692    1.002191
     35          6           0       24.268838   -3.653950   -0.353083
     36          6           0       24.511167   -2.238582   -0.557509
     37          6           0       24.858953   -5.240520    1.770249
     38          6           0       23.624877   -4.217978   -1.566099
     39          8           0       23.133914   -5.342255   -1.764397
     40          6           0       23.567059   -2.999261   -2.576507
     41          6           0       24.359328   -3.567946   -3.711967
     42          8           0       25.572793   -3.551156   -3.879275
     43          8           0       23.569683   -4.019680   -4.647521
     44          6           0       24.139314   -4.773913   -5.790434
     45          1           0       25.938412    3.353725   -2.799638
     46          1           0       27.001710    3.137689    3.669559
     47          1           0       25.663022   -3.135672    3.553367
     48          1           0       24.871160   -0.844656   -4.442886
     49          1           0       24.408824    2.188696   -4.038222
     50          1           0       26.732277    0.471855   -5.076377
     51          1           0       27.091047    1.909239   -4.175005
     52          1           0       26.054005    2.012794   -5.596566
     53          1           0       22.660677    0.928302   -4.780355
     54          1           0       22.124474   -0.105795   -3.446776
     55          1           0       21.548405   -1.632534   -4.583057
     56          1           0       22.976739   -1.483234   -5.756034
     57          1           0       26.612909    6.335618   -1.082484
     58          1           0       26.904855    5.068636   -2.266648
     59          1           0       28.225620    5.748571   -1.338392
     60          1           0       27.109858    7.160344    0.862239
     61          1           0       28.730776    6.711426    0.813537
     62          1           0       28.067855    7.602583    2.244920
     63          1           0       25.480613    1.331749    5.230174
     64          1           0       26.987899   -1.234932    5.280558
     65          1           0       28.240151    1.997181    5.145276
     66          1           0       28.270881    0.488822    5.994710
     67          1           0       27.284216    1.669979    6.652031
     68          1           0       24.188993   -1.291195    4.805630
     69          1           0       24.552644   -0.346658    6.277275
     70          1           0       24.184674   -2.942320    6.144567
     71          1           0       24.983165   -1.996750    7.522395
     72          1           0       25.882580   -2.925565    6.326512
     73          1           0       25.815618   -5.724084    1.576083
     74          1           0       24.017326   -5.852802    1.446759
     75          1           0       24.812577   -5.095530    2.849789
     76          1           0       22.520767   -2.875427   -2.855269
     77          1           0       24.848233   -4.203218   -6.389302
     78          1           0       23.392567   -5.195170   -6.463210
     79          1           0       24.683498   -5.687715   -5.553802
     80         12           0      -25.634692   -0.552707   -0.241819
     81          6           0      -24.195417    2.669536   -0.237566
     82          6           0      -22.497816   -1.892096    0.488751
     83          6           0      -27.215778   -3.408116    0.738581
     84          6           0      -28.809140    1.090513   -0.471083
     85          7           0      -23.631891    0.294996    0.042268
     86          6           0      -23.293478    1.601742    0.027703
     87          6           0      -21.795829    1.798769    0.430702
     88          6           0      -21.259061    0.302729    0.268063
     89          6           0      -22.569129   -0.548796    0.226569
     90          6           0      -20.421713   -0.109427   -0.963882
     91          6           0      -21.733395    2.356662    1.902805
     92          6           0      -20.580994    3.369879    2.147835
     93          1           0      -19.829928    3.228090    3.533998
     94          7           0      -24.934588   -2.517019    0.334647
     95          6           0      -23.611255   -2.820402    0.515634
     96          6           0      -23.551156   -4.197888    0.827279
     97          6           0      -24.878592   -4.695579    0.986483
     98          6           0      -25.778286   -3.546265    0.634968
     99          6           0      -22.278648   -4.980065    1.051718
    100          6           0      -25.276674   -6.020746    1.541191
    101          8           0      -24.455991   -6.807393    1.985501
    102          6           0      -26.633649   -6.482178    1.677292
    103          7           0      -27.761697   -1.020951    0.187637
    104          6           0      -28.121745   -2.356999    0.417791
    105          6           0      -29.608791   -2.518183    0.362953
    106          6           0      -30.155168   -1.077874    0.042144
    107          6           0      -28.873594   -0.273481   -0.091072
    108          6           0      -29.957520   -3.577050   -0.690827
    109          6           0      -31.294819   -0.599755    1.018688
    110          6           0      -32.601085   -0.209874    0.396067
    111          7           0      -26.416933    1.488052   -0.376638
    112          6           0      -27.704369    1.945324   -0.515749
    113          6           0      -27.709124    3.400251   -0.783888
    114          6           0      -26.330288    3.690964   -0.607373
    115          6           0      -25.612526    2.519257   -0.456908
    116          6           0      -28.884680    4.346546   -0.970892
    117          6           0      -25.412003    4.789968   -0.469123
    118          8           0      -25.624751    6.012371   -0.487203
    119          6           0      -24.004729    4.235533   -0.249239
    120          6           0      -23.064132    4.745776   -1.264146
    121          8           0      -22.099964    5.360079   -0.982015
    122          8           0      -23.307354    4.275013   -2.522004
    123          6           0      -22.188731    4.607384   -3.430696
    124          1           0      -21.519643   -2.353921    0.641294
    125          1           0      -27.653559   -4.380231    0.970768
    126          1           0      -29.669735    1.762039   -0.516006
    127          1           0      -21.346731    2.500862   -0.271994
    128          1           0      -20.864620   -0.151257    1.176990
    129          1           0      -20.650557    0.537199   -1.811765
    130          1           0      -20.508312   -1.147879   -1.283757
    131          1           0      -19.384658    0.081086   -0.689678
    132          1           0      -21.686309    1.540552    2.624370
    133          1           0      -22.693093    2.853354    2.045879
    134          1           0      -21.080631    4.336653    2.083642
    135          1           0      -19.957834    3.239600    1.262799
    136          1           0      -22.345541   -6.060220    0.921122
    137          1           0      -22.012798   -4.738162    2.080395
    138          1           0      -21.376349   -4.589551    0.581085
    139          1           0      -27.055136   -6.517855    0.671898
    140          1           0      -27.201807   -5.842610    2.353366
    141          1           0      -26.615331   -7.482929    2.108973
    142          1           0      -30.007987   -2.732715    1.353987
    143          1           0      -30.478462   -0.876036   -0.979290
    144          1           0      -29.101226   -4.178240   -0.997454
    145          1           0      -30.338563   -3.125047   -1.606578
    146          1           0      -30.564145   -4.358079   -0.233423
    147          1           0      -30.858285    0.244899    1.551710
    148          1           0      -31.650208   -1.374879    1.696663
    149          1           0      -32.827199    0.801001    0.734270
    150          1           0      -33.420134   -0.840773    0.741857
    151          1           0      -32.620455   -0.348832   -0.684909
    152          1           0      -29.315728    4.674654   -0.024818
    153          1           0      -29.654285    3.950952   -1.634894
    154          1           0      -28.378071    5.222855   -1.375092
    155          1           0      -23.592771    4.639188    0.674775
    156          1           0      -22.434086    4.209515   -4.415725
    157          1           0      -21.254743    4.181780   -3.064040
    158          1           0      -22.079258    5.671332   -3.637918
 ---------------------------------------------------------------------

 SCF Done:  E(RCAM-B3LYP) =  -4069.78033424     A.U. after   19 cycles

 Excitation energies and oscillator strengths:

 Excited State   1:      Singlet-A      1.6804 eV  737.82 nm  f=0.4053  <S**2>=0.000
     309 -> 315       -0.17287
     311 -> 313        0.68702
     309 <- 315       -0.10657
 This state for optimization and/or second-order correction.
 Total Energy, E(TD-HF/TD-DFT) =  -4069.71857997
 Copying the excited state density for this state as the 1-particle RhoCI density.

 Excited State   2:      Singlet-A      1.7572 eV  705.57 nm  f=0.3830  <S**2>=0.000
     310 -> 316       -0.18343
     312 -> 314        0.68375
     310 <- 316       -0.10474

 Excited State   3:      Singlet-A      2.2017 eV  563.13 nm  f=0.1138  <S**2>=0.000
     309 -> 313        0.64204
     311 -> 315        0.28115

 Excited State   4:      Singlet-A      2.2202 eV  558.44 nm  f=0.1059  <S**2>=0.000
     310 -> 314        0.63626
     312 -> 316        0.29385

 Excited State   5:      Singlet-A      3.0210 eV  410.41 nm  f=0.0000  <S**2>=0.000
     312 -> 313        0.70711

 The electronic state is 1-A.
 Alpha  occ. eigenvalues --  -46.90855 -46.88520 -19.25299 -19.25132 -19.19937
 Alpha  occ. eigenvalues --  -19.19575 -19.18866 -19.18863 -19.18182 -19.17337
 Alpha  occ. eigenvalues --  -14.42993 -14.42720 -14.42577 -14.41897 -14.39924
 Alpha  occ. eigenvalues --  -14.39816 -14.39318 -14.38979 -10.38750 -10.38641
 Alpha  occ. eigenvalues --  -10.35969 -10.35435 -10.34791 -10.33521 -10.32262
 Alpha  occ. eigenvalues --  -10.32002 -10.31940 -10.31878 -10.31842 -10.31628
 Alpha  occ. eigenvalues --  -10.31398 -10.31105 -10.31081 -10.31007 -10.30906
 Alpha  occ. eigenvalues --  -10.30737 -10.30518 -10.30201 -10.29876 -10.29421
 Alpha  occ. eigenvalues --  -10.29326 -10.29101 -10.29052 -10.29030 -10.28927
 Alpha  occ. eigenvalues --  -10.28853 -10.28791 -10.28761 -10.28729 -10.28616
 Alpha  occ. eigenvalues --  -10.28524 -10.28478 -10.28442 -10.28393 -10.28188
 Alpha  occ. eigenvalues --  -10.28167 -10.28031 -10.28023 -10.27945 -10.27872
 Alpha  occ. eigenvalues --  -10.27766 -10.27704 -10.27558 -10.27514 -10.27498
 Alpha  occ. eigenvalues --  -10.27059 -10.27051 -10.26985 -10.26975 -10.26828
 Alpha  occ. eigenvalues --  -10.26678 -10.26534 -10.26517 -10.26493 -10.26410
 Alpha  occ. eigenvalues --  -10.26399 -10.25848 -10.25817 -10.25767 -10.25683
 Alpha  occ. eigenvalues --  -10.25635 -10.25468 -10.25306 -10.25276 -10.25217
 Alpha  occ. eigenvalues --  -10.24854  -3.19002  -3.17117  -1.93916  -1.93438
 Alpha  occ. eigenvalues --   -1.93298  -1.92018  -1.91574  -1.91421  -1.17993
 Alpha  occ. eigenvalues --   -1.17791  -1.10078  -1.09569  -1.09061  -1.08974
 Alpha  occ. eigenvalues --   -1.08382  -1.06482  -1.05468  -1.05133  -1.04002
 Alpha  occ. eigenvalues --   -1.03769  -1.03454  -1.02772  -1.02554  -1.01354
 Alpha  occ. eigenvalues --   -0.92648  -0.91839  -0.89570  -0.89442  -0.89039
 Alpha  occ. eigenvalues --   -0.89037  -0.88787  -0.88255  -0.88081  -0.87713
 Alpha  occ. eigenvalues --   -0.87034  -0.86753  -0.85842  -0.85104  -0.84901
 Alpha  occ. eigenvalues --   -0.84674  -0.84333  -0.83474  -0.82870  -0.82732
 Alpha  occ. eigenvalues --   -0.82691  -0.82533  -0.80947  -0.80823  -0.80572
 Alpha  occ. eigenvalues --   -0.80511  -0.78770  -0.78678  -0.77633  -0.77491
 Alpha  occ. eigenvalues --   -0.76888  -0.76868  -0.76517  -0.76185  -0.75451
 Alpha  occ. eigenvalues --   -0.75153  -0.73165  -0.72538  -0.72222  -0.71810
 Alpha  occ. eigenvalues --   -0.69393  -0.69284  -0.69220  -0.68195  -0.67978
 Alpha  occ. eigenvalues --   -0.67606  -0.66923  -0.66919  -0.66371  -0.65867
 Alpha  occ. eigenvalues --   -0.65733  -0.65277  -0.65016  -0.64859  -0.64670
 Alpha  occ. eigenvalues --   -0.64197  -0.63329  -0.62397  -0.60942  -0.60100
 Alpha  occ. eigenvalues --   -0.60043  -0.59506  -0.59013  -0.58976  -0.58908
 Alpha  occ. eigenvalues --   -0.58491  -0.58330  -0.57843  -0.57635  -0.57099
 Alpha  occ. eigenvalues --   -0.56693  -0.56530  -0.56101  -0.55634  -0.55576
 Alpha  occ. eigenvalues --   -0.55155  -0.54967  -0.54574  -0.54302  -0.54174
 Alpha  occ. eigenvalues --   -0.53835  -0.53550  -0.53527  -0.53402  -0.53216
 Alpha  occ. eigenvalues --   -0.52914  -0.52845  -0.52675  -0.52635  -0.52560
 Alpha  occ. eigenvalues --   -0.52286  -0.52133  -0.51778  -0.51491  -0.51416
 Alpha  occ. eigenvalues --   -0.51352  -0.50910  -0.50573  -0.50442  -0.50066
 Alpha  occ. eigenvalues --   -0.50020  -0.49877  -0.49877  -0.49735  -0.49585
 Alpha  occ. eigenvalues --   -0.49407  -0.49288  -0.49059  -0.49057  -0.48704
 Alpha  occ. eigenvalues --   -0.48640  -0.48492  -0.48418  -0.48225  -0.48184
 Alpha  occ. eigenvalues --   -0.48027  -0.47801  -0.47547  -0.47426  -0.47349
 Alpha  occ. eigenvalues --   -0.46981  -0.46814  -0.46702  -0.46627  -0.46376
 Alpha  occ. eigenvalues --   -0.46351  -0.46313  -0.46082  -0.45831  -0.45777
 Alpha  occ. eigenvalues --   -0.45575  -0.45445  -0.45165  -0.45156  -0.45109
 Alpha  occ. eigenvalues --   -0.45021  -0.44875  -0.44702  -0.44650  -0.44371
 Alpha  occ. eigenvalues --   -0.44352  -0.44253  -0.44034  -0.44013  -0.43613
 Alpha  occ. eigenvalues --   -0.43348  -0.43189  -0.43054  -0.43022  -0.42899
 Alpha  occ. eigenvalues --   -0.42806  -0.42666  -0.42413  -0.42317  -0.41897
 Alpha  occ. eigenvalues --   -0.41802  -0.41640  -0.41402  -0.41297  -0.41229
 Alpha  occ. eigenvalues --   -0.41046  -0.40822  -0.40811  -0.40414  -0.40153
 Alpha  occ. eigenvalues --   -0.40065  -0.39837  -0.39653  -0.39507  -0.39254
 Alpha  occ. eigenvalues --   -0.38694  -0.38437  -0.37919  -0.37917  -0.37658
 Alpha  occ. eigenvalues --   -0.37255  -0.37233  -0.36908  -0.36622  -0.36421
 Alpha  occ. eigenvalues --   -0.36377  -0.35842  -0.34942  -0.34446  -0.34152
 Alpha  occ. eigenvalues --   -0.33511  -0.33437  -0.33085  -0.31914  -0.31775
 Alpha  occ. eigenvalues --   -0.31512  -0.30993  -0.30597  -0.30410  -0.30309
 Alpha  occ. eigenvalues --   -0.30025  -0.29217  -0.28710  -0.24528  -0.23910
 Alpha  occ. eigenvalues --   -0.21593  -0.21174
 Alpha virt. eigenvalues --   -0.09402  -0.08516  -0.02271  -0.01858  -0.00187
 Alpha virt. eigenvalues --    0.00267   0.01193   0.02080   0.02411   0.02702
 Alpha virt. eigenvalues --    0.04671   0.05246   0.05426   0.05772   0.06068

 Mulliken charges:
               1
     1  Mg  11.999978
     2  C    6.000086
     3  C    6.000062
     4  C    5.999861
     5  C    5.999920
     6  N    7.000003
     7  C    5.999900
     8  C    6.000047
     9  C    5.999963
    10  C    6.000073
    11  C    5.999966
    12  C    6.000019
    13  C    6.000007
    14  H    0.999966
    15  N    6.999992
    16  C    6.000114
    17  C    6.000107
    18  C    6.000044
    19  C    6.000174
    20  C    5.999936
    21  C    6.000068
    22  O    8.000111
    23  C    5.999966
    24  N    6.999969
    25  C    6.000159
    26  C    5.999966
    27  C    6.000008
    28  C    5.999990
    29  C    5.999980
    30  C    6.000024
    31  C    6.000004
    32  N    6.999974
    33  C    5.999928
    34  C    5.999856
    35  C    6.000019
    36  C    5.999838
    37  C    6.000019
    38  C    5.999902
    39  O    7.999839
    40  C    6.000022
    41  C    5.999995
    42  O    7.999984
    43  O    7.999991
    44  C    6.000015
    45  H    1.000057
    46  H    1.000024
    47  H    0.999958
    48  H    0.999993
    49  H    1.000010
    50  H    1.000054
    51  H    1.000000
    52  H    1.000050
    53  H    0.999983
    54  H    0.999994
    55  H    0.999995
    56  H    1.000006
    57  H    1.000100
    58  H    1.000072
    59  H    1.000103
    60  H    1.000035
    61  H    1.000043
    62  H    1.000085
    63  H    1.000003
    64  H    0.999997
    65  H    0.999996
    66  H    1.000038
    67  H    1.000024
    68  H    1.000006
    69  H    0.999956
    70  H    0.999984
    71  H    0.999977
    72  H    1.000005
    73  H    0.999916
    74  H    0.999900
    75  H    0.999909
    76  H    0.999942
    77  H    0.999996
    78  H    0.999959
    79  H    0.999986
    80  Mg  12.001649
    81  C    6.025574
    82  C    5.980132
    83  C    5.976727
    84  C    6.008871
    85  N    7.003722
    86  C    5.962564
    87  C    6.008334
    88  C    5.997561
    89  C    6.031287
    90  C    5.990900
    91  C    6.002028
    92  C    6.001155
    93  H    0.992103
    94  N    6.986319
    95  C    6.052350
    96  C    6.019279
    97  C    6.008151
    98  C    6.052633
    99  C    5.994805
   100  C    6.011382
   101  O    8.021758
   102  C    5.994542
   103  N    6.998883
   104  C    6.035215
   105  C    5.986498
   106  C    6.008178
   107  C    5.966650
   108  C    5.997048
   109  C    6.000569
   110  C    6.002357
   111  N    7.005019
   112  C    5.958116
   113  C    5.967044
   114  C    5.998581
   115  C    5.965882
   116  C    6.001456
   117  C    5.984125
   118  O    7.967733
   119  C    6.001003
   120  C    5.995215
   121  O    7.991542
   122  O    8.003926
   123  C    6.003163
   124  H    1.009781
   125  H    1.007255
   126  H    0.991975
   127  H    1.001766
   128  H    0.996693
   129  H    1.014674
   130  H    0.994574
   131  H    1.008493
   132  H    0.987587
   133  H    1.008384
   134  H    1.005007
   135  H    0.996612
   136  H    1.016182
   137  H    1.022115
   138  H    1.022124
   139  H    1.009746
   140  H    1.011628
   141  H    1.013361
   142  H    1.003062
   143  H    1.004259
   144  H    0.992086
   145  H    1.011115
   146  H    1.002503
   147  H    1.002951
   148  H    0.988312
   149  H    1.002176
   150  H    0.993634
   151  H    0.997656
   152  H    0.977740
   153  H    0.980788
   154  H    0.986838
   155  H    0.991066
   156  H    0.995656
   157  H    0.992471
   158  H    0.997702
 Sum of Mulliken charges = 624.00000

 Dipole moment (field-independent basis, Debye):
    X=              3.9640    Y=            -10.3925    Z=              1.8629  Tot=             11.2778
 Quadrupole moment (field-independent basis, Debye-Ang):
   XX=           -203.7105   YY=              8.8286   ZZ=             -0.0081
   XY=            265.8901   XZ=            -47.7386   YZ=             -2.9825

 Normal termination of Gaussian 16 at Thu Sep 23 08:14:19 2021.
