 Gaussian 16, Revision A.03,
 Gaussian 16:  ES64L-G16RevA.03 25-Dec-2016

 -----------------------------------
 #p cam-b3lyp/Def2SVP td=(nstates=5)
 -----------------------------------

 --------------------------------
 TDDFT excited states in gaussian
 --------------------------------
 Symbolic Z-matrix:
 Charge =  0 Multiplicity = 1

                         Standard orientation:
 ---------------------------------------------------------------------
 Center     Atomic      Atomic             Coordinates (Angstroms)
 Number     Number       Type             X           Y           Z
 ---------------------------------------------------------------------
      1         12           0       19.643027    0.198108    0.618888
      2          6           0       17.673607   -1.182821   -2.033621
      3          6           0       20.548488    2.777279   -1.460036
      4          6           0       21.879876    1.320284    2.887158
      5          6           0       19.399727   -2.937924    2.214965
      6          7           0       19.142136    0.712465   -1.486182
      7          6           0       18.270049    0.069601   -2.378797
      8          6           0       18.161847    0.889448   -3.638890
      9          6           0       19.462716    1.795312   -3.566625
     10          6           0       19.797991    1.721227   -2.047959
     11          6           0       20.564792    1.129762   -4.465697
     12          6           0       16.786148    1.625022   -3.811288
     13          6           0       16.309001    1.493125   -5.169309
     14          1           0       14.762814    1.888126   -5.388410
     15          7           0       20.865842    1.946128    0.687988
     16          6           0       21.063405    2.885952   -0.244211
     17          6           0       21.888148    3.922377    0.296561
     18          6           0       22.311166    3.529659    1.549039
     19          6           0       21.625584    2.182931    1.821507
     20          6           0       22.362871    5.139102   -0.559780
     21          6           0       23.185481    4.294885    2.563636
     22          8           0       23.476305    3.761998    3.604508
     23          6           0       23.598224    5.724728    2.305004
     24          7           0       20.713219   -0.820518    2.168777
     25          6           0       21.484661   -0.054580    3.035853
     26          6           0       21.788462   -0.813481    4.286533
     27          6           0       20.972994   -2.183078    4.088551
     28          6           0       20.259067   -1.962739    2.775709
     29          6           0       23.250243   -0.957060    4.545086
     30          6           0       19.960062   -2.631820    5.279197
     31          6           0       20.216332   -3.915607    5.964440
     32          7           0       18.703983   -1.687891    0.257459
     33          6           0       18.723864   -2.836972    1.015384
     34          6           0       17.817938   -3.860164    0.333318
     35          6           0       17.293618   -3.216646   -0.805633
     36          6           0       17.905303   -1.914517   -0.835083
     37          6           0       17.595322   -5.294308    0.832525
     38          6           0       16.514934   -3.468487   -1.980238
     39          8           0       15.872394   -4.486088   -2.324383
     40          6           0       16.855493   -2.235505   -2.914077
     41          6           0       15.488982   -1.778321   -3.507318
     42          8           0       14.892762   -0.789254   -3.043084
     43          8           0       15.174247   -2.543829   -4.580959
     44          6           0       13.768675   -2.222036   -5.006306
     45          1           0       20.664465    3.705912   -2.023399
     46          1           0       22.585287    1.670283    3.644581
     47          1           0       19.184080   -3.902396    2.679169
     48          1           0       18.331984    0.192260   -4.458994
     49          1           0       19.273334    2.804074   -3.931830
     50          1           0       21.005410    0.235544   -4.025566
     51          1           0       21.323238    1.875729   -4.699339
     52          1           0       20.116247    0.850767   -5.419432
     53          1           0       16.999546    2.690926   -3.727750
     54          1           0       16.065437    1.328448   -3.048868
     55          1           0       16.280695    0.447497   -5.476311
     56          1           0       16.944072    2.115886   -5.799834
     57          1           0       22.040101    5.993435    0.035161
     58          1           0       21.895333    5.220741   -1.540911
     59          1           0       23.438691    5.078796   -0.723787
     60          1           0       24.277787    6.073490    3.082683
     61          1           0       22.597151    6.151980    2.362570
     62          1           0       24.052159    5.771829    1.315185
     63          1           0       21.314642   -0.201131    5.053978
     64          1           0       21.716455   -2.973910    3.991959
     65          1           0       23.434558   -0.320395    5.409483
     66          1           0       23.866948   -0.526794    3.756152
     67          1           0       23.600633   -1.975731    4.712900
     68          1           0       19.024278   -2.767431    4.737030
     69          1           0       19.848454   -1.783882    5.953635
     70          1           0       19.398777   -4.618005    5.804232
     71          1           0       20.127231   -3.531199    6.979933
     72          1           0       21.228147   -4.292727    5.809605
     73          1           0       18.320310   -5.906274    0.297045
     74          1           0       16.588667   -5.657400    0.625598
     75          1           0       17.714711   -5.314119    1.915812
     76          1           0       17.509541   -2.672913   -3.667158
     77          1           0       12.989999   -2.617130   -4.354081
     78          1           0       13.518940   -2.524847   -6.022664
     79          1           0       13.721196   -1.133746   -5.049622
     80         12           0      -19.590688   -0.464641   -0.197458
     81          6           0      -18.607378    2.891283    0.242959
     82          6           0      -16.425310   -1.118085   -1.090786
     83          6           0      -20.492043   -3.603761   -0.078718
     84          6           0      -22.624670    0.441848    1.458954
     85          7           0      -17.729293    0.764718   -0.349574
     86          6           0      -17.542781    2.098924   -0.212283
     87          6           0      -16.134450    2.553252   -0.538146
     88          6           0      -15.574828    1.243179   -1.224778
     89          6           0      -16.606996    0.189441   -0.880550
     90          6           0      -15.345046    1.355132   -2.788430
     91          6           0      -15.148591    3.100446    0.584150
     92          6           0      -15.433459    2.877910    2.093269
     93          1           0      -14.202386    2.687220    3.056007
     94          7           0      -18.565597   -2.130257   -0.687707
     95          6           0      -17.264228   -2.229547   -0.923498
     96          6           0      -16.905443   -3.668504   -1.049356
     97          6           0      -18.192818   -4.405748   -0.906907
     98          6           0      -19.147003   -3.363203   -0.528016
     99          6           0      -15.545165   -4.165411   -1.458771
    100          6           0      -18.367259   -5.899048   -1.000001
    101          8           0      -17.393651   -6.588949   -1.292295
    102          6           0      -19.695085   -6.683936   -0.690225
    103          7           0      -21.333075   -1.508189    0.708195
    104          6           0      -21.434689   -2.757870    0.413078
    105          6           0      -22.874384   -3.244919    0.891823
    106          6           0      -23.387886   -1.980103    1.583005
    107          6           0      -22.365556   -0.910678    1.249692
    108          6           0      -23.852547   -3.823118   -0.144349
    109          6           0      -23.388325   -2.077493    3.195836
    110          6           0      -24.766066   -2.072632    3.883193
    111          7           0      -20.463440    1.232540    0.736442
    112          6           0      -21.711338    1.487971    1.240455
    113          6           0      -21.917596    2.949418    1.412740
    114          6           0      -20.659100    3.560695    1.149625
    115          6           0      -19.866556    2.444848    0.636119
    116          6           0      -23.164559    3.654020    1.992169
    117          6           0      -19.885174    4.756801    1.125240
    118          8           0      -20.065086    5.915511    1.537478
    119          6           0      -18.532817    4.394421    0.460381
    120          6           0      -18.400904    5.276991   -0.784201
    121          8           0      -17.724875    6.239398   -1.033972
    122          8           0      -19.110753    4.658746   -1.819287
    123          6           0      -19.034420    5.277727   -3.179024
    124          1           0      -15.385775   -1.303096   -1.370023
    125          1           0      -20.758513   -4.663350   -0.095119
    126          1           0      -23.644451    0.733807    1.716906
    127          1           0      -16.263306    3.302718   -1.318832
    128          1           0      -14.600091    1.003799   -0.799457
    129          1           0      -15.669639    2.326066   -3.161128
    130          1           0      -16.085528    0.650306   -3.165003
    131          1           0      -14.308204    1.115458   -3.024974
    132          1           0      -15.042000    4.171272    0.410254
    133          1           0      -14.149222    2.707101    0.394966
    134          1           0      -16.049409    1.980067    2.144624
    135          1           0      -15.869637    3.743302    2.591266
    136          1           0      -15.541507   -5.213732   -1.756547
    137          1           0      -14.864904   -3.892685   -0.651075
    138          1           0      -15.259739   -3.491550   -2.267246
    139          1           0      -20.636168   -6.410450   -1.168859
    140          1           0      -19.925303   -6.549082    0.366623
    141          1           0      -19.603046   -7.747086   -0.910485
    142          1           0      -22.800541   -4.078461    1.589474
    143          1           0      -24.395028   -1.628167    1.356907
    144          1           0      -23.413849   -3.857528   -1.141703
    145          1           0      -24.800510   -3.284070   -0.148734
    146          1           0      -24.119652   -4.863018    0.043726
    147          1           0      -22.855071   -1.243608    3.650264
    148          1           0      -22.852845   -2.997767    3.430197
    149          1           0      -24.800374   -1.597060    4.863687
    150          1           0      -25.003307   -3.123295    4.050071
    151          1           0      -25.397578   -1.542122    3.170451
    152          1           0      -23.875759    2.997036    2.491765
    153          1           0      -23.645971    4.094058    1.119181
    154          1           0      -22.826946    4.482363    2.614548
    155          1           0      -17.720536    4.615500    1.151998
    156          1           0      -18.900778    6.356685   -3.253925
    157          1           0      -20.023263    5.082960   -3.593757
    158          1           0      -18.349326    4.846589   -3.909285
 ---------------------------------------------------------------------

 SCF Done:  E(RCAM-B3LYP) =  -4069.76309954     A.U. after   18 cycles

 Excitation energies and oscillator strengths:

 Excited State   1:      Singlet-A      1.7187 eV  721.38 nm  f=0.3494  <S**2>=0.000
     310 -> 315       -0.18753
     312 -> 314        0.68227
     310 <- 315       -0.10713
 This state for optimization and/or second-order correction.
 Total Energy, E(TD-HF/TD-DFT) =  -4069.69993840
 Copying the excited state density for this state as the 1-particle RhoCI density.

 Excited State   2:      Singlet-A      1.7689 eV  700.90 nm  f=0.4148  <S**2>=0.000
     309 -> 316        0.18507
     311 -> 313        0.68372
     309 <- 316        0.10632

 Excited State   3:      Singlet-A      2.2689 eV  546.46 nm  f=0.0058  <S**2>=0.000
     310 -> 314        0.54882
     312 -> 315        0.43684

 Excited State   4:      Singlet-A      2.2833 eV  542.99 nm  f=0.0990  <S**2>=0.000
     309 -> 313        0.63711
     311 -> 316       -0.29628

 Excited State   5:      Singlet-A      2.8295 eV  438.18 nm  f=0.0000  <S**2>=0.000
     312 -> 313        0.70710

 The electronic state is 1-A.
 Alpha  occ. eigenvalues --  -46.90061 -46.89410 -19.26137 -19.24593 -19.20409
 Alpha  occ. eigenvalues --  -19.19736 -19.19467 -19.19459 -19.18727 -19.18591
 Alpha  occ. eigenvalues --  -14.42308 -14.42247 -14.41893 -14.41834 -14.40429
 Alpha  occ. eigenvalues --  -14.40157 -14.39345 -14.39132 -10.39874 -10.39698
 Alpha  occ. eigenvalues --  -10.35683 -10.35656 -10.35597 -10.34886 -10.31862
 Alpha  occ. eigenvalues --  -10.31514 -10.31513 -10.31352 -10.31287 -10.31185
 Alpha  occ. eigenvalues --  -10.31116 -10.31019 -10.30907 -10.30764 -10.30723
 Alpha  occ. eigenvalues --  -10.30460 -10.30168 -10.30101 -10.30093 -10.29859
 Alpha  occ. eigenvalues --  -10.29395 -10.29153 -10.28983 -10.28962 -10.28948
 Alpha  occ. eigenvalues --  -10.28788 -10.28748 -10.28747 -10.28641 -10.28596
 Alpha  occ. eigenvalues --  -10.28133 -10.28092 -10.28086 -10.28022 -10.28010
 Alpha  occ. eigenvalues --  -10.27904 -10.27814 -10.27785 -10.27618 -10.27554
 Alpha  occ. eigenvalues --  -10.27367 -10.27348 -10.27331 -10.27238 -10.27179
 Alpha  occ. eigenvalues --  -10.27082 -10.26995 -10.26914 -10.26828 -10.26575
 Alpha  occ. eigenvalues --  -10.26560 -10.26400 -10.26373 -10.26366 -10.26336
 Alpha  occ. eigenvalues --  -10.26271 -10.26229 -10.26172 -10.25930 -10.25857
 Alpha  occ. eigenvalues --  -10.25785 -10.25368 -10.25340 -10.25081 -10.25004
 Alpha  occ. eigenvalues --  -10.24909  -3.18539  -3.17747  -1.93428  -1.92994
 Alpha  occ. eigenvalues --   -1.92842  -1.92644  -1.92190  -1.92049  -1.16053
 Alpha  occ. eigenvalues --   -1.16022  -1.11717  -1.09560  -1.09323  -1.07826
 Alpha  occ. eigenvalues --   -1.07273  -1.07106  -1.06739  -1.04818  -1.04061
 Alpha  occ. eigenvalues --   -1.04005  -1.03296  -1.03010  -1.02680  -1.01412
 Alpha  occ. eigenvalues --   -0.93578  -0.91197  -0.89801  -0.88914  -0.88818
 Alpha  occ. eigenvalues --   -0.88666  -0.88607  -0.88296  -0.88168  -0.87482
 Alpha  occ. eigenvalues --   -0.87226  -0.86897  -0.85449  -0.85403  -0.84885
 Alpha  occ. eigenvalues --   -0.84388  -0.83953  -0.83761  -0.82896  -0.82587
 Alpha  occ. eigenvalues --   -0.82492  -0.81788  -0.80804  -0.80653  -0.80539
 Alpha  occ. eigenvalues --   -0.80434  -0.78513  -0.78193  -0.77706  -0.77518
 Alpha  occ. eigenvalues --   -0.77022  -0.76686  -0.76513  -0.75448  -0.75364
 Alpha  occ. eigenvalues --   -0.74901  -0.73314  -0.72392  -0.72146  -0.71414
 Alpha  occ. eigenvalues --   -0.69561  -0.69262  -0.68775  -0.68688  -0.67842
 Alpha  occ. eigenvalues --   -0.67521  -0.67390  -0.66852  -0.66348  -0.65690
 Alpha  occ. eigenvalues --   -0.65508  -0.65085  -0.64936  -0.64870  -0.64410
 Alpha  occ. eigenvalues --   -0.64273  -0.63159  -0.62014  -0.60599  -0.60195
 Alpha  occ. eigenvalues --   -0.59897  -0.59461  -0.59090  -0.58548  -0.58409
 Alpha  occ. eigenvalues --   -0.58212  -0.58082  -0.57394  -0.57308  -0.57070
 Alpha  occ. eigenvalues --   -0.56366  -0.55958  -0.55871  -0.55690  -0.55531
 Alpha  occ. eigenvalues --   -0.55068  -0.55034  -0.54527  -0.54297  -0.53983
 Alpha  occ. eigenvalues --   -0.53951  -0.53944  -0.53608  -0.53525  -0.53006
 Alpha  occ. eigenvalues --   -0.52943  -0.52821  -0.52718  -0.52566  -0.52429
 Alpha  occ. eigenvalues --   -0.52013  -0.51887  -0.51761  -0.51532  -0.51243
 Alpha  occ. eigenvalues --   -0.51229  -0.51105  -0.50614  -0.50528  -0.50393
 Alpha  occ. eigenvalues --   -0.50190  -0.50099  -0.50010  -0.49794  -0.49489
 Alpha  occ. eigenvalues --   -0.49483  -0.49091  -0.49023  -0.48908  -0.48871
 Alpha  occ. eigenvalues --   -0.48625  -0.48551  -0.48509  -0.48288  -0.48175
 Alpha  occ. eigenvalues --   -0.47974  -0.47895  -0.47820  -0.47628  -0.47430
 Alpha  occ. eigenvalues --   -0.47407  -0.47231  -0.46929  -0.46642  -0.46593
 Alpha  occ. eigenvalues --   -0.46520  -0.46272  -0.46208  -0.46083  -0.46067
 Alpha  occ. eigenvalues --   -0.45895  -0.45824  -0.45524  -0.45359  -0.45354
 Alpha  occ. eigenvalues --   -0.44865  -0.44610  -0.44517  -0.44325  -0.44204
 Alpha  occ. eigenvalues --   -0.44061  -0.43912  -0.43722  -0.43575  -0.43432
 Alpha  occ. eigenvalues --   -0.43290  -0.43132  -0.43120  -0.43001  -0.42816
 Alpha  occ. eigenvalues --   -0.42672  -0.42340  -0.42250  -0.42066  -0.42005
 Alpha  occ. eigenvalues --   -0.41977  -0.41891  -0.41460  -0.41441  -0.41244
 Alpha  occ. eigenvalues --   -0.41104  -0.40916  -0.40756  -0.40679  -0.40200
 Alpha  occ. eigenvalues --   -0.39965  -0.39817  -0.39232  -0.38847  -0.38820
 Alpha  occ. eigenvalues --   -0.38526  -0.38202  -0.37845  -0.37653  -0.37244
 Alpha  occ. eigenvalues --   -0.37060  -0.36931  -0.36889  -0.36659  -0.36313
 Alpha  occ. eigenvalues --   -0.36123  -0.35009  -0.34763  -0.34259  -0.33972
 Alpha  occ. eigenvalues --   -0.33800  -0.33640  -0.33074  -0.31904  -0.31710
 Alpha  occ. eigenvalues --   -0.31408  -0.31378  -0.31041  -0.30956  -0.30605
 Alpha  occ. eigenvalues --   -0.30055  -0.29310  -0.29262  -0.24486  -0.24231
 Alpha  occ. eigenvalues --   -0.21526  -0.20181
 Alpha virt. eigenvalues --   -0.08907  -0.07552  -0.02488  -0.02025  -0.00612
 Alpha virt. eigenvalues --    0.00028   0.01191   0.01836   0.01876   0.02421
 Alpha virt. eigenvalues --    0.04313   0.04884   0.04974   0.05447   0.05478

 Mulliken charges:
               1
     1  Mg   0.811230
     2  C    0.053136
     3  C   -0.123008
     4  C   -0.063831
     5  C   -0.065437
     6  N   -0.267884
     7  C   -0.054869
     8  C   -0.044083
     9  C   -0.099861
    10  C    0.112741
    11  C    0.068891
    12  C    0.138592
    13  C   -0.083137
    14  H   -0.006574
    15  N   -0.362793
    16  C    0.148158
    17  C   -0.139273
    18  C   -0.064768
    19  C    0.139375
    20  C    0.103288
    21  C   -0.015278
    22  O   -0.185045
    23  C    0.069076
    24  N   -0.322228
    25  C    0.034085
    26  C   -0.048989
    27  C   -0.011822
    28  C    0.064138
    29  C    0.078942
    30  C    0.007244
    31  C    0.029989
    32  N   -0.332897
    33  C    0.080401
    34  C   -0.182273
    35  C    0.030893
    36  C    0.076676
    37  C    0.117215
    38  C    0.052333
    39  O   -0.200656
    40  C   -0.080734
    41  C    0.223751
    42  O   -0.248578
    43  O   -0.309996
    44  C    0.170754
    45  H   -0.035037
    46  H    0.002004
    47  H   -0.033067
    48  H   -0.004806
    49  H   -0.000971
    50  H    0.028222
    51  H    0.011840
    52  H    0.014433
    53  H   -0.009247
    54  H    0.049594
    55  H    0.031246
    56  H    0.021220
    57  H    0.030224
    58  H    0.013477
    59  H    0.050649
    60  H    0.035172
    61  H    0.045114
    62  H    0.034448
    63  H    0.016510
    64  H    0.007025
    65  H    0.017631
    66  H    0.024250
    67  H    0.016128
    68  H    0.003805
    69  H    0.003986
    70  H    0.022791
    71  H    0.008371
    72  H    0.020784
    73  H    0.040147
    74  H    0.033969
    75  H    0.013521
    76  H    0.060423
    77  H    0.051655
    78  H    0.033596
    79  H    0.044001
    80  Mg   0.823371
    81  C   -0.024877
    82  C   -0.082113
    83  C   -0.031333
    84  C   -0.095674
    85  N   -0.272483
    86  C   -0.080822
    87  C    0.045099
    88  C   -0.108074
    89  C    0.036599
    90  C    0.079831
    91  C    0.047739
    92  C   -0.094757
    93  H    0.010155
    94  N   -0.388582
    95  C    0.149232
    96  C   -0.157947
    97  C   -0.043809
    98  C    0.147786
    99  C    0.134743
   100  C    0.013434
   101  O   -0.209402
   102  C    0.034113
   103  N   -0.199548
   104  C    0.025769
   105  C   -0.006811
   106  C   -0.076365
   107  C    0.051559
   108  C    0.059930
   109  C   -0.001634
   110  C    0.015451
   111  N   -0.315893
   112  C    0.114115
   113  C   -0.179649
   114  C    0.031496
   115  C    0.134919
   116  C    0.119662
   117  C    0.021390
   118  O   -0.182674
   119  C   -0.017364
   120  C    0.214350
   121  O   -0.175903
   122  O   -0.370359
   123  C    0.173506
   124  H   -0.036583
   125  H   -0.077734
   126  H   -0.024266
   127  H    0.012978
   128  H    0.011083
   129  H    0.013888
   130  H    0.016928
   131  H    0.032916
   132  H    0.019925
   133  H    0.021157
   134  H    0.051468
   135  H    0.052523
   136  H    0.053449
   137  H    0.017501
   138  H    0.015921
   139  H    0.036734
   140  H    0.036763
   141  H    0.025250
   142  H    0.009797
   143  H    0.001028
   144  H    0.012003
   145  H    0.014742
   146  H    0.005284
   147  H    0.019538
   148  H    0.001097
   149  H    0.020964
   150  H    0.015874
   151  H    0.009289
   152  H    0.021154
   153  H    0.031305
   154  H    0.046300
   155  H    0.038489
   156  H    0.048686
   157  H    0.026409
   158  H    0.029962
 Sum of Mulliken charges =  -0.00000

 Dipole moment (field-independent basis, Debye):
    X=             -0.5909    Y=              1.4058    Z=             -1.5491  Tot=              2.1738
 Quadrupole moment (field-independent basis, Debye-Ang):
   XX=           -263.9318   YY=           -564.5918   ZZ=           -491.7993
   XY=            126.7179   XZ=             16.5817   YZ=            -40.5902

 Normal termination of Gaussian 16 at Wed Sep 15 14:19:46 2021.
