 Gaussian 16, Revision A.03,
 Gaussian 16:  ES64L-G16RevA.03 25-Dec-2016

 ----------------------------------------------------------
 #p cam-b3lyp/Def2SVP td=(nstates=5) density=(transition=1)
 ----------------------------------------------------------

 --------------------------------
 TDDFT excited states in gaussian
 --------------------------------
 Symbolic Z-matrix:
 Charge =  0 Multiplicity = 1

                         Standard orientation:
 ---------------------------------------------------------------------
 Center     Atomic      Atomic             Coordinates (Angstroms)
 Number     Number       Type             X           Y           Z
 ---------------------------------------------------------------------
      1         12           0       21.523343    0.669226   -0.103913
      2          6           0       21.698488   -2.869448    0.013733
      3          6           0       18.775216    0.478508    1.880790
      4          6           0       21.863896    4.007810    0.441307
      5          6           0       24.613232    0.666634   -1.674046
      6          7           0       20.537252   -1.087392    0.920042
      7          6           0       20.676346   -2.442000    0.772487
      8          6           0       19.617143   -3.192244    1.490938
      9          6           0       18.515999   -2.069335    1.789665
     10          6           0       19.300154   -0.826731    1.538973
     11          6           0       17.293153   -2.223490    0.899795
     12          6           0       20.279296   -3.872133    2.699626
     13          6           0       20.088195   -5.439547    2.856496
     14          1           0       19.510699   -6.058283    4.165070
     15          7           0       20.482766    2.103444    0.950018
     16          6           0       19.299930    1.812558    1.643776
     17          6           0       18.715955    3.056347    2.047396
     18          6           0       19.598259    4.127364    1.678500
     19          6           0       20.674795    3.431945    0.923513
     20          6           0       17.358683    3.093484    2.737924
     21          6           0       19.457335    5.609666    1.943408
     22          8           0       18.350755    5.924101    2.469800
     23          6           0       20.512089    6.736479    1.754727
     24          7           0       23.034298    2.175516   -0.557928
     25          6           0       22.919326    3.486919   -0.253110
     26          6           0       24.150867    4.325408   -0.686652
     27          6           0       24.984881    3.254115   -1.470506
     28          6           0       24.167764    1.911715   -1.165259
     29          6           0       23.695826    5.502192   -1.531080
     30          6           0       26.414396    3.114621   -1.044130
     31          6           0       27.405622    3.574638   -2.078433
     32          7           0       22.809711   -0.699278   -0.868337
     33          6           0       24.032619   -0.609506   -1.545243
     34          6           0       24.421742   -1.817798   -2.069351
     35          6           0       23.512223   -2.741102   -1.514458
     36          6           0       22.608466   -2.021669   -0.735956
     37          6           0       25.507857   -1.970021   -3.113157
     38          6           0       23.114762   -4.174061   -1.528406
     39          8           0       23.597101   -5.085325   -2.126259
     40          6           0       21.970618   -4.234501   -0.446945
     41          6           0       20.906321   -5.167062   -0.982894
     42          8           0       20.729726   -6.322712   -0.597232
     43          8           0       20.112746   -4.503852   -1.950179
     44          6           0       18.990708   -5.322987   -2.407652
     45          1           0       17.778860    0.431384    2.325777
     46          1           0       21.964138    5.093824    0.505907
     47          1           0       25.661946    0.576468   -1.962572
     48          1           0       19.210827   -3.962732    0.835563
     49          1           0       18.195333   -2.176782    2.825531
     50          1           0       17.535975   -2.540880   -0.113378
     51          1           0       16.835786   -1.241396    0.775211
     52          1           0       16.518762   -2.863005    1.323337
     53          1           0       19.888579   -3.384467    3.592606
     54          1           0       21.343201   -3.656583    2.798364
     55          1           0       21.124046   -5.763554    2.752548
     56          1           0       19.631084   -5.863260    1.963058
     57          1           0       17.328102    2.402164    3.580103
     58          1           0       16.634965    2.753044    1.997458
     59          1           0       17.059593    4.029497    3.211647
     60          1           0       20.602701    6.810736    0.671510
     61          1           0       21.449713    6.412537    2.206564
     62          1           0       20.213115    7.673348    2.225577
     63          1           0       24.718589    4.744056    0.143942
     64          1           0       24.860385    3.399564   -2.543253
     65          1           0       22.906370    6.016245   -0.982541
     66          1           0       23.301727    5.112658   -2.470271
     67          1           0       24.433627    6.214846   -1.897746
     68          1           0       26.711091    2.086117   -0.838558
     69          1           0       26.702795    3.618829   -0.122005
     70          1           0       28.060686    4.308120   -1.609950
     71          1           0       26.937273    4.111989   -2.903057
     72          1           0       27.969475    2.767839   -2.547882
     73          1           0       25.355800   -2.951978   -3.562352
     74          1           0       26.507084   -1.917918   -2.681458
     75          1           0       25.342241   -1.144725   -3.805301
     76          1           0       22.441737   -4.821947    0.341974
     77          1           0       18.169170   -4.691016   -2.745247
     78          1           0       18.531656   -5.865023   -1.582087
     79          1           0       19.273584   -6.047384   -3.171909
     80         12           0      -22.231327    0.135617   -0.403143
     81          6           0      -19.049750   -0.727541    0.729146
     82          6           0      -23.348675   -3.007631    0.466400
     83          6           0      -25.164021    1.192704   -1.427923
     84          6           0      -21.208347    3.630650   -0.258947
     85          7           0      -21.198807   -1.724341    0.474973
     86          6           0      -19.902386   -1.843209    0.890651
     87          6           0      -19.623469   -3.221561    1.375512
     88          6           0      -21.030428   -3.940556    1.328012
     89          6           0      -21.974716   -2.838627    0.706812
     90          6           0      -21.023585   -5.334167    0.650776
     91          6           0      -19.010547   -3.251887    2.796723
     92          6           0      -17.735423   -4.092976    2.818742
     93          1           0      -17.640920   -5.228155    3.882436
     94          7           0      -24.014675   -0.801829   -0.499587
     95          6           0      -24.298271   -2.118919   -0.141294
     96          6           0      -25.693774   -2.327774   -0.505143
     97          6           0      -26.252844   -1.105744   -1.105316
     98          6           0      -25.099427   -0.151331   -1.105411
     99          6           0      -26.427435   -3.518859   -0.137857
    100          6           0      -27.685373   -0.964319   -1.415325
    101          8           0      -28.505223   -1.847210   -1.272921
    102          6           0      -28.319083    0.311685   -1.847865
    103          7           0      -23.023943    2.067506   -0.724896
    104          6           0      -24.195822    2.192815   -1.427076
    105          6           0      -24.506544    3.655395   -1.665685
    106          6           0      -23.493625    4.379190   -0.859871
    107          6           0      -22.547478    3.335642   -0.526117
    108          6           0      -24.626283    4.077655   -3.187256
    109          6           0      -24.058053    4.923381    0.497215
    110          6           0      -23.438687    6.133595    1.025956
    111          7           0      -20.482944    1.280769    0.093189
    112          6           0      -20.191824    2.650314    0.043227
    113          6           0      -18.780412    2.831626    0.177079
    114          6           0      -18.288425    1.569193    0.486824
    115          6           0      -19.386824    0.637434    0.464559
    116          6           0      -18.098455    4.144473    0.058078
    117          6           0      -17.129522    0.856008    0.851388
    118          8           0      -15.991908    1.241922    1.002832
    119          6           0      -17.544107   -0.627928    0.965663
    120          6           0      -16.713959   -1.430061    0.053032
    121          8           0      -16.950410   -1.634899   -1.149521
    122          8           0      -15.548251   -1.790965    0.688915
    123          6           0      -14.598491   -2.675245    0.033342
    124          1           0      -23.616554   -4.037983    0.707166
    125          1           0      -26.088793    1.690403   -1.730334
    126          1           0      -20.939455    4.689037   -0.255313
    127          1           0      -19.103544   -3.696102    0.542816
    128          1           0      -21.432265   -4.176566    2.312889
    129          1           0      -19.966595   -5.601226    0.682655
    130          1           0      -21.486025   -5.401527   -0.334021
    131          1           0      -21.568434   -6.047915    1.268197
    132          1           0      -19.633608   -3.750918    3.538697
    133          1           0      -18.829823   -2.212698    3.070944
    134          1           0      -17.031569   -3.331552    3.154456
    135          1           0      -17.537711   -4.406008    1.794610
    136          1           0      -25.736789   -4.198348    0.362003
    137          1           0      -26.815264   -4.115421   -0.964115
    138          1           0      -27.211560   -3.254462    0.572482
    139          1           0      -27.606990    0.603330   -2.619876
    140          1           0      -28.302757    1.009769   -1.010482
    141          1           0      -29.313407    0.140047   -2.260697
    142          1           0      -25.510990    3.760163   -1.257200
    143          1           0      -22.881447    5.127793   -1.362899
    144          1           0      -24.645724    3.195796   -3.827877
    145          1           0      -23.921238    4.845086   -3.508629
    146          1           0      -25.607077    4.476165   -3.445258
    147          1           0      -24.012067    4.132490    1.245965
    148          1           0      -25.118003    5.159670    0.404876
    149          1           0      -23.939914    6.999095    0.591257
    150          1           0      -22.362261    6.157525    0.852963
    151          1           0      -23.723306    6.264132    2.070510
    152          1           0      -18.544535    4.750113   -0.730675
    153          1           0      -17.020210    4.072028   -0.085090
    154          1           0      -18.367644    4.655214    0.982671
    155          1           0      -17.273769   -1.071037    1.924230
    156          1           0      -14.002907   -2.292874   -0.795680
    157          1           0      -15.105724   -3.589792   -0.273264
    158          1           0      -13.854514   -2.876135    0.803320
 ---------------------------------------------------------------------

 SCF Done:  E(RCAM-B3LYP) =  -4069.78052870     A.U. after   18 cycles

 Excitation energies and oscillator strengths:

 Excited State   1:      Singlet-A      1.6751 eV  740.17 nm  f=0.3829  <S**2>=0.000
     310 -> 315       -0.18772
     312 -> 314        0.68150
     310 <- 315       -0.11059
 This state for optimization and/or second-order correction.
 Total Energy, E(TD-HF/TD-DFT) =  -4069.71897102
 Copying the excited state density for this state as the 1-particle RhoCI density.

 Excited State   2:      Singlet-A      1.6838 eV  736.35 nm  f=0.3479  <S**2>=0.000
     309 -> 316        0.17345
     311 -> 313        0.68493
     309 <- 316        0.10765

 Excited State   3:      Singlet-A      2.1859 eV  567.20 nm  f=0.1018  <S**2>=0.000
     310 -> 314        0.63556
     312 -> 315        0.29766

 Excited State   4:      Singlet-A      2.2196 eV  558.59 nm  f=0.1598  <S**2>=0.000
     309 -> 313        0.64872
     311 -> 316       -0.26683

 Excited State   5:      Singlet-A      3.1194 eV  397.46 nm  f=0.0000  <S**2>=0.000
     312 -> 313        0.70710

 The electronic state is 1-A.
 Alpha  occ. eigenvalues --  -46.89017 -46.88958 -19.25638 -19.24887 -19.21019
 Alpha  occ. eigenvalues --  -19.19864 -19.19381 -19.18373 -19.18312 -19.17395
 Alpha  occ. eigenvalues --  -14.42379 -14.42341 -14.42239 -14.41946 -14.40283
 Alpha  occ. eigenvalues --  -14.40098 -14.39184 -14.39008 -10.40364 -10.39108
 Alpha  occ. eigenvalues --  -10.35671 -10.35489 -10.34226 -10.33719 -10.31995
 Alpha  occ. eigenvalues --  -10.31696 -10.31673 -10.31636 -10.31588 -10.31585
 Alpha  occ. eigenvalues --  -10.31132 -10.31078 -10.31066 -10.30865 -10.30676
 Alpha  occ. eigenvalues --  -10.30645 -10.30560 -10.30489 -10.29881 -10.29108
 Alpha  occ. eigenvalues --  -10.29069 -10.29001 -10.28872 -10.28579 -10.28570
 Alpha  occ. eigenvalues --  -10.28562 -10.28550 -10.28546 -10.28415 -10.28388
 Alpha  occ. eigenvalues --  -10.28337 -10.28332 -10.28329 -10.28233 -10.28213
 Alpha  occ. eigenvalues --  -10.28139 -10.27996 -10.27984 -10.27827 -10.27736
 Alpha  occ. eigenvalues --  -10.27488 -10.27380 -10.27376 -10.27310 -10.27309
 Alpha  occ. eigenvalues --  -10.27223 -10.27191 -10.27156 -10.27043 -10.26980
 Alpha  occ. eigenvalues --  -10.26810 -10.26768 -10.26594 -10.26501 -10.26482
 Alpha  occ. eigenvalues --  -10.26455 -10.26304 -10.26238 -10.25963 -10.25566
 Alpha  occ. eigenvalues --  -10.25375 -10.25213 -10.25201 -10.25094 -10.24879
 Alpha  occ. eigenvalues --  -10.24738  -3.17581  -3.17448  -1.92461  -1.92351
 Alpha  occ. eigenvalues --   -1.92042  -1.91912  -1.91886  -1.91738  -1.15600
 Alpha  occ. eigenvalues --   -1.15467  -1.12052  -1.10073  -1.09857  -1.07962
 Alpha  occ. eigenvalues --   -1.07637  -1.06726  -1.05264  -1.05000  -1.04283
 Alpha  occ. eigenvalues --   -1.03817  -1.03367  -1.03003  -1.02762  -1.01587
 Alpha  occ. eigenvalues --   -0.93328  -0.92668  -0.90779  -0.89946  -0.89608
 Alpha  occ. eigenvalues --   -0.89332  -0.89072  -0.89065  -0.87875  -0.87724
 Alpha  occ. eigenvalues --   -0.87257  -0.87023  -0.86311  -0.85964  -0.85278
 Alpha  occ. eigenvalues --   -0.84850  -0.84558  -0.84291  -0.83472  -0.82645
 Alpha  occ. eigenvalues --   -0.82587  -0.81962  -0.81426  -0.80839  -0.80715
 Alpha  occ. eigenvalues --   -0.80508  -0.78685  -0.77991  -0.77826  -0.77474
 Alpha  occ. eigenvalues --   -0.77135  -0.76910  -0.76511  -0.76323  -0.75521
 Alpha  occ. eigenvalues --   -0.75398  -0.73539  -0.73424  -0.72239  -0.72049
 Alpha  occ. eigenvalues --   -0.69425  -0.69352  -0.69123  -0.69003  -0.68008
 Alpha  occ. eigenvalues --   -0.67728  -0.67531  -0.67250  -0.66482  -0.66366
 Alpha  occ. eigenvalues --   -0.65945  -0.65709  -0.65366  -0.65289  -0.64947
 Alpha  occ. eigenvalues --   -0.64698  -0.63136  -0.62049  -0.60754  -0.60545
 Alpha  occ. eigenvalues --   -0.60109  -0.59610  -0.59511  -0.59479  -0.58976
 Alpha  occ. eigenvalues --   -0.58976  -0.58072  -0.57931  -0.57427  -0.56904
 Alpha  occ. eigenvalues --   -0.56420  -0.56243  -0.55913  -0.55843  -0.55644
 Alpha  occ. eigenvalues --   -0.55496  -0.55159  -0.54963  -0.54449  -0.54364
 Alpha  occ. eigenvalues --   -0.54258  -0.53915  -0.53605  -0.53222  -0.53208
 Alpha  occ. eigenvalues --   -0.52846  -0.52715  -0.52564  -0.52305  -0.52300
 Alpha  occ. eigenvalues --   -0.52110  -0.52060  -0.51756  -0.51729  -0.51696
 Alpha  occ. eigenvalues --   -0.51299  -0.51245  -0.51136  -0.50892  -0.50560
 Alpha  occ. eigenvalues --   -0.50428  -0.50305  -0.50058  -0.50022  -0.49882
 Alpha  occ. eigenvalues --   -0.49672  -0.49671  -0.49401  -0.49134  -0.48927
 Alpha  occ. eigenvalues --   -0.48864  -0.48663  -0.48576  -0.48523  -0.48356
 Alpha  occ. eigenvalues --   -0.48010  -0.47745  -0.47635  -0.47228  -0.47148
 Alpha  occ. eigenvalues --   -0.47014  -0.46901  -0.46804  -0.46620  -0.46615
 Alpha  occ. eigenvalues --   -0.46475  -0.46329  -0.46223  -0.46034  -0.45923
 Alpha  occ. eigenvalues --   -0.45761  -0.45753  -0.45508  -0.45322  -0.45320
 Alpha  occ. eigenvalues --   -0.45166  -0.44948  -0.44900  -0.44601  -0.44494
 Alpha  occ. eigenvalues --   -0.44068  -0.44062  -0.43983  -0.43698  -0.43679
 Alpha  occ. eigenvalues --   -0.43443  -0.43282  -0.43245  -0.43077  -0.42980
 Alpha  occ. eigenvalues --   -0.42667  -0.42579  -0.42514  -0.42450  -0.42425
 Alpha  occ. eigenvalues --   -0.42099  -0.42088  -0.41749  -0.41678  -0.41600
 Alpha  occ. eigenvalues --   -0.41594  -0.41407  -0.41348  -0.41183  -0.41124
 Alpha  occ. eigenvalues --   -0.40687  -0.40278  -0.40145  -0.39226  -0.39051
 Alpha  occ. eigenvalues --   -0.38788  -0.38500  -0.38236  -0.37823  -0.37751
 Alpha  occ. eigenvalues --   -0.37347  -0.37342  -0.37266  -0.36987  -0.36436
 Alpha  occ. eigenvalues --   -0.36399  -0.36336  -0.35426  -0.34711  -0.34362
 Alpha  occ. eigenvalues --   -0.33729  -0.33201  -0.33043  -0.31759  -0.31397
 Alpha  occ. eigenvalues --   -0.31136  -0.30693  -0.30592  -0.30029  -0.29895
 Alpha  occ. eigenvalues --   -0.29800  -0.29671  -0.29454  -0.24423  -0.24323
 Alpha  occ. eigenvalues --   -0.21654  -0.21589
 Alpha virt. eigenvalues --   -0.09338  -0.09178  -0.02526  -0.01844   0.00219
 Alpha virt. eigenvalues --    0.00235   0.01791   0.02334   0.02395   0.02660
 Alpha virt. eigenvalues --    0.04071   0.04136   0.04978   0.05010   0.05444

 Mulliken charges:
               1
     1  Mg  11.999886
     2  C    6.001968
     3  C    5.999927
     4  C    5.997059
     5  C    5.998998
     6  N    7.002062
     7  C    5.997791
     8  C    6.000746
     9  C    5.998740
    10  C    6.001939
    11  C    5.999596
    12  C    6.000425
    13  C    5.999976
    14  H    0.999583
    15  N    6.999227
    16  C    6.003235
    17  C    6.001453
    18  C    6.000630
    19  C    6.003706
    20  C    5.999733
    21  C    6.000815
    22  O    8.001544
    23  C    6.000132
    24  N    6.998635
    25  C    6.003097
    26  C    5.999113
    27  C    6.000508
    28  C    5.998604
    29  C    5.999700
    30  C    6.000426
    31  C    6.000160
    32  N    7.000095
    33  C    5.997793
    34  C    5.997860
    35  C    5.999579
    36  C    5.997139
    37  C    6.000021
    38  C    5.998641
    39  O    7.997975
    40  C    5.999711
    41  C    5.999756
    42  O    7.999499
    43  O    8.000154
    44  C    6.000231
    45  H    1.001241
    46  H    1.000057
    47  H    0.998757
    48  H    1.000139
    49  H    1.000448
    50  H    1.001150
    51  H    0.999708
    52  H    1.000876
    53  H    0.999181
    54  H    1.000238
    55  H    1.000305
    56  H    1.000124
    57  H    1.001358
    58  H    1.001472
    59  H    1.001223
    60  H    1.000751
    61  H    1.000708
    62  H    1.000828
    63  H    1.000048
    64  H    0.999844
    65  H    0.999431
    66  H    1.000399
    67  H    1.000471
    68  H    1.000383
    69  H    0.999150
    70  H    0.999420
    71  H    0.999600
    72  H    1.000133
    73  H    0.998827
    74  H    0.998382
    75  H    0.998755
    76  H    0.999634
    77  H    0.999531
    78  H    0.999602
    79  H    0.999955
    80  Mg  12.001284
    81  C    6.017904
    82  C    5.979220
    83  C    5.975517
    84  C    6.023840
    85  N    7.004644
    86  C    5.966073
    87  C    6.014184
    88  C    5.991008
    89  C    6.029761
    90  C    5.996896
    91  C    6.001049
    92  C    6.001155
    93  H    0.991914
    94  N    6.985810
    95  C    6.050670
    96  C    6.020494
    97  C    6.012705
    98  C    6.044685
    99  C    5.987915
   100  C    6.006689
   101  O    8.018358
   102  C    5.998805
   103  N    7.007571
   104  C    6.034643
   105  C    5.992068
   106  C    6.007667
   107  C    5.961059
   108  C    5.998821
   109  C    6.008212
   110  C    6.000831
   111  N    7.005925
   112  C    5.951504
   113  C    5.976024
   114  C    5.994917
   115  C    5.963763
   116  C    6.001970
   117  C    5.982688
   118  O    7.967225
   119  C    6.002679
   120  C    5.995102
   121  O    7.991921
   122  O    8.000460
   123  C    6.003737
   124  H    1.009795
   125  H    1.011061
   126  H    0.991085
   127  H    0.995953
   128  H    1.000942
   129  H    1.012355
   130  H    0.997262
   131  H    0.999912
   132  H    0.991896
   133  H    1.007390
   134  H    1.004222
   135  H    0.999345
   136  H    1.020722
   137  H    1.023156
   138  H    1.021187
   139  H    1.005873
   140  H    1.010677
   141  H    1.012458
   142  H    0.999676
   143  H    1.002231
   144  H    0.997467
   145  H    1.012994
   146  H    1.002113
   147  H    0.994347
   148  H    0.985201
   149  H    0.994551
   150  H    1.006195
   151  H    0.996212
   152  H    0.980432
   153  H    0.985661
   154  H    0.981009
   155  H    0.990563
   156  H    0.997059
   157  H    0.993653
   158  H    0.995983
 Sum of Mulliken charges = 624.00000

 Dipole moment (field-independent basis, Debye):
    X=             -9.9752    Y=             -4.3591    Z=             -1.4272  Tot=             10.9792
 Quadrupole moment (field-independent basis, Debye-Ang):
   XX=            392.2427   YY=             -3.1096   ZZ=              1.3359
   XY=            117.1325   XZ=             50.8733   YZ=             -0.9149

 Normal termination of Gaussian 16 at Wed Sep 22 18:31:49 2021.
