 Gaussian 16, Revision A.03,
 Gaussian 16:  ES64L-G16RevA.03 25-Dec-2016

 -----------------------------------
 #p cam-b3lyp/Def2SVP td=(nstates=5)
 -----------------------------------

 --------------------------------
 TDDFT excited states in gaussian
 --------------------------------
 Symbolic Z-matrix:
 Charge =  0 Multiplicity = 1

                         Standard orientation:
 ---------------------------------------------------------------------
 Center     Atomic      Atomic             Coordinates (Angstroms)
 Number     Number       Type             X           Y           Z
 ---------------------------------------------------------------------
      1         12           0       12.874401   -0.705890   -0.310528
      2          6           0       15.026278    1.862324    0.612002
      3          6           0       10.342371    0.878632    1.247556
      4          6           0       11.015841   -3.523383   -0.526445
      5          6           0       15.702090   -2.659016   -1.172632
      6          7           0       12.781294    1.172015    0.686575
      7          6           0       13.700520    2.184959    0.852394
      8          6           0       13.066208    3.374249    1.624877
      9          6           0       11.794080    2.701249    2.226486
     10          6           0       11.551760    1.555014    1.255521
     11          6           0       11.967418    2.157912    3.688450
     12          6           0       12.967202    4.566355    0.655507
     13          6           0       13.343867    5.869057    1.251699
     14          1           0       13.700006    6.908514    0.287950
     15          7           0       10.897137   -1.136741    0.083172
     16          6           0       10.001804   -0.307146    0.678688
     17          6           0        8.679172   -0.841797    0.473097
     18          6           0        8.882213   -2.163868   -0.064524
     19          6           0       10.334657   -2.355709   -0.112234
     20          6           0        7.434271   -0.149614    0.899153
     21          6           0        7.871017   -3.311722   -0.387701
     22          8           0        8.218871   -4.396483   -0.858634
     23          6           0        6.387399   -3.098625   -0.273529
     24          7           0       13.398959   -2.877657   -0.457948
     25          6           0       12.362707   -3.829251   -0.662003
     26          6           0       12.861364   -5.164641   -1.105710
     27          6           0       14.315049   -4.745408   -1.499386
     28          6           0       14.474006   -3.288867   -1.071422
     29          6           0       12.763366   -6.283102   -0.013608
     30          6           0       14.611456   -4.885624   -3.037250
     31          6           0       13.589795   -4.204741   -3.983285
     32          7           0       14.933613   -0.455573   -0.401472
     33          6           0       15.957046   -1.319731   -0.820438
     34          6           0       17.168626   -0.599274   -0.696988
     35          6           0       16.831849    0.642200   -0.172052
     36          6           0       15.486366    0.665226   -0.005709
     37          6           0       18.517710   -1.091775   -1.114204
     38          6           0       17.377696    1.824388    0.307095
     39          8           0       18.569791    2.175829    0.372259
     40          6           0       16.254942    2.754649    0.857421
     41          6           0       16.374541    4.030867   -0.032821
     42          8           0       16.094669    4.095482   -1.243107
     43          8           0       16.849945    5.067159    0.763464
     44          6           0       17.292265    6.331914    0.094658
     45          1           0        9.633775    1.438441    1.861652
     46          1           0       10.561312   -4.482722   -0.785198
     47          1           0       16.578389   -3.133950   -1.618845
     48          1           0       13.750185    3.734237    2.392700
     49          1           0       10.953898    3.390092    2.143943
     50          1           0       12.922612    2.369303    4.169944
     51          1           0       11.952501    1.068787    3.695685
     52          1           0       11.215791    2.624387    4.324956
     53          1           0       11.907400    4.666603    0.425473
     54          1           0       13.570762    4.329688   -0.221156
     55          1           0       14.242734    5.673932    1.836795
     56          1           0       12.560005    6.170393    1.946299
     57          1           0        7.603502    0.915731    1.054520
     58          1           0        6.982316   -0.729478    1.704589
     59          1           0        6.710566   -0.181309    0.084617
     60          1           0        5.982935   -4.098834   -0.116660
     61          1           0        5.977336   -2.714943   -1.208016
     62          1           0        6.126959   -2.481941    0.587248
     63          1           0       12.365492   -5.547410   -1.998831
     64          1           0       15.019435   -5.360438   -0.938387
     65          1           0       12.692582   -5.813008    0.967631
     66          1           0       13.594314   -6.986272    0.044946
     67          1           0       11.902073   -6.947718   -0.087028
     68          1           0       14.728685   -5.954043   -3.219270
     69          1           0       15.615262   -4.472670   -3.136393
     70          1           0       14.047777   -3.449455   -4.622265
     71          1           0       12.821069   -3.765332   -3.347002
     72          1           0       13.101633   -4.911688   -4.653458
     73          1           0       19.145943   -1.016362   -0.226704
     74          1           0       18.853788   -0.471969   -1.945450
     75          1           0       18.564186   -2.141165   -1.405535
     76          1           0       16.505307    3.016678    1.885065
     77          1           0       18.102756    6.049553   -0.576880
     78          1           0       17.655403    7.140676    0.728725
     79          1           0       16.348677    6.550640   -0.405320
     80         12           0      -13.683052   -0.456221    0.309271
     81          6           0      -13.388765    2.758797   -1.032069
     82          6           0      -12.280794    0.750562    3.222015
     83          6           0      -13.292925   -3.664035    1.408721
     84          6           0      -14.450122   -1.626330   -2.858604
     85          7           0      -13.035844    1.523891    0.977929
     86          6           0      -13.212173    2.691692    0.346689
     87          6           0      -13.002658    3.933856    1.225051
     88          6           0      -12.458780    3.285090    2.555354
     89          6           0      -12.678732    1.689978    2.305622
     90          6           0      -11.005152    3.613367    2.958955
     91          6           0      -14.248670    4.799608    1.412810
     92          6           0      -13.925102    6.275809    1.706427
     93          1           0      -12.458250    6.717897    1.805439
     94          7           0      -13.009195   -1.348885    2.094537
     95          6           0      -12.518653   -0.665701    3.231197
     96          6           0      -12.230831   -1.644031    4.260786
     97          6           0      -12.460531   -2.965089    3.722864
     98          6           0      -12.972443   -2.710325    2.377247
     99          6           0      -11.854915   -1.216207    5.652737
    100          6           0      -12.384543   -4.395563    4.423092
    101          8           0      -12.740744   -5.421210    3.895585
    102          6           0      -11.811277   -4.426697    5.823254
    103          7           0      -13.753679   -2.350630   -0.609691
    104          6           0      -13.600365   -3.539233    0.042082
    105          6           0      -13.850226   -4.773261   -0.901018
    106          6           0      -14.272673   -4.077962   -2.194180
    107          6           0      -14.143414   -2.603124   -1.862882
    108          6           0      -12.768240   -5.914099   -1.074233
    109          6           0      -15.715752   -4.465921   -2.593336
    110          6           0      -16.898415   -3.728384   -1.927190
    111          7           0      -14.046647    0.347635   -1.590584
    112          6           0      -14.349882   -0.242436   -2.790182
    113          6           0      -14.500733    0.729619   -3.820562
    114          6           0      -14.114942    1.986163   -3.169052
    115          6           0      -13.845333    1.679281   -1.892330
    116          6           0      -14.892484    0.605968   -5.226295
    117          6           0      -13.811641    3.395545   -3.375525
    118          8           0      -13.980388    4.106554   -4.371921
    119          6           0      -13.333618    3.982795   -2.014923
    120          6           0      -12.004146    4.574525   -2.124394
    121          8           0      -10.941396    3.962883   -2.150835
    122          8           0      -12.128888    5.908147   -2.423065
    123          6           0      -10.980412    6.641356   -2.990063
    124          1           0      -11.811557    1.215263    4.091923
    125          1           0      -13.348387   -4.680189    1.804638
    126          1           0      -14.786159   -1.979592   -3.835672
    127          1           0      -12.167595    4.538511    0.871991
    128          1           0      -13.114271    3.439865    3.411626
    129          1           0      -11.162189    3.961837    3.979589
    130          1           0      -10.601379    4.408339    2.332441
    131          1           0      -10.375769    2.727316    2.875048
    132          1           0      -14.901404    4.413758    2.194923
    133          1           0      -14.859929    4.778362    0.510186
    134          1           0      -14.440264    6.405584    2.658422
    135          1           0      -14.459713    6.950664    1.036420
    136          1           0      -11.675855   -0.142925    5.587647
    137          1           0      -10.962355   -1.760147    5.962607
    138          1           0      -12.630055   -1.431586    6.389707
    139          1           0      -10.730882   -4.315231    5.920626
    140          1           0      -12.154487   -5.344716    6.300264
    141          1           0      -12.320294   -3.583168    6.289451
    142          1           0      -14.687866   -5.248849   -0.391356
    143          1           0      -13.561471   -4.392912   -2.956936
    144          1           0      -12.554894   -6.186166   -2.107273
    145          1           0      -13.159549   -6.821315   -0.614963
    146          1           0      -11.879816   -5.612735   -0.518471
    147          1           0      -15.785597   -5.536924   -2.407032
    148          1           0      -15.747836   -4.327137   -3.674389
    149          1           0      -17.627602   -4.512663   -1.725587
    150          1           0      -17.383690   -3.007653   -2.584935
    151          1           0      -16.626906   -3.145166   -1.047986
    152          1           0      -15.565306    1.431940   -5.454248
    153          1           0      -15.371077   -0.333934   -5.501483
    154          1           0      -14.041578    0.831015   -5.869522
    155          1           0      -14.100085    4.715203   -1.761971
    156          1           0      -10.088070    6.018390   -3.060404
    157          1           0      -10.750350    7.466838   -2.316004
    158          1           0      -11.381044    6.927426   -3.961927
 ---------------------------------------------------------------------

 SCF Done:  E(RCAM-B3LYP) =  -4069.82928907     A.U. after   19 cycles

 Excitation energies and oscillator strengths:

 Excited State   1:      Singlet-A      1.6607 eV  746.57 nm  f=0.3820  <S**2>=0.000
     309 -> 315        0.16223
     312 -> 313        0.68876
     309 <- 315        0.10410
 This state for optimization and/or second-order correction.
 Total Energy, E(TD-HF/TD-DFT) =  -4069.76825917
 Copying the excited state density for this state as the 1-particle RhoCI density.

 Excited State   2:      Singlet-A      1.7177 eV  721.81 nm  f=0.4092  <S**2>=0.000
     310 -> 316       -0.18149
     311 -> 314        0.68381
     310 <- 316       -0.10675

 Excited State   3:      Singlet-A      2.1355 eV  580.58 nm  f=0.1542  <S**2>=0.000
     310 -> 314        0.65931
     311 -> 316        0.23567

 Excited State   4:      Singlet-A      2.2191 eV  558.73 nm  f=0.1287  <S**2>=0.000
     309 -> 313        0.64338
     312 -> 315       -0.27233

 Excited State   5:      Singlet-A      2.9662 eV  417.99 nm  f=0.0000  <S**2>=0.000
     312 -> 314        0.70709

 The electronic state is 1-A.
 Alpha  occ. eigenvalues --  -46.88299 -46.88291 -19.24726 -19.23929 -19.19991
 Alpha  occ. eigenvalues --  -19.19990 -19.19041 -19.18753 -19.18705 -19.17634
 Alpha  occ. eigenvalues --  -14.42327 -14.41940 -14.41921 -14.41459 -14.39478
 Alpha  occ. eigenvalues --  -14.39323 -14.38483 -14.38211 -10.40010 -10.38737
 Alpha  occ. eigenvalues --  -10.36234 -10.35254 -10.35133 -10.33616 -10.31960
 Alpha  occ. eigenvalues --  -10.31224 -10.30934 -10.30931 -10.30929 -10.30759
 Alpha  occ. eigenvalues --  -10.30718 -10.30536 -10.30366 -10.30300 -10.30218
 Alpha  occ. eigenvalues --  -10.30202 -10.29917 -10.29286 -10.29183 -10.28925
 Alpha  occ. eigenvalues --  -10.28900 -10.28623 -10.28320 -10.28306 -10.28289
 Alpha  occ. eigenvalues --  -10.28221 -10.28201 -10.28193 -10.28160 -10.27890
 Alpha  occ. eigenvalues --  -10.27865 -10.27829 -10.27714 -10.27651 -10.27622
 Alpha  occ. eigenvalues --  -10.27618 -10.27532 -10.27464 -10.27432 -10.27174
 Alpha  occ. eigenvalues --  -10.27148 -10.27051 -10.26999 -10.26992 -10.26982
 Alpha  occ. eigenvalues --  -10.26955 -10.26708 -10.26638 -10.26508 -10.26386
 Alpha  occ. eigenvalues --  -10.26384 -10.26370 -10.26354 -10.26024 -10.25965
 Alpha  occ. eigenvalues --  -10.25916 -10.25909 -10.25905 -10.25841 -10.25811
 Alpha  occ. eigenvalues --  -10.25728 -10.25720 -10.25544 -10.25508 -10.24806
 Alpha  occ. eigenvalues --  -10.23761  -3.16895  -3.16816  -1.91775  -1.91717
 Alpha  occ. eigenvalues --   -1.91353  -1.91269  -1.91197  -1.91122  -1.15144
 Alpha  occ. eigenvalues --   -1.14399  -1.11628  -1.09444  -1.08914  -1.07926
 Alpha  occ. eigenvalues --   -1.06699  -1.06630  -1.04788  -1.04496  -1.03879
 Alpha  occ. eigenvalues --   -1.03496  -1.03377  -1.02496  -1.02206  -1.01069
 Alpha  occ. eigenvalues --   -0.92512  -0.92124  -0.89224  -0.89072  -0.89031
 Alpha  occ. eigenvalues --   -0.88860  -0.88565  -0.88187  -0.87776  -0.87144
 Alpha  occ. eigenvalues --   -0.87105  -0.86511  -0.86507  -0.86135  -0.84579
 Alpha  occ. eigenvalues --   -0.84252  -0.83486  -0.83485  -0.82387  -0.82146
 Alpha  occ. eigenvalues --   -0.82012  -0.81593  -0.81049  -0.80969  -0.80369
 Alpha  occ. eigenvalues --   -0.80221  -0.78182  -0.78176  -0.77185  -0.77051
 Alpha  occ. eigenvalues --   -0.76915  -0.76891  -0.76015  -0.75952  -0.75449
 Alpha  occ. eigenvalues --   -0.75062  -0.73229  -0.72480  -0.72028  -0.71142
 Alpha  occ. eigenvalues --   -0.69862  -0.69770  -0.68745  -0.68499  -0.67737
 Alpha  occ. eigenvalues --   -0.67515  -0.66509  -0.66127  -0.65316  -0.64813
 Alpha  occ. eigenvalues --   -0.64751  -0.64639  -0.64492  -0.64433  -0.64046
 Alpha  occ. eigenvalues --   -0.63776  -0.61545  -0.61453  -0.59861  -0.59820
 Alpha  occ. eigenvalues --   -0.59763  -0.59141  -0.59134  -0.59118  -0.58414
 Alpha  occ. eigenvalues --   -0.58367  -0.57715  -0.57543  -0.57461  -0.56981
 Alpha  occ. eigenvalues --   -0.55958  -0.55903  -0.55597  -0.55486  -0.55305
 Alpha  occ. eigenvalues --   -0.55222  -0.55058  -0.54745  -0.54708  -0.53757
 Alpha  occ. eigenvalues --   -0.53528  -0.53399  -0.53022  -0.52921  -0.52912
 Alpha  occ. eigenvalues --   -0.52787  -0.52731  -0.52440  -0.52373  -0.52184
 Alpha  occ. eigenvalues --   -0.52025  -0.51908  -0.51661  -0.51650  -0.51435
 Alpha  occ. eigenvalues --   -0.50850  -0.50687  -0.50463  -0.50322  -0.50273
 Alpha  occ. eigenvalues --   -0.49719  -0.49633  -0.49615  -0.49417  -0.49359
 Alpha  occ. eigenvalues --   -0.49174  -0.49104  -0.49054  -0.48892  -0.48737
 Alpha  occ. eigenvalues --   -0.48596  -0.48499  -0.48284  -0.48172  -0.48061
 Alpha  occ. eigenvalues --   -0.47954  -0.47673  -0.47661  -0.47341  -0.47161
 Alpha  occ. eigenvalues --   -0.47012  -0.46796  -0.46593  -0.46305  -0.46276
 Alpha  occ. eigenvalues --   -0.46173  -0.45970  -0.45873  -0.45694  -0.45679
 Alpha  occ. eigenvalues --   -0.45445  -0.45294  -0.45077  -0.44690  -0.44587
 Alpha  occ. eigenvalues --   -0.44467  -0.44317  -0.44158  -0.44015  -0.43732
 Alpha  occ. eigenvalues --   -0.43688  -0.43453  -0.43442  -0.43419  -0.43235
 Alpha  occ. eigenvalues --   -0.43170  -0.43107  -0.43031  -0.42837  -0.42724
 Alpha  occ. eigenvalues --   -0.42672  -0.42413  -0.42345  -0.41975  -0.41943
 Alpha  occ. eigenvalues --   -0.41712  -0.41567  -0.41549  -0.41149  -0.41044
 Alpha  occ. eigenvalues --   -0.40936  -0.40824  -0.40656  -0.40630  -0.40278
 Alpha  occ. eigenvalues --   -0.40275  -0.39960  -0.39936  -0.39141  -0.38565
 Alpha  occ. eigenvalues --   -0.38437  -0.38183  -0.38014  -0.37892  -0.37737
 Alpha  occ. eigenvalues --   -0.37343  -0.36809  -0.36676  -0.36577  -0.36168
 Alpha  occ. eigenvalues --   -0.36058  -0.35728  -0.34368  -0.34166  -0.34067
 Alpha  occ. eigenvalues --   -0.33855  -0.33323  -0.33204  -0.31650  -0.31294
 Alpha  occ. eigenvalues --   -0.30931  -0.30865  -0.30794  -0.30036  -0.29701
 Alpha  occ. eigenvalues --   -0.29653  -0.29376  -0.28702  -0.24219  -0.23561
 Alpha  occ. eigenvalues --   -0.21365  -0.21170
 Alpha virt. eigenvalues --   -0.08982  -0.08961  -0.01490  -0.01359   0.00555
 Alpha virt. eigenvalues --    0.00557   0.02220   0.02444   0.02447   0.02565
 Alpha virt. eigenvalues --    0.04980   0.05088   0.05090   0.05279   0.05958

 Mulliken charges:
               1
     1  Mg   0.820670
     2  C   -0.060282
     3  C   -0.109589
     4  C   -0.010525
     5  C   -0.097859
     6  N   -0.339990
     7  C   -0.020890
     8  C   -0.061528
     9  C   -0.031298
    10  C    0.010384
    11  C    0.081278
    12  C    0.079406
    13  C   -0.068958
    14  H    0.035462
    15  N   -0.383333
    16  C    0.220940
    17  C   -0.158577
    18  C   -0.039950
    19  C    0.171586
    20  C    0.117466
    21  C    0.010807
    22  O   -0.218656
    23  C    0.055158
    24  N   -0.251757
    25  C   -0.074998
    26  C   -0.004095
    27  C   -0.051248
    28  C    0.088313
    29  C    0.063744
    30  C    0.024282
    31  C    0.002167
    32  N   -0.340214
    33  C    0.098548
    34  C   -0.182248
    35  C    0.104009
    36  C    0.159773
    37  C    0.133486
    38  C   -0.059277
    39  O   -0.207815
    40  C    0.035640
    41  C    0.229306
    42  O   -0.241898
    43  O   -0.360308
    44  C    0.180274
    45  H   -0.026190
    46  H   -0.008806
    47  H   -0.021125
    48  H   -0.002302
    49  H   -0.007331
    50  H    0.013703
    51  H    0.031699
    52  H    0.021155
    53  H   -0.004137
    54  H    0.042638
    55  H    0.020579
    56  H    0.016795
    57  H    0.018566
    58  H    0.045513
    59  H    0.020031
    60  H    0.029553
    61  H    0.052134
    62  H    0.006352
    63  H    0.019309
    64  H    0.002979
    65  H    0.017762
    66  H    0.011197
    67  H    0.020606
    68  H    0.005201
    69  H   -0.001551
    70  H    0.023093
    71  H    0.027987
    72  H    0.019179
    73  H    0.034914
    74  H    0.045116
    75  H   -0.002661
    76  H    0.036047
    77  H    0.050375
    78  H    0.051134
    79  H    0.043089
    80  Mg   0.823039
    81  C    0.006393
    82  C   -0.075247
    83  C   -0.064038
    84  C   -0.084744
    85  N   -0.287785
    86  C   -0.049485
    87  C   -0.003301
    88  C   -0.105763
    89  C    0.045307
    90  C    0.081865
    91  C    0.057000
    92  C   -0.056531
    93  H    0.033241
    94  N   -0.398849
    95  C    0.148750
    96  C   -0.158324
    97  C   -0.054734
    98  C    0.106831
    99  C    0.107937
   100  C    0.035185
   101  O   -0.175791
   102  C    0.039507
   103  N   -0.264176
   104  C    0.020564
   105  C   -0.037469
   106  C    0.004127
   107  C    0.026910
   108  C    0.071291
   109  C    0.003258
   110  C    0.023067
   111  N   -0.363409
   112  C    0.130834
   113  C   -0.149132
   114  C    0.007058
   115  C    0.102503
   116  C    0.128384
   117  C    0.019660
   118  O   -0.184975
   119  C    0.009720
   120  C    0.206553
   121  O   -0.224899
   122  O   -0.347413
   123  C    0.166022
   124  H   -0.022247
   125  H   -0.007144
   126  H   -0.041465
   127  H    0.017728
   128  H    0.005541
   129  H    0.018257
   130  H    0.021256
   131  H    0.034374
   132  H    0.006385
   133  H    0.007349
   134  H    0.018464
   135  H    0.031283
   136  H    0.003967
   137  H    0.025071
   138  H    0.045453
   139  H    0.059495
   140  H    0.027385
   141  H    0.011674
   142  H    0.014122
   143  H    0.008397
   144  H    0.018977
   145  H    0.013915
   146  H    0.029068
   147  H    0.005473
   148  H    0.006412
   149  H    0.017154
   150  H    0.015019
   151  H    0.026866
   152  H    0.029813
   153  H    0.012703
   154  H    0.034367
   155  H    0.043408
   156  H    0.050209
   157  H    0.036832
   158  H    0.055502
 Sum of Mulliken charges =  -0.00000

 Dipole moment (field-independent basis, Debye):
    X=             -4.6849    Y=              0.2638    Z=              4.8244  Tot=              6.7299
 Quadrupole moment (field-independent basis, Debye-Ang):
   XX=           -570.3353   YY=           -489.7861   ZZ=           -496.3298
   XY=             -7.1379   XZ=            -31.7145   YZ=             37.6776

 Normal termination of Gaussian 16 at Wed Sep 15 10:14:42 2021.
