 Gaussian 16, Revision A.03,
 Gaussian 16:  ES64L-G16RevA.03 25-Dec-2016

 -----------------------------------
 #p cam-b3lyp/Def2SVP td=(nstates=5)
 -----------------------------------

 --------------------------------
 TDDFT excited states in gaussian
 --------------------------------
 Symbolic Z-matrix:
 Charge =  0 Multiplicity = 1

                         Standard orientation:
 ---------------------------------------------------------------------
 Center     Atomic      Atomic             Coordinates (Angstroms)
 Number     Number       Type             X           Y           Z
 ---------------------------------------------------------------------
      1         12           0      -23.173256    0.633401    0.370066
      2          6           0      -22.358655   -2.465392   -1.032377
      3          6           0      -22.390409    2.013748   -2.715349
      4          6           0      -23.509428    3.548175    1.770906
      5          6           0      -23.685691   -1.010074    3.465236
      6          7           0      -22.052709   -0.110252   -1.569576
      7          6           0      -22.000171   -1.398507   -1.923215
      8          6           0      -21.540741   -1.461990   -3.341504
      9          6           0      -21.140283   -0.010009   -3.700607
     10          6           0      -21.924248    0.712346   -2.622920
     11          6           0      -19.663082    0.385134   -3.741873
     12          6           0      -22.652968   -2.009550   -4.291236
     13          6           0      -22.296758   -3.152860   -5.295496
     14          1           0      -20.841386   -3.252563   -5.849890
     15          7           0      -23.118775    2.558826   -0.425878
     16          6           0      -22.958773    2.860865   -1.771737
     17          6           0      -23.130156    4.272006   -1.893750
     18          6           0      -23.336431    4.793052   -0.553785
     19          6           0      -23.344615    3.648936    0.345559
     20          6           0      -22.972434    5.064804   -3.209688
     21          6           0      -23.461837    6.264917   -0.065512
     22          8           0      -23.611409    6.587884    1.070153
     23          6           0      -23.451930    7.326290   -1.147997
     24          7           0      -23.554703    1.146292    2.329699
     25          6           0      -23.584606    2.453019    2.674593
     26          6           0      -23.861303    2.700774    4.183112
     27          6           0      -24.181980    1.215558    4.648108
     28          6           0      -23.823685    0.374335    3.428760
     29          6           0      -22.573736    3.415094    4.896241
     30          6           0      -25.617800    1.036646    5.233953
     31          6           0      -26.695895    0.488721    4.316109
     32          7           0      -23.103716   -1.348046    1.142378
     33          6           0      -23.419255   -1.856603    2.373378
     34          6           0      -23.268596   -3.352964    2.313983
     35          6           0      -22.855604   -3.611994    0.987502
     36          6           0      -22.720593   -2.362457    0.296531
     37          6           0      -23.343345   -4.332819    3.453322
     38          6           0      -22.481784   -4.661016    0.042054
     39          8           0      -22.420992   -5.877426    0.242618
     40          6           0      -22.315909   -3.961909   -1.303974
     41          6           0      -20.988690   -4.418651   -1.838339
     42          8           0      -19.904696   -3.999930   -1.475516
     43          8           0      -21.249890   -5.464536   -2.605105
     44          6           0      -20.157678   -6.367602   -2.932331
     45          1           0      -22.010593    2.467273   -3.632722
     46          1           0      -23.803450    4.498890    2.219818
     47          1           0      -23.858857   -1.517299    4.416978
     48          1           0      -20.690860   -2.141164   -3.400822
     49          1           0      -21.490795    0.153380   -4.719781
     50          1           0      -18.943052   -0.411363   -3.553285
     51          1           0      -19.466718    1.184190   -3.026448
     52          1           0      -19.485476    0.776102   -4.743478
     53          1           0      -23.186629   -1.228295   -4.832080
     54          1           0      -23.347976   -2.384869   -3.540231
     55          1           0      -22.972197   -2.971163   -6.132432
     56          1           0      -22.541664   -4.108745   -4.833160
     57          1           0      -22.271399    5.895767   -3.130642
     58          1           0      -23.890216    5.578844   -3.495663
     59          1           0      -22.686158    4.459165   -4.070558
     60          1           0      -24.167043    7.123690   -1.945553
     61          1           0      -22.429448    7.422991   -1.513285
     62          1           0      -23.607879    8.313039   -0.712023
     63          1           0      -24.720762    3.349942    4.349583
     64          1           0      -23.563616    0.887041    5.483334
     65          1           0      -22.142046    2.630711    5.518067
     66          1           0      -22.848369    4.183366    5.619378
     67          1           0      -21.784995    3.706390    4.201683
     68          1           0      -25.943882    2.057479    5.433615
     69          1           0      -25.619732    0.486940    6.174965
     70          1           0      -26.538946    1.023750    3.378720
     71          1           0      -27.597975    0.787142    4.849728
     72          1           0      -26.692314   -0.557621    4.011812
     73          1           0      -23.453893   -3.948733    4.467448
     74          1           0      -22.433940   -4.933711    3.467917
     75          1           0      -24.142902   -5.020912    3.180661
     76          1           0      -22.997910   -4.302734   -2.083206
     77          1           0      -19.179434   -6.231370   -2.472378
     78          1           0      -19.996133   -6.167120   -3.991932
     79          1           0      -20.576285   -7.361495   -3.091076
     80         12           0       23.075066    0.405343   -0.444974
     81          6           0       21.429247   -2.389638    0.578339
     82          6           0       19.946143    1.879407   -1.183530
     83          6           0       24.576106    3.388476   -0.400416
     84          6           0       26.158335   -0.967581    0.839999
     85          7           0       20.997258   -0.227307   -0.326490
     86          6           0       20.509656   -1.343649    0.103331
     87          6           0       18.982562   -1.518876   -0.216687
     88          6           0       18.601283   -0.237214   -1.051037
     89          6           0       19.939168    0.566386   -0.904227
     90          6           0       18.013336   -0.481002   -2.441620
     91          6           0       18.090840   -1.778299    1.137728
     92          6           0       18.642724   -1.311980    2.475163
     93          1           0       17.714531   -1.118014    3.674206
     94          7           0       22.343697    2.360924   -0.743495
     95          6           0       21.076903    2.759120   -1.097136
     96          6           0       21.031443    4.153423   -1.193283
     97          6           0       22.364172    4.655893   -0.930977
     98          6           0       23.177438    3.448196   -0.630453
     99          6           0       19.784871    4.859226   -1.694591
    100          6           0       22.747813    6.146440   -0.961083
    101          8           0       21.847789    6.974436   -1.227127
    102          6           0       24.054947    6.679655   -0.707061
    103          7           0       25.106358    1.161130    0.307388
    104          6           0       25.441829    2.379948   -0.007561
    105          6           0       26.952413    2.672910    0.218459
    106          6           0       27.481394    1.264510    0.567119
    107          6           0       26.192051    0.347556    0.573086
    108          6           0       27.654438    3.242786   -0.960995
    109          6           0       28.301656    1.231273    1.941720
    110          6           0       29.859080    0.969690    1.818789
    111          7           0       23.767559   -1.337943    0.410102
    112          6           0       25.014688   -1.798110    0.850908
    113          6           0       24.862932   -3.210418    1.320733
    114          6           0       23.478907   -3.426015    1.258334
    115          6           0       22.841823   -2.262060    0.734671
    116          6           0       25.875324   -4.131252    1.801613
    117          6           0       22.529303   -4.388852    1.583076
    118          8           0       22.594966   -5.537809    2.044189
    119          6           0       21.175555   -3.813614    1.078145
    120          6           0       20.567823   -4.823466    0.075778
    121          8           0       19.456370   -5.323676    0.107536
    122          8           0       21.443254   -5.138405   -0.940950
    123          6           0       21.001055   -6.118669   -1.939844
    124          1           0       18.934508    2.261019   -1.335534
    125          1           0       25.155712    4.305203   -0.525773
    126          1           0       27.123103   -1.427366    1.063727
    127          1           0       18.917301   -2.328809   -0.943710
    128          1           0       17.882482    0.394585   -0.528330
    129          1           0       18.699493   -0.105142   -3.200329
    130          1           0       17.066697    0.040868   -2.586419
    131          1           0       17.750985   -1.514060   -2.669973
    132          1           0       17.924947   -2.854108    1.076304
    133          1           0       17.125403   -1.272466    1.162796
    134          1           0       19.113226   -0.361487    2.224942
    135          1           0       19.449404   -2.007670    2.706911
    136          1           0       19.844783    5.515429   -2.563260
    137          1           0       19.321372    5.380878   -0.856917
    138          1           0       19.042579    4.110101   -1.969445
    139          1           0       24.864873    6.380994   -1.372348
    140          1           0       24.442046    6.298962    0.237565
    141          1           0       24.067664    7.760352   -0.568992
    142          1           0       27.236686    3.380021    0.997633
    143          1           0       28.075947    0.818400   -0.230213
    144          1           0       27.874957    4.308181   -0.896475
    145          1           0       26.998762    3.248745   -1.832451
    146          1           0       28.579631    2.697712   -1.147400
    147          1           0       27.942415    0.382822    2.525691
    148          1           0       28.278159    2.164364    2.503022
    149          1           0       30.398868    1.678070    2.445968
    150          1           0       30.160939    1.226154    0.803224
    151          1           0       30.005427   -0.032517    2.222033
    152          1           0       26.776320   -3.848022    1.256971
    153          1           0       25.609060   -5.159403    1.553828
    154          1           0       25.880881   -4.036748    2.887091
    155          1           0       20.375452   -3.889487    1.814113
    156          1           0       21.885020   -6.575259   -2.385482
    157          1           0       20.439361   -5.758183   -2.801463
    158          1           0       20.317167   -6.871001   -1.545816
 ---------------------------------------------------------------------

 SCF Done:  E(RCAM-B3LYP) =  -4069.77666792     A.U. after   19 cycles

 Excitation energies and oscillator strengths:

 Excited State   1:      Singlet-A      1.7059 eV  726.78 nm  f=0.4184  <S**2>=0.000
     309 -> 315        0.16082
     311 -> 313        0.68867
     309 <- 315        0.10270
 This state for optimization and/or second-order correction.
 Total Energy, E(TD-HF/TD-DFT) =  -4069.71397611
 Copying the excited state density for this state as the 1-particle RhoCI density.

 Excited State   2:      Singlet-A      1.7293 eV  716.98 nm  f=0.4109  <S**2>=0.000
     310 -> 316        0.18714
     312 -> 314        0.68365
     310 <- 316        0.10973

 Excited State   3:      Singlet-A      2.2139 eV  560.03 nm  f=0.1005  <S**2>=0.000
     310 -> 314        0.64252
     312 -> 316       -0.28227

 Excited State   4:      Singlet-A      2.2508 eV  550.84 nm  f=0.1197  <S**2>=0.000
     309 -> 313        0.64223
     311 -> 315       -0.27237

 Excited State   5:      Singlet-A      2.9339 eV  422.59 nm  f=0.0000  <S**2>=0.000
     312 -> 313        0.70711

 The electronic state is 1-A.
 Alpha  occ. eigenvalues --  -46.90328 -46.88781 -19.26248 -19.24910 -19.20126
 Alpha  occ. eigenvalues --  -19.19633 -19.19403 -19.18982 -19.18613 -19.17435
 Alpha  occ. eigenvalues --  -14.43213 -14.41939 -14.41772 -14.41586 -14.40554
 Alpha  occ. eigenvalues --  -14.39836 -14.39304 -14.38728 -10.39734 -10.39142
 Alpha  occ. eigenvalues --  -10.35454 -10.34730 -10.34485 -10.34273 -10.33016
 Alpha  occ. eigenvalues --  -10.32045 -10.31786 -10.31520 -10.31283 -10.31254
 Alpha  occ. eigenvalues --  -10.31061 -10.30779 -10.30767 -10.30754 -10.30661
 Alpha  occ. eigenvalues --  -10.30629 -10.30392 -10.29727 -10.29649 -10.29550
 Alpha  occ. eigenvalues --  -10.29473 -10.29372 -10.29316 -10.29279 -10.29247
 Alpha  occ. eigenvalues --  -10.29040 -10.28966 -10.28819 -10.28484 -10.28433
 Alpha  occ. eigenvalues --  -10.28364 -10.28308 -10.28270 -10.28196 -10.28041
 Alpha  occ. eigenvalues --  -10.27737 -10.27576 -10.27551 -10.27190 -10.27137
 Alpha  occ. eigenvalues --  -10.27112 -10.27107 -10.27082 -10.27054 -10.27001
 Alpha  occ. eigenvalues --  -10.26920 -10.26847 -10.26721 -10.26683 -10.26677
 Alpha  occ. eigenvalues --  -10.26594 -10.26478 -10.26417 -10.26330 -10.26295
 Alpha  occ. eigenvalues --  -10.26171 -10.26022 -10.25935 -10.25894 -10.25784
 Alpha  occ. eigenvalues --  -10.25664 -10.25626 -10.25375 -10.25199 -10.25066
 Alpha  occ. eigenvalues --  -10.24924  -3.18735  -3.17237  -1.93613  -1.93224
 Alpha  occ. eigenvalues --   -1.93002  -1.92145  -1.91728  -1.91498  -1.18324
 Alpha  occ. eigenvalues --   -1.16154  -1.11355  -1.09602  -1.09068  -1.08661
 Alpha  occ. eigenvalues --   -1.07630  -1.07366  -1.05049  -1.05007  -1.04525
 Alpha  occ. eigenvalues --   -1.03766  -1.03656  -1.02591  -1.02264  -1.01852
 Alpha  occ. eigenvalues --   -0.93343  -0.93014  -0.89685  -0.89445  -0.89003
 Alpha  occ. eigenvalues --   -0.88710  -0.88607  -0.88338  -0.88013  -0.87815
 Alpha  occ. eigenvalues --   -0.87087  -0.86226  -0.85524  -0.85310  -0.84662
 Alpha  occ. eigenvalues --   -0.84433  -0.84209  -0.83719  -0.82966  -0.82608
 Alpha  occ. eigenvalues --   -0.82526  -0.81476  -0.81402  -0.80775  -0.80284
 Alpha  occ. eigenvalues --   -0.80014  -0.78496  -0.77899  -0.77410  -0.77331
 Alpha  occ. eigenvalues --   -0.76997  -0.76981  -0.76371  -0.76299  -0.75296
 Alpha  occ. eigenvalues --   -0.75106  -0.73415  -0.72667  -0.71969  -0.71699
 Alpha  occ. eigenvalues --   -0.69580  -0.69518  -0.68938  -0.68884  -0.68423
 Alpha  occ. eigenvalues --   -0.68034  -0.66854  -0.66091  -0.66051  -0.65670
 Alpha  occ. eigenvalues --   -0.65258  -0.64957  -0.64885  -0.64639  -0.64559
 Alpha  occ. eigenvalues --   -0.64330  -0.63351  -0.62798  -0.60916  -0.59972
 Alpha  occ. eigenvalues --   -0.59842  -0.59647  -0.59196  -0.58961  -0.58538
 Alpha  occ. eigenvalues --   -0.58452  -0.58091  -0.58039  -0.57299  -0.57268
 Alpha  occ. eigenvalues --   -0.56856  -0.56345  -0.55995  -0.55631  -0.55617
 Alpha  occ. eigenvalues --   -0.54950  -0.54828  -0.54782  -0.54666  -0.54560
 Alpha  occ. eigenvalues --   -0.53881  -0.53583  -0.53521  -0.53267  -0.53247
 Alpha  occ. eigenvalues --   -0.52929  -0.52892  -0.52611  -0.52511  -0.52243
 Alpha  occ. eigenvalues --   -0.52015  -0.51689  -0.51503  -0.51332  -0.51264
 Alpha  occ. eigenvalues --   -0.51227  -0.51034  -0.50951  -0.50700  -0.50279
 Alpha  occ. eigenvalues --   -0.50121  -0.49915  -0.49671  -0.49579  -0.49393
 Alpha  occ. eigenvalues --   -0.49239  -0.49189  -0.49009  -0.48835  -0.48834
 Alpha  occ. eigenvalues --   -0.48659  -0.48567  -0.48359  -0.48307  -0.48105
 Alpha  occ. eigenvalues --   -0.47953  -0.47669  -0.47421  -0.47292  -0.47197
 Alpha  occ. eigenvalues --   -0.46884  -0.46850  -0.46766  -0.46395  -0.46199
 Alpha  occ. eigenvalues --   -0.46006  -0.45897  -0.45891  -0.45855  -0.45736
 Alpha  occ. eigenvalues --   -0.45645  -0.45580  -0.45344  -0.45262  -0.45023
 Alpha  occ. eigenvalues --   -0.44993  -0.44879  -0.44812  -0.44611  -0.44466
 Alpha  occ. eigenvalues --   -0.44441  -0.43834  -0.43742  -0.43602  -0.43320
 Alpha  occ. eigenvalues --   -0.43245  -0.43052  -0.42934  -0.42704  -0.42702
 Alpha  occ. eigenvalues --   -0.42679  -0.42264  -0.42154  -0.42084  -0.42016
 Alpha  occ. eigenvalues --   -0.41743  -0.41639  -0.41498  -0.41192  -0.40990
 Alpha  occ. eigenvalues --   -0.40963  -0.40863  -0.40726  -0.40712  -0.40266
 Alpha  occ. eigenvalues --   -0.39997  -0.39846  -0.39607  -0.39281  -0.39080
 Alpha  occ. eigenvalues --   -0.38729  -0.38381  -0.38047  -0.37855  -0.37144
 Alpha  occ. eigenvalues --   -0.37094  -0.36870  -0.36706  -0.36534  -0.36405
 Alpha  occ. eigenvalues --   -0.36382  -0.36204  -0.34821  -0.34386  -0.34307
 Alpha  occ. eigenvalues --   -0.34050  -0.34048  -0.33139  -0.31617  -0.31394
 Alpha  occ. eigenvalues --   -0.31088  -0.30928  -0.30766  -0.30367  -0.30183
 Alpha  occ. eigenvalues --   -0.29909  -0.29029  -0.28938  -0.24947  -0.23777
 Alpha  occ. eigenvalues --   -0.21674  -0.21058
 Alpha virt. eigenvalues --   -0.09533  -0.08471  -0.01904  -0.01504  -0.00035
 Alpha virt. eigenvalues --    0.00209   0.00617   0.02205   0.02833   0.02890
 Alpha virt. eigenvalues --    0.05003   0.05080   0.05253   0.05430   0.05620

 Mulliken charges:
               1
     1  Mg   0.807157
     2  C    0.010144
     3  C   -0.042626
     4  C   -0.040202
     5  C   -0.078407
     6  N   -0.217010
     7  C   -0.014058
     8  C   -0.051644
     9  C   -0.035683
    10  C   -0.041049
    11  C    0.091901
    12  C    0.029478
    13  C   -0.055151
    14  H    0.020734
    15  N   -0.403176
    16  C    0.176103
    17  C   -0.142585
    18  C   -0.065079
    19  C    0.100919
    20  C    0.112270
    21  C    0.006147
    22  O   -0.163598
    23  C    0.038885
    24  N   -0.314205
    25  C    0.051142
    26  C   -0.056853
    27  C   -0.004286
    28  C    0.059401
    29  C    0.060126
    30  C    0.013067
    31  C    0.020700
    32  N   -0.344783
    33  C    0.108666
    34  C   -0.166512
    35  C    0.012392
    36  C    0.108741
    37  C    0.113981
    38  C    0.067813
    39  O   -0.178340
    40  C   -0.028055
    41  C    0.157574
    42  O   -0.218699
    43  O   -0.295412
    44  C    0.187439
    45  H   -0.031089
    46  H   -0.001832
    47  H   -0.034050
    48  H    0.016163
    49  H   -0.005351
    50  H    0.024669
    51  H    0.019641
    52  H    0.007994
    53  H    0.014563
    54  H    0.002806
    55  H    0.029670
    56  H    0.038923
    57  H    0.016329
    58  H    0.018556
    59  H    0.011106
    60  H    0.037276
    61  H    0.030759
    62  H    0.013031
    63  H    0.024806
    64  H    0.004429
    65  H   -0.001465
    66  H    0.023659
    67  H    0.037609
    68  H   -0.001793
    69  H    0.004088
    70  H    0.009616
    71  H    0.020952
    72  H    0.019953
    73  H    0.016249
    74  H    0.039040
    75  H    0.036316
    76  H    0.044854
    77  H    0.067431
    78  H    0.009502
    79  H    0.038225
    80  Mg   0.825758
    81  C    0.014980
    82  C   -0.064104
    83  C   -0.034135
    84  C   -0.085220
    85  N   -0.280173
    86  C   -0.033766
    87  C   -0.003292
    88  C   -0.057044
    89  C    0.024094
    90  C    0.073108
    91  C    0.009615
    92  C   -0.045408
    93  H    0.044652
    94  N   -0.376605
    95  C    0.139167
    96  C   -0.133929
    97  C   -0.051324
    98  C    0.178989
    99  C    0.140059
   100  C    0.018694
   101  O   -0.238770
   102  C    0.063179
   103  N   -0.229432
   104  C   -0.016341
   105  C   -0.028423
   106  C    0.002424
   107  C    0.020973
   108  C    0.047836
   109  C    0.001341
   110  C   -0.010173
   111  N   -0.376973
   112  C    0.118803
   113  C   -0.164090
   114  C    0.035766
   115  C    0.123892
   116  C    0.127108
   117  C    0.044598
   118  O   -0.184330
   119  C   -0.043169
   120  C    0.174921
   121  O   -0.212584
   122  O   -0.339389
   123  C    0.178558
   124  H   -0.011505
   125  H   -0.063606
   126  H   -0.026500
   127  H    0.025713
   128  H    0.012403
   129  H    0.017773
   130  H    0.012579
   131  H    0.020252
   132  H    0.032828
   133  H    0.016834
   134  H    0.030182
   135  H    0.016158
   136  H    0.036974
   137  H    0.022645
   138  H   -0.021587
   139  H    0.042186
   140  H    0.019902
   141  H    0.027709
   142  H    0.019230
   143  H    0.008129
   144  H    0.006273
   145  H    0.010273
   146  H    0.018321
   147  H    0.012636
   148  H    0.017230
   149  H    0.010723
   150  H    0.016206
   151  H    0.026519
   152  H    0.022300
   153  H    0.042579
   154  H    0.050606
   155  H    0.029789
   156  H    0.033939
   157  H    0.019727
   158  H    0.044742
 Sum of Mulliken charges =  -0.00000

 Dipole moment (field-independent basis, Debye):
    X=              3.2035    Y=              0.3358    Z=             -4.9094  Tot=              5.8718
 Quadrupole moment (field-independent basis, Debye-Ang):
   XX=           -226.8910   YY=           -582.2096   ZZ=           -473.9132
   XY=             17.6566   XZ=             -4.9387   YZ=             21.7726

 Normal termination of Gaussian 16 at Thu Sep 16 13:39:26 2021.
