 Gaussian 16, Revision A.03,
 Gaussian 16:  ES64L-G16RevA.03 25-Dec-2016

 -----------------------------------
 #p cam-b3lyp/Def2SVP td=(nstates=5)
 -----------------------------------

 --------------------------------
 TDDFT excited states in gaussian
 --------------------------------
 Symbolic Z-matrix:
 Charge =  0 Multiplicity = 1

                         Standard orientation:
 ---------------------------------------------------------------------
 Center     Atomic      Atomic             Coordinates (Angstroms)
 Number     Number       Type             X           Y           Z
 ---------------------------------------------------------------------
      1         12           0        9.831822   -0.027232    0.742797
      2          6           0        9.070057    1.687320   -2.180056
      3          6           0        6.618346    0.806745    1.982400
      4          6           0       10.036704   -2.514657    2.964258
      5          6           0       12.668927   -1.318159   -0.904325
      6          7           0        7.865338    0.861331   -0.203508
      7          6           0        7.961040    1.690527   -1.295116
      8          6           0        6.689917    2.446716   -1.523150
      9          6           0        6.011657    2.373925   -0.078488
     10          6           0        6.840105    1.255603    0.647328
     11          6           0        5.985238    3.750725    0.758411
     12          6           0        5.881558    1.835638   -2.780361
     13          6           0        5.005724    2.769647   -3.448759
     14          1           0        3.543325    2.285723   -3.545266
     15          7           0        8.626237   -0.650282    2.365841
     16          6           0        7.332215   -0.172896    2.716027
     17          6           0        6.922209   -0.868033    3.924485
     18          6           0        7.904558   -1.832263    4.257104
     19          6           0        8.972955   -1.639046    3.219844
     20          6           0        5.586869   -0.661178    4.536194
     21          6           0        7.771864   -2.868850    5.450091
     22          8           0        6.750230   -2.803812    6.132016
     23          6           0        8.958792   -3.687806    5.945660
     24          7           0       11.113544   -1.702421    0.889614
     25          6           0       11.033269   -2.492652    1.990046
     26          6           0       12.112391   -3.744021    1.958412
     27          6           0       13.101887   -3.217287    0.811659
     28          6           0       12.318877   -2.005403    0.214663
     29          6           0       12.901404   -4.004833    3.297091
     30          6           0       13.400966   -4.271914   -0.255459
     31          6           0       14.853714   -4.722870   -0.540058
     32          7           0       10.844770    0.355132   -1.015490
     33          6           0       11.980491   -0.211260   -1.517217
     34          6           0       12.356144    0.476455   -2.721699
     35          6           0       11.153260    1.214563   -3.034983
     36          6           0       10.264928    1.048442   -1.958784
     37          6           0       13.565127    0.200627   -3.568180
     38          6           0       10.517738    2.002997   -4.070023
     39          8           0       10.980370    2.490061   -5.056497
     40          6           0        9.090440    2.432783   -3.551003
     41          6           0        8.917987    3.949820   -3.317138
     42          8           0        9.684959    4.640506   -2.681315
     43          8           0        7.797650    4.414438   -4.036535
     44          6           0        7.595052    5.831406   -4.070031
     45          1           0        5.647405    1.156370    2.337261
     46          1           0       10.033379   -3.466504    3.499131
     47          1           0       13.566410   -1.732590   -1.367173
     48          1           0        6.853946    3.522217   -1.597749
     49          1           0        4.985420    2.027687   -0.206391
     50          1           0        4.929333    3.954712    0.935588
     51          1           0        6.464762    4.575963    0.232878
     52          1           0        6.486498    3.540991    1.703762
     53          1           0        5.278085    1.047980   -2.329544
     54          1           0        6.695786    1.387847   -3.350752
     55          1           0        5.418672    2.906374   -4.447480
     56          1           0        4.969000    3.708649   -2.896534
     57          1           0        5.092508    0.222705    4.133525
     58          1           0        5.694664   -0.443611    5.599101
     59          1           0        4.929778   -1.510962    4.349775
     60          1           0        9.318122   -4.422129    5.224034
     61          1           0        8.653420   -4.176593    6.871411
     62          1           0        9.751173   -2.984415    6.201791
     63          1           0       11.513402   -4.577295    1.592055
     64          1           0       14.018073   -2.750566    1.174081
     65          1           0       12.603771   -4.964915    3.717699
     66          1           0       12.667597   -3.217959    4.015215
     67          1           0       13.960692   -4.006991    3.037940
     68          1           0       12.927052   -4.027320   -1.205809
     69          1           0       12.874678   -5.216893   -0.121749
     70          1           0       15.294424   -4.430160   -1.493439
     71          1           0       14.806460   -5.811716   -0.569436
     72          1           0       15.535684   -4.373064    0.235893
     73          1           0       13.712300    1.073185   -4.205123
     74          1           0       13.405426   -0.498614   -4.388343
     75          1           0       14.449485   -0.121288   -3.018919
     76          1           0        8.436000    2.133443   -4.370143
     77          1           0        6.513714    5.866464   -4.206533
     78          1           0        7.991024    6.279621   -4.981132
     79          1           0        8.015859    6.306045   -3.184515
     80         12           0       -9.795513   -0.756194   -0.260413
     81          6           0       -8.253185    1.957399    1.451228
     82          6           0       -6.664702   -1.856433   -1.160460
     83          6           0      -11.403711   -3.168124   -1.846343
     84          6           0      -12.994491    0.776547    0.319733
     85          7           0       -7.624111    0.020059    0.051516
     86          6           0       -7.313261    1.085813    0.876048
     87          6           0       -5.748419    1.146000    0.936989
     88          6           0       -5.211932   -0.090725    0.037165
     89          6           0       -6.567915   -0.661154   -0.390864
     90          6           0       -4.226487    0.269289   -1.094104
     91          6           0       -5.087090    1.270252    2.371561
     92          6           0       -4.216218    2.474239    2.584278
     93          1           0       -3.469636    3.170988    1.477501
     94          7           0       -9.089537   -2.442934   -1.294334
     95          6           0       -7.778650   -2.691921   -1.553902
     96          6           0       -7.736356   -4.007153   -2.139503
     97          6           0       -9.070683   -4.357291   -2.438831
     98          6           0       -9.978278   -3.301010   -1.883960
     99          6           0       -6.383396   -4.656801   -2.475538
    100          6           0       -9.536946   -5.503323   -3.284637
    101          8           0      -10.746200   -5.649976   -3.582034
    102          6           0       -8.540082   -6.456172   -3.832159
    103          7           0      -11.945563   -1.060665   -0.732367
    104          6           0      -12.313557   -2.149846   -1.311936
    105          6           0      -13.907875   -2.397701   -1.466498
    106          6           0      -14.394809   -1.110903   -0.782978
    107          6           0      -13.108457   -0.433394   -0.378428
    108          6           0      -14.275028   -2.532105   -2.989742
    109          6           0      -15.372182   -1.280377    0.432876
    110          6           0      -14.755981   -1.817609    1.746422
    111          7           0      -10.453200    1.003193    0.547674
    112          6           0      -11.780958    1.474363    0.676797
    113          6           0      -11.741664    2.718874    1.456781
    114          6           0      -10.382493    2.937736    1.786348
    115          6           0       -9.634913    1.838057    1.244551
    116          6           0      -12.980979    3.573166    1.859137
    117          6           0       -9.570027    3.801933    2.464285
    118          8           0       -9.788973    4.849607    3.037548
    119          6           0       -8.133982    3.216591    2.360225
    120          6           0       -7.259572    4.240718    1.837066
    121          8           0       -7.057165    4.449732    0.635601
    122          8           0       -6.869135    5.100464    2.870625
    123          6           0       -6.122930    6.300537    2.417756
    124          1           0       -5.773519   -2.162867   -1.712828
    125          1           0      -11.906034   -3.876758   -2.508256
    126          1           0      -13.939915    1.282112    0.526944
    127          1           0       -5.619081    2.140337    0.511554
    128          1           0       -4.627794   -0.756731    0.670682
    129          1           0       -3.302266   -0.301635   -0.996121
    130          1           0       -3.971645    1.322933   -1.206814
    131          1           0       -4.752134   -0.030599   -2.000674
    132          1           0       -4.510080    0.372734    2.595185
    133          1           0       -5.923133    1.375240    3.063060
    134          1           0       -3.323381    2.117672    3.099125
    135          1           0       -4.792202    3.204902    3.151043
    136          1           0       -5.555958   -4.176267   -1.952985
    137          1           0       -6.209815   -4.607555   -3.549735
    138          1           0       -6.490709   -5.689643   -2.145703
    139          1           0       -8.004703   -6.876306   -2.980693
    140          1           0       -7.801805   -5.946929   -4.452798
    141          1           0       -9.024268   -7.194765   -4.469753
    142          1           0      -14.228450   -3.278760   -0.910012
    143          1           0      -14.778826   -0.422417   -1.536067
    144          1           0      -13.557326   -1.939645   -3.557121
    145          1           0      -15.258997   -2.086853   -3.141073
    146          1           0      -14.296520   -3.531507   -3.425057
    147          1           0      -16.267772   -1.813081    0.114682
    148          1           0      -15.800588   -0.300892    0.643110
    149          1           0      -13.925392   -2.515993    1.649652
    150          1           0      -15.564456   -2.216494    2.360133
    151          1           0      -14.417369   -0.929229    2.279323
    152          1           0      -13.001906    3.825299    2.919419
    153          1           0      -13.929155    3.116938    1.576918
    154          1           0      -12.841796    4.590752    1.493238
    155          1           0       -7.908869    3.008409    3.405694
    156          1           0       -6.780126    6.976920    1.871817
    157          1           0       -5.303670    6.090202    1.731201
    158          1           0       -5.601187    6.684474    3.294553
 ---------------------------------------------------------------------

 SCF Done:  E(RCAM-B3LYP) =  -4069.78044631     A.U. after   19 cycles

 Excitation energies and oscillator strengths:

 Excited State   1:      Singlet-A      1.6838 eV  736.33 nm  f=0.3883  <S**2>=0.000
     309 -> 316       -0.17413
     311 -> 313        0.68816
     309 <- 316       -0.10839
 This state for optimization and/or second-order correction.
 Total Energy, E(TD-HF/TD-DFT) =  -4069.71856756
 Copying the excited state density for this state as the 1-particle RhoCI density.

 Excited State   2:      Singlet-A      1.7541 eV  706.84 nm  f=0.3706  <S**2>=0.000
     310 -> 315        0.18838
     312 -> 314        0.68193
     310 <- 315        0.10755

 Excited State   3:      Singlet-A      2.2094 eV  561.16 nm  f=0.1159  <S**2>=0.000
     310 -> 314        0.64152
     312 -> 315       -0.28059

 Excited State   4:      Singlet-A      2.2454 eV  552.16 nm  f=0.1060  <S**2>=0.000
     309 -> 313        0.63634
     311 -> 316        0.29169

 Excited State   5:      Singlet-A      2.8760 eV  431.10 nm  f=0.0000  <S**2>=0.000
     312 -> 313        0.70696

 The electronic state is 1-A.
 Alpha  occ. eigenvalues --  -46.89911 -46.89823 -19.25214 -19.24300 -19.20829
 Alpha  occ. eigenvalues --  -19.19816 -19.19321 -19.18771 -19.18360 -19.17536
 Alpha  occ. eigenvalues --  -14.42680 -14.42426 -14.42121 -14.41891 -14.40310
 Alpha  occ. eigenvalues --  -14.39769 -14.39684 -14.39189 -10.40170 -10.38638
 Alpha  occ. eigenvalues --  -10.36498 -10.35065 -10.34121 -10.33312 -10.31921
 Alpha  occ. eigenvalues --  -10.31908 -10.31729 -10.31726 -10.31525 -10.31422
 Alpha  occ. eigenvalues --  -10.31296 -10.31112 -10.31079 -10.30904 -10.30830
 Alpha  occ. eigenvalues --  -10.30675 -10.30585 -10.30205 -10.29858 -10.29766
 Alpha  occ. eigenvalues --  -10.29383 -10.29362 -10.28826 -10.28783 -10.28750
 Alpha  occ. eigenvalues --  -10.28624 -10.28609 -10.28598 -10.28399 -10.28332
 Alpha  occ. eigenvalues --  -10.28286 -10.28251 -10.28228 -10.28105 -10.28064
 Alpha  occ. eigenvalues --  -10.28039 -10.27992 -10.27990 -10.27945 -10.27926
 Alpha  occ. eigenvalues --  -10.27761 -10.27735 -10.27706 -10.27431 -10.27342
 Alpha  occ. eigenvalues --  -10.27226 -10.27151 -10.27139 -10.27031 -10.26961
 Alpha  occ. eigenvalues --  -10.26800 -10.26632 -10.26549 -10.26529 -10.26505
 Alpha  occ. eigenvalues --  -10.26419 -10.26349 -10.26329 -10.26033 -10.25977
 Alpha  occ. eigenvalues --  -10.25949 -10.25869 -10.25791 -10.25601 -10.24741
 Alpha  occ. eigenvalues --  -10.23904  -3.18328  -3.18159  -1.93178  -1.93073
 Alpha  occ. eigenvalues --   -1.92838  -1.92649  -1.92596  -1.92415  -1.16164
 Alpha  occ. eigenvalues --   -1.14384  -1.10896  -1.10411  -1.09259  -1.08820
 Alpha  occ. eigenvalues --   -1.08462  -1.06340  -1.06114  -1.05023  -1.03705
 Alpha  occ. eigenvalues --   -1.03040  -1.03027  -1.02496  -1.01709  -1.01706
 Alpha  occ. eigenvalues --   -0.92352  -0.92293  -0.89749  -0.89321  -0.88488
 Alpha  occ. eigenvalues --   -0.88297  -0.88287  -0.87854  -0.87258  -0.86985
 Alpha  occ. eigenvalues --   -0.86798  -0.86542  -0.85926  -0.85482  -0.84338
 Alpha  occ. eigenvalues --   -0.84203  -0.83468  -0.83378  -0.82810  -0.82557
 Alpha  occ. eigenvalues --   -0.82338  -0.82223  -0.81252  -0.80685  -0.80363
 Alpha  occ. eigenvalues --   -0.80057  -0.78323  -0.77937  -0.77581  -0.77445
 Alpha  occ. eigenvalues --   -0.76879  -0.76464  -0.76219  -0.75756  -0.75046
 Alpha  occ. eigenvalues --   -0.74990  -0.72773  -0.72529  -0.71567  -0.71454
 Alpha  occ. eigenvalues --   -0.70466  -0.69340  -0.69047  -0.68546  -0.67858
 Alpha  occ. eigenvalues --   -0.67569  -0.66927  -0.66622  -0.66024  -0.65318
 Alpha  occ. eigenvalues --   -0.64927  -0.64918  -0.64662  -0.64621  -0.64246
 Alpha  occ. eigenvalues --   -0.64202  -0.62910  -0.61438  -0.60229  -0.59764
 Alpha  occ. eigenvalues --   -0.59585  -0.59512  -0.59108  -0.58670  -0.58613
 Alpha  occ. eigenvalues --   -0.58145  -0.58116  -0.57954  -0.57574  -0.57532
 Alpha  occ. eigenvalues --   -0.56444  -0.56284  -0.56029  -0.55432  -0.55282
 Alpha  occ. eigenvalues --   -0.55074  -0.54960  -0.54921  -0.54107  -0.53624
 Alpha  occ. eigenvalues --   -0.53357  -0.53238  -0.53035  -0.52855  -0.52828
 Alpha  occ. eigenvalues --   -0.52711  -0.52641  -0.52560  -0.52208  -0.52032
 Alpha  occ. eigenvalues --   -0.51847  -0.51745  -0.51560  -0.51300  -0.51142
 Alpha  occ. eigenvalues --   -0.50897  -0.50816  -0.50453  -0.50313  -0.50198
 Alpha  occ. eigenvalues --   -0.49858  -0.49821  -0.49728  -0.49511  -0.49322
 Alpha  occ. eigenvalues --   -0.49250  -0.49247  -0.49221  -0.48955  -0.48876
 Alpha  occ. eigenvalues --   -0.48868  -0.48584  -0.48555  -0.48115  -0.47994
 Alpha  occ. eigenvalues --   -0.47985  -0.47935  -0.47525  -0.47410  -0.47332
 Alpha  occ. eigenvalues --   -0.47143  -0.47063  -0.46744  -0.46627  -0.46534
 Alpha  occ. eigenvalues --   -0.46520  -0.46284  -0.46165  -0.46037  -0.45823
 Alpha  occ. eigenvalues --   -0.45787  -0.45493  -0.45350  -0.45063  -0.44944
 Alpha  occ. eigenvalues --   -0.44873  -0.44611  -0.44609  -0.44233  -0.44197
 Alpha  occ. eigenvalues --   -0.44067  -0.43787  -0.43750  -0.43637  -0.43486
 Alpha  occ. eigenvalues --   -0.43452  -0.43222  -0.43213  -0.42808  -0.42798
 Alpha  occ. eigenvalues --   -0.42736  -0.42589  -0.42483  -0.42376  -0.42306
 Alpha  occ. eigenvalues --   -0.41886  -0.41851  -0.41582  -0.41532  -0.41376
 Alpha  occ. eigenvalues --   -0.41269  -0.41186  -0.41152  -0.41088  -0.40602
 Alpha  occ. eigenvalues --   -0.40578  -0.40120  -0.39908  -0.39804  -0.39127
 Alpha  occ. eigenvalues --   -0.38760  -0.38299  -0.37842  -0.37178  -0.36946
 Alpha  occ. eigenvalues --   -0.36786  -0.36636  -0.36373  -0.36337  -0.36131
 Alpha  occ. eigenvalues --   -0.35722  -0.35533  -0.34879  -0.34370  -0.33948
 Alpha  occ. eigenvalues --   -0.33694  -0.33392  -0.33051  -0.31704  -0.31366
 Alpha  occ. eigenvalues --   -0.31318  -0.31204  -0.30333  -0.30333  -0.30072
 Alpha  occ. eigenvalues --   -0.29972  -0.29563  -0.29280  -0.24428  -0.23795
 Alpha  occ. eigenvalues --   -0.21281  -0.21250
 Alpha virt. eigenvalues --   -0.08897  -0.08544  -0.01790  -0.01761   0.00138
 Alpha virt. eigenvalues --    0.00279   0.01230   0.02054   0.02319   0.02583
 Alpha virt. eigenvalues --    0.04474   0.04552   0.04986   0.05531   0.05703

 Mulliken charges:
               1
     1  Mg   0.828098
     2  C   -0.072440
     3  C   -0.057837
     4  C   -0.081574
     5  C   -0.081368
     6  N   -0.265489
     7  C   -0.081217
     8  C   -0.050643
     9  C   -0.081746
    10  C    0.007432
    11  C    0.060891
    12  C    0.092594
    13  C   -0.035049
    14  H    0.002154
    15  N   -0.385441
    16  C    0.157954
    17  C   -0.142510
    18  C   -0.067456
    19  C    0.178829
    20  C    0.144064
    21  C    0.031692
    22  O   -0.206715
    23  C    0.035058
    24  N   -0.335757
    25  C    0.049392
    26  C   -0.075273
    27  C    0.031404
    28  C    0.005959
    29  C    0.071057
    30  C    0.013912
    31  C   -0.000445
    32  N   -0.323401
    33  C    0.132949
    34  C   -0.155074
    35  C   -0.032882
    36  C    0.194973
    37  C    0.109600
    38  C    0.027462
    39  O   -0.143677
    40  C   -0.010218
    41  C    0.212618
    42  O   -0.191044
    43  O   -0.358288
    44  C    0.169223
    45  H   -0.014294
    46  H   -0.041890
    47  H   -0.032779
    48  H    0.008376
    49  H    0.009544
    50  H    0.021845
    51  H    0.031197
    52  H    0.021968
    53  H    0.011533
    54  H    0.014213
    55  H    0.040663
    56  H    0.028571
    57  H   -0.012453
    58  H    0.032943
    59  H    0.041370
    60  H    0.049795
    61  H    0.031332
    62  H    0.045867
    63  H    0.029794
    64  H    0.018336
    65  H    0.017693
    66  H    0.025722
    67  H    0.024128
    68  H    0.007551
    69  H   -0.005543
    70  H    0.018859
    71  H    0.012276
    72  H    0.012042
    73  H    0.026396
    74  H    0.020901
    75  H    0.022747
    76  H    0.044398
    77  H    0.028474
    78  H    0.036079
    79  H    0.050575
    80  Mg   0.811880
    81  C    0.029198
    82  C   -0.077312
    83  C   -0.042054
    84  C   -0.080981
    85  N   -0.244499
    86  C   -0.056706
    87  C   -0.021480
    88  C   -0.054985
    89  C    0.051361
    90  C    0.065135
    91  C    0.043142
    92  C   -0.086649
    93  H    0.016120
    94  N   -0.401999
    95  C    0.117267
    96  C   -0.164199
    97  C   -0.023714
    98  C    0.133609
    99  C    0.120906
   100  C   -0.011696
   101  O   -0.230963
   102  C    0.068095
   103  N   -0.203180
   104  C   -0.004691
   105  C   -0.058837
   106  C    0.082967
   107  C   -0.064797
   108  C    0.045394
   109  C    0.013606
   110  C    0.021062
   111  N   -0.385609
   112  C    0.134151
   113  C   -0.166518
   114  C    0.054403
   115  C    0.106900
   116  C    0.127413
   117  C   -0.040162
   118  O   -0.163534
   119  C    0.002649
   120  C    0.206192
   121  O   -0.235968
   122  O   -0.349643
   123  C    0.191168
   124  H   -0.014087
   125  H    0.003666
   126  H   -0.032072
   127  H    0.035219
   128  H    0.018529
   129  H    0.012541
   130  H    0.029006
   131  H    0.013776
   132  H    0.007655
   133  H    0.012270
   134  H    0.024645
   135  H    0.041608
   136  H    0.024849
   137  H    0.041347
   138  H    0.023761
   139  H    0.030426
   140  H    0.029368
   141  H    0.031616
   142  H    0.025095
   143  H    0.007640
   144  H    0.023944
   145  H    0.014097
   146  H    0.042059
   147  H    0.005599
   148  H    0.000360
   149  H    0.029225
   150  H    0.017409
   151  H    0.017703
   152  H    0.021166
   153  H    0.010647
   154  H    0.028595
   155  H    0.044078
   156  H    0.045890
   157  H    0.024912
   158  H    0.035018
 Sum of Mulliken charges =  -0.00000

 Dipole moment (field-independent basis, Debye):
    X=              2.1989    Y=             -6.1624    Z=              1.7717  Tot=              6.7786
 Quadrupole moment (field-independent basis, Debye-Ang):
   XX=           -480.2331   YY=           -516.6557   ZZ=           -545.9182
   XY=            -19.9316   XZ=             40.6898   YZ=             -0.4024

 Normal termination of Gaussian 16 at Wed Sep 15 04:38:36 2021.
