 Gaussian 16, Revision A.03,
 Gaussian 16:  ES64L-G16RevA.03 25-Dec-2016

 -----------------------------------
 #p cam-b3lyp/Def2SVP td=(nstates=5)
 -----------------------------------

 --------------------------------
 TDDFT excited states in gaussian
 --------------------------------
 Symbolic Z-matrix:
 Charge =  0 Multiplicity = 1

                         Standard orientation:
 ---------------------------------------------------------------------
 Center     Atomic      Atomic             Coordinates (Angstroms)
 Number     Number       Type             X           Y           Z
 ---------------------------------------------------------------------
      1         12           0       26.140064   -0.268486   -0.659623
      2          6           0       24.748107    1.849545    1.867948
      3          6           0       27.159625   -2.343060    1.850298
      4          6           0       27.765152   -1.915482   -2.828289
      5          6           0       26.019409    2.469608   -2.812283
      6          7           0       25.920240   -0.153949    1.540196
      7          6           0       25.313289    0.679292    2.379535
      8          6           0       25.267923    0.154811    3.845904
      9          6           0       26.516000   -0.836130    3.797540
     10          6           0       26.512037   -1.159515    2.313852
     11          6           0       27.839965   -0.166122    4.150680
     12          6           0       23.939746   -0.611704    4.162340
     13          6           0       23.672621   -0.870258    5.647987
     14          1           0       22.300960   -0.823332    6.131402
     15          7           0       26.866234   -2.104592   -0.594493
     16          6           0       27.209912   -2.800641    0.515772
     17          6           0       27.696600   -4.113272    0.039520
     18          6           0       27.786098   -4.053737   -1.445923
     19          6           0       27.497375   -2.662501   -1.683578
     20          6           0       27.974987   -5.268077    0.952030
     21          6           0       28.094777   -5.084424   -2.485410
     22          8           0       28.348200   -4.771887   -3.698947
     23          6           0       28.180900   -6.480756   -2.020780
     24          7           0       27.006029    0.255662   -2.485276
     25          6           0       27.600589   -0.661896   -3.255710
     26          6           0       27.891142   -0.120573   -4.624098
     27          6           0       27.148168    1.290333   -4.708287
     28          6           0       26.596993    1.353440   -3.262433
     29          6           0       29.375298    0.062762   -4.970049
     30          6           0       26.160158    1.495743   -5.883898
     31          6           0       24.963763    0.586488   -5.713626
     32          7           0       25.343380    1.749120   -0.584752
     33          6           0       25.426120    2.726030   -1.587486
     34          6           0       24.839878    3.961576   -1.036293
     35          6           0       24.469477    3.619987    0.262924
     36          6           0       24.827034    2.264962    0.516604
     37          6           0       24.759403    5.215616   -1.703632
     38          6           0       23.877164    4.091685    1.504102
     39          8           0       23.305764    5.125263    1.854403
     40          6           0       24.144263    3.000851    2.633069
     41          6           0       22.844173    2.762724    3.351659
     42          8           0       21.880097    2.225823    2.768853
     43          8           0       23.014891    2.983037    4.664236
     44          6           0       21.769819    2.735820    5.439371
     45          1           0       27.730532   -2.944877    2.560102
     46          1           0       28.226035   -2.478714   -3.642412
     47          1           0       25.870851    3.339949   -3.454070
     48          1           0       25.428319    0.918663    4.606973
     49          1           0       26.341734   -1.738927    4.382613
     50          1           0       27.725821    0.913070    4.251858
     51          1           0       28.514324   -0.402074    3.327237
     52          1           0       28.279971   -0.621572    5.038226
     53          1           0       24.024277   -1.638849    3.807533
     54          1           0       23.083408   -0.095906    3.726493
     55          1           0       24.321634   -0.264440    6.280977
     56          1           0       23.957954   -1.898064    5.872489
     57          1           0       27.978417   -4.960927    1.997110
     58          1           0       28.999229   -5.586571    0.759158
     59          1           0       27.292592   -6.100637    0.780238
     60          1           0       28.955922   -6.559083   -1.258051
     61          1           0       28.320291   -7.087174   -2.915027
     62          1           0       27.243075   -6.749249   -1.533600
     63          1           0       27.496410   -0.778817   -5.396968
     64          1           0       27.851478    2.117858   -4.804359
     65          1           0       29.685994   -0.476128   -5.865465
     66          1           0       29.963248   -0.243775   -4.105387
     67          1           0       29.691844    1.098391   -5.091238
     68          1           0       26.633742    1.229253   -6.828170
     69          1           0       25.801643    2.521516   -5.970548
     70          1           0       25.312648   -0.356142   -6.133816
     71          1           0       24.110696    0.971463   -6.273342
     72          1           0       24.743125    0.411917   -4.660379
     73          1           0       23.761731    5.605211   -1.501554
     74          1           0       24.932718    5.106419   -2.773978
     75          1           0       25.559813    5.761653   -1.204589
     76          1           0       24.907187    3.412887    3.292838
     77          1           0       21.551398    3.647700    5.995251
     78          1           0       21.936750    1.822599    6.010831
     79          1           0       20.853944    2.624962    4.857803
     80         12           0      -26.495379    0.350030   -0.070323
     81          6           0      -23.843157   -1.658012    1.052071
     82          6           0      -24.526227    3.072794    0.431001
     83          6           0      -28.877241    2.040038   -1.542395
     84          6           0      -27.940876   -2.726078   -1.259653
     85          7           0      -24.476686    0.638093    0.713435
     86          6           0      -23.565646   -0.307434    1.091348
     87          6           0      -22.197497    0.375502    1.236649
     88          6           0      -22.597213    1.807874    1.573144
     89          6           0      -23.911439    1.860441    0.770657
     90          6           0      -22.839769    2.025873    3.084528
     91          6           0      -21.364757    0.283080   -0.095220
     92          6           0      -20.021995   -0.600198   -0.097156
     93          1           0      -19.922586   -1.806725   -1.046092
     94          7           0      -26.656596    2.279314   -0.550601
     95          6           0      -25.746276    3.263130   -0.239575
     96          6           0      -26.321962    4.526303   -0.580776
     97          6           0      -27.658286    4.321053   -1.059201
     98          6           0      -27.803838    2.836698   -1.083309
     99          6           0      -25.574457    5.891061   -0.394825
    100          6           0      -28.669113    5.468167   -1.423823
    101          8           0      -28.379305    6.606961   -1.220708
    102          6           0      -30.044112    5.101680   -1.740641
    103          7           0      -28.013436   -0.248684   -1.513286
    104          6           0      -29.028828    0.642132   -1.610310
    105          6           0      -30.375189   -0.010671   -1.875052
    106          6           0      -30.008763   -1.460922   -2.150958
    107          6           0      -28.536996   -1.504421   -1.611095
    108          6           0      -31.374027    0.130802   -0.667503
    109          6           0      -30.128733   -2.036791   -3.639963
    110          6           0      -31.209468   -3.007076   -4.035100
    111          7           0      -26.143751   -1.746698    0.056165
    112          6           0      -26.802530   -2.867774   -0.464851
    113          6           0      -26.084847   -4.090696   -0.176732
    114          6           0      -24.937830   -3.654905    0.439882
    115          6           0      -24.967622   -2.226139    0.556248
    116          6           0      -26.508936   -5.444550   -0.569343
    117          6           0      -23.687366   -4.103368    1.033109
    118          8           0      -23.279090   -5.253475    1.236338
    119          6           0      -22.990465   -2.859758    1.543577
    120          6           0      -22.860487   -3.002830    3.056085
    121          8           0      -23.854629   -3.150639    3.763203
    122          8           0      -21.516737   -3.073419    3.455212
    123          6           0      -21.320955   -3.243526    4.870149
    124          1           0      -23.929473    3.929705    0.749458
    125          1           0      -29.766957    2.646056   -1.720229
    126          1           0      -28.440743   -3.660051   -1.525533
    127          1           0      -21.633978   -0.206024    1.966718
    128          1           0      -21.815279    2.471168    1.205491
    129          1           0      -22.224413    2.914601    3.220100
    130          1           0      -22.435882    1.131497    3.559771
    131          1           0      -23.871315    2.181401    3.400708
    132          1           0      -21.038083    1.293454   -0.340942
    133          1           0      -22.048000   -0.011940   -0.891220
    134          1           0      -19.967640   -1.038572    0.899613
    135          1           0      -19.102427   -0.029194   -0.219736
    136          1           0      -25.549714    6.579941   -1.238613
    137          1           0      -24.547060    5.628546   -0.140459
    138          1           0      -25.964470    6.473748    0.439913
    139          1           0      -30.145338    4.422997   -2.587822
    140          1           0      -30.602130    6.014005   -1.951139
    141          1           0      -30.562295    4.775971   -0.839741
    142          1           0      -30.911066    0.454716   -2.702982
    143          1           0      -30.575869   -2.124360   -1.497990
    144          1           0      -32.091566    0.941350   -0.793831
    145          1           0      -30.813768    0.158329    0.267072
    146          1           0      -31.959540   -0.788956   -0.630312
    147          1           0      -29.215850   -2.358173   -4.140262
    148          1           0      -30.375658   -1.078345   -4.097368
    149          1           0      -31.927126   -2.593825   -4.743120
    150          1           0      -31.769813   -3.308907   -3.149890
    151          1           0      -30.669150   -3.851319   -4.462750
    152          1           0      -27.151246   -5.349543   -1.445272
    153          1           0      -27.122174   -5.807548    0.255932
    154          1           0      -25.655130   -6.108012   -0.699112
    155          1           0      -22.008467   -2.934819    1.078480
    156          1           0      -21.466258   -2.338564    5.460696
    157          1           0      -20.317550   -3.603902    5.095131
    158          1           0      -21.965754   -3.994323    5.326115
 ---------------------------------------------------------------------

 SCF Done:  E(RCAM-B3LYP) =  -4069.81839834     A.U. after   19 cycles

 Excitation energies and oscillator strengths:

 Excited State   1:      Singlet-A      1.6799 eV  738.06 nm  f=0.3848  <S**2>=0.000
     310 -> 316        0.17554
     311 -> 313        0.68569
     310 <- 316        0.10513
 This state for optimization and/or second-order correction.
 Total Energy, E(TD-HF/TD-DFT) =  -4069.75666431
 Copying the excited state density for this state as the 1-particle RhoCI density.

 Excited State   2:      Singlet-A      1.7237 eV  719.29 nm  f=0.3653  <S**2>=0.000
     309 -> 315        0.19170
     312 -> 314        0.68303
     309 <- 315        0.11115

 Excited State   3:      Singlet-A      2.1925 eV  565.48 nm  f=0.0986  <S**2>=0.000
     310 -> 313        0.64072
     311 -> 316       -0.27826

 Excited State   4:      Singlet-A      2.2830 eV  543.07 nm  f=0.0524  <S**2>=0.000
     309 -> 314        0.60484
     312 -> 315       -0.35601

 Excited State   5:      Singlet-A      3.1537 eV  393.14 nm  f=0.0000  <S**2>=0.000
     312 -> 313        0.70711

 The electronic state is 1-A.
 Alpha  occ. eigenvalues --  -46.88687 -46.87774 -19.26262 -19.26024 -19.20579
 Alpha  occ. eigenvalues --  -19.19092 -19.18997 -19.18792 -19.18761 -19.18147
 Alpha  occ. eigenvalues --  -14.42427 -14.42137 -14.42078 -14.41427 -14.39384
 Alpha  occ. eigenvalues --  -14.39380 -14.39349 -14.38564 -10.40249 -10.39057
 Alpha  occ. eigenvalues --  -10.35425 -10.35054 -10.34566 -10.34367 -10.31657
 Alpha  occ. eigenvalues --  -10.31506 -10.31383 -10.31135 -10.31128 -10.30886
 Alpha  occ. eigenvalues --  -10.30834 -10.30656 -10.30550 -10.30547 -10.30485
 Alpha  occ. eigenvalues --  -10.30184 -10.29898 -10.29793 -10.29608 -10.29539
 Alpha  occ. eigenvalues --  -10.29290 -10.29232 -10.28726 -10.28614 -10.28514
 Alpha  occ. eigenvalues --  -10.28410 -10.28342 -10.28163 -10.28094 -10.28078
 Alpha  occ. eigenvalues --  -10.27887 -10.27874 -10.27818 -10.27816 -10.27771
 Alpha  occ. eigenvalues --  -10.27704 -10.27562 -10.27543 -10.27479 -10.27458
 Alpha  occ. eigenvalues --  -10.27428 -10.27381 -10.27253 -10.27136 -10.26928
 Alpha  occ. eigenvalues --  -10.26899 -10.26875 -10.26864 -10.26853 -10.26681
 Alpha  occ. eigenvalues --  -10.26436 -10.26386 -10.26233 -10.26228 -10.26213
 Alpha  occ. eigenvalues --  -10.26162 -10.26000 -10.25997 -10.25822 -10.25696
 Alpha  occ. eigenvalues --  -10.25507 -10.25414 -10.25136 -10.24810 -10.24765
 Alpha  occ. eigenvalues --  -10.24664  -3.17297  -3.16517  -1.92171  -1.91767
 Alpha  occ. eigenvalues --   -1.91596  -1.91398  -1.90985  -1.90827  -1.16610
 Alpha  occ. eigenvalues --   -1.15965  -1.11910  -1.09105  -1.08605  -1.08222
 Alpha  occ. eigenvalues --   -1.07193  -1.06620  -1.04783  -1.04558  -1.04276
 Alpha  occ. eigenvalues --   -1.03738  -1.03211  -1.02859  -1.02389  -1.02075
 Alpha  occ. eigenvalues --   -0.93047  -0.91950  -0.89497  -0.89165  -0.89153
 Alpha  occ. eigenvalues --   -0.88970  -0.88508  -0.88265  -0.87848  -0.87650
 Alpha  occ. eigenvalues --   -0.87614  -0.87251  -0.87107  -0.84998  -0.84959
 Alpha  occ. eigenvalues --   -0.84608  -0.84238  -0.83914  -0.82944  -0.82626
 Alpha  occ. eigenvalues --   -0.82586  -0.82522  -0.81563  -0.81037  -0.80856
 Alpha  occ. eigenvalues --   -0.80574  -0.78774  -0.78004  -0.77228  -0.77196
 Alpha  occ. eigenvalues --   -0.76912  -0.76400  -0.76311  -0.75901  -0.75107
 Alpha  occ. eigenvalues --   -0.74876  -0.72888  -0.72752  -0.72124  -0.71650
 Alpha  occ. eigenvalues --   -0.69885  -0.69032  -0.68850  -0.68618  -0.68155
 Alpha  occ. eigenvalues --   -0.67619  -0.67196  -0.66776  -0.65872  -0.65599
 Alpha  occ. eigenvalues --   -0.65264  -0.64866  -0.64831  -0.64598  -0.64457
 Alpha  occ. eigenvalues --   -0.64247  -0.62721  -0.62275  -0.60419  -0.60250
 Alpha  occ. eigenvalues --   -0.60048  -0.59781  -0.59120  -0.58965  -0.58889
 Alpha  occ. eigenvalues --   -0.58499  -0.58481  -0.57680  -0.57562  -0.57286
 Alpha  occ. eigenvalues --   -0.56287  -0.56238  -0.56074  -0.55956  -0.55497
 Alpha  occ. eigenvalues --   -0.55317  -0.55290  -0.54976  -0.54501  -0.53951
 Alpha  occ. eigenvalues --   -0.53872  -0.53541  -0.53276  -0.53199  -0.53197
 Alpha  occ. eigenvalues --   -0.52997  -0.52892  -0.52784  -0.52733  -0.52680
 Alpha  occ. eigenvalues --   -0.52416  -0.52190  -0.51893  -0.51747  -0.51593
 Alpha  occ. eigenvalues --   -0.51173  -0.51013  -0.50892  -0.50549  -0.50460
 Alpha  occ. eigenvalues --   -0.50139  -0.50009  -0.49895  -0.49826  -0.49646
 Alpha  occ. eigenvalues --   -0.49492  -0.49297  -0.49192  -0.49083  -0.49074
 Alpha  occ. eigenvalues --   -0.48681  -0.48571  -0.48439  -0.48423  -0.48337
 Alpha  occ. eigenvalues --   -0.48090  -0.47672  -0.47515  -0.47274  -0.47127
 Alpha  occ. eigenvalues --   -0.46775  -0.46592  -0.46532  -0.46348  -0.46337
 Alpha  occ. eigenvalues --   -0.46291  -0.46140  -0.46135  -0.45967  -0.45800
 Alpha  occ. eigenvalues --   -0.45425  -0.45340  -0.45179  -0.44555  -0.44484
 Alpha  occ. eigenvalues --   -0.44441  -0.44307  -0.44155  -0.44122  -0.44065
 Alpha  occ. eigenvalues --   -0.43997  -0.43856  -0.43560  -0.43472  -0.43363
 Alpha  occ. eigenvalues --   -0.43294  -0.43064  -0.43005  -0.42676  -0.42632
 Alpha  occ. eigenvalues --   -0.42577  -0.42404  -0.42136  -0.41987  -0.41967
 Alpha  occ. eigenvalues --   -0.41728  -0.41682  -0.41593  -0.41511  -0.41119
 Alpha  occ. eigenvalues --   -0.41076  -0.40867  -0.40846  -0.40800  -0.40718
 Alpha  occ. eigenvalues --   -0.40549  -0.40373  -0.40210  -0.40033  -0.39419
 Alpha  occ. eigenvalues --   -0.38967  -0.38447  -0.37989  -0.37725  -0.37463
 Alpha  occ. eigenvalues --   -0.37298  -0.37240  -0.37142  -0.36691  -0.36684
 Alpha  occ. eigenvalues --   -0.36524  -0.36170  -0.34846  -0.34710  -0.34263
 Alpha  occ. eigenvalues --   -0.33748  -0.33481  -0.33164  -0.31405  -0.31322
 Alpha  occ. eigenvalues --   -0.31211  -0.31013  -0.30945  -0.30147  -0.30007
 Alpha  occ. eigenvalues --   -0.29651  -0.29426  -0.29299  -0.24392  -0.24058
 Alpha  occ. eigenvalues --   -0.21105  -0.20993
 Alpha virt. eigenvalues --   -0.08752  -0.08318  -0.02226  -0.01727  -0.00035
 Alpha virt. eigenvalues --    0.00501   0.01829   0.02223   0.02742   0.03146
 Alpha virt. eigenvalues --    0.04203   0.04741   0.05016   0.05121   0.05878

 Mulliken charges:
               1
     1  Mg   0.838778
     2  C   -0.002961
     3  C   -0.094103
     4  C   -0.045886
     5  C   -0.063954
     6  N   -0.256791
     7  C   -0.052458
     8  C   -0.014036
     9  C   -0.086987
    10  C    0.046332
    11  C    0.104812
    12  C    0.053456
    13  C   -0.071817
    14  H    0.036160
    15  N   -0.433151
    16  C    0.168439
    17  C   -0.177138
    18  C   -0.004000
    19  C    0.148716
    20  C    0.110177
    21  C    0.012294
    22  O   -0.249622
    23  C    0.062464
    24  N   -0.341169
    25  C    0.041272
    26  C   -0.028167
    27  C   -0.023982
    28  C    0.074839
    29  C    0.076175
    30  C    0.035130
    31  C   -0.004501
    32  N   -0.310484
    33  C    0.080408
    34  C   -0.169718
    35  C    0.008341
    36  C    0.083021
    37  C    0.127311
    38  C    0.046113
    39  O   -0.188464
    40  C   -0.005325
    41  C    0.212870
    42  O   -0.257083
    43  O   -0.304808
    44  C    0.157690
    45  H   -0.017603
    46  H   -0.016839
    47  H   -0.041510
    48  H    0.000921
    49  H   -0.004019
    50  H    0.025461
    51  H    0.016436
    52  H    0.016652
    53  H    0.011230
    54  H    0.044137
    55  H    0.017851
    56  H    0.017966
    57  H    0.005878
    58  H    0.026816
    59  H    0.039590
    60  H    0.037338
    61  H    0.035661
    62  H    0.031536
    63  H    0.016566
    64  H    0.009437
    65  H    0.023205
    66  H    0.012537
    67  H    0.004733
    68  H    0.006353
    69  H    0.004716
    70  H    0.008789
    71  H    0.018152
    72  H    0.028997
    73  H    0.047563
    74  H    0.009104
    75  H    0.045982
    76  H    0.035130
    77  H    0.042924
    78  H    0.046412
    79  H    0.053702
    80  Mg   0.819037
    81  C   -0.027523
    82  C   -0.090330
    83  C   -0.046292
    84  C   -0.087361
    85  N   -0.261346
    86  C   -0.073452
    87  C   -0.067233
    88  C   -0.064313
    89  C    0.017953
    90  C    0.108025
    91  C    0.065004
    92  C   -0.081524
    93  H    0.029392
    94  N   -0.432474
    95  C    0.196327
    96  C   -0.155241
    97  C   -0.066217
    98  C    0.129221
    99  C    0.128364
   100  C    0.011627
   101  O   -0.165206
   102  C    0.046957
   103  N   -0.260894
   104  C    0.045610
   105  C   -0.043779
   106  C   -0.029940
   107  C    0.049939
   108  C    0.066785
   109  C    0.022698
   110  C    0.021384
   111  N   -0.342421
   112  C    0.111596
   113  C   -0.193853
   114  C    0.033644
   115  C    0.152501
   116  C    0.142366
   117  C    0.016950
   118  O   -0.185165
   119  C    0.043552
   120  C    0.222888
   121  O   -0.216016
   122  O   -0.330695
   123  C    0.180772
   124  H   -0.024246
   125  H   -0.052566
   126  H   -0.027331
   127  H   -0.005472
   128  H   -0.002385
   129  H    0.020572
   130  H    0.016881
   131  H    0.032963
   132  H    0.008351
   133  H    0.031375
   134  H    0.028579
   135  H    0.035500
   136  H    0.032239
   137  H   -0.009156
   138  H    0.027818
   139  H    0.050342
   140  H    0.014678
   141  H    0.046895
   142  H    0.006562
   143  H    0.001268
   144  H    0.023833
   145  H    0.019667
   146  H    0.008305
   147  H    0.019319
   148  H   -0.007795
   149  H    0.021959
   150  H    0.005684
   151  H    0.020187
   152  H    0.016085
   153  H    0.034071
   154  H    0.041574
   155  H    0.030821
   156  H    0.024053
   157  H    0.031511
   158  H    0.036541
 Sum of Mulliken charges =  -0.00000

 Dipole moment (field-independent basis, Debye):
    X=              0.7913    Y=             -2.1860    Z=              1.9805  Tot=              3.0541
 Quadrupole moment (field-independent basis, Debye-Ang):
   XX=           -237.1180   YY=           -558.9780   ZZ=           -480.6719
   XY=            -67.0319   XZ=             78.9785   YZ=            -13.1366

 Normal termination of Gaussian 16 at Wed Sep  1 17:20:17 2021.
