 Gaussian 16, Revision A.03,
 Gaussian 16:  ES64L-G16RevA.03 25-Dec-2016

 ----------------------------------------------------------
 #p cam-b3lyp/Def2SVP td=(nstates=5) density=(transition=1)
 ----------------------------------------------------------

 --------------------------------
 TDDFT excited states in gaussian
 --------------------------------
 Symbolic Z-matrix:
 Charge =  0 Multiplicity = 1

                         Standard orientation:
 ---------------------------------------------------------------------
 Center     Atomic      Atomic             Coordinates (Angstroms)
 Number     Number       Type             X           Y           Z
 ---------------------------------------------------------------------
      1         12           0       16.349382    0.861011   -0.136298
      2          6           0       15.986499   -2.172643    1.646864
      3          6           0       13.615033    1.900370    1.352413
      4          6           0       16.192101    3.117984   -2.547388
      5          6           0       18.823579   -0.840119   -2.037055
      6          7           0       15.086968   -0.071832    1.496978
      7          6           0       15.141716   -1.196563    2.112020
      8          6           0       14.195130   -1.204276    3.329972
      9          6           0       13.097224   -0.088385    2.941488
     10          6           0       13.934313    0.612129    1.791819
     11          6           0       11.692967   -0.619408    2.449285
     12          6           0       14.979004   -0.746333    4.668149
     13          6           0       14.582748   -1.336399    6.060245
     14          1           0       13.080071   -1.770547    6.228562
     15          7           0       15.197374    2.442268   -0.428591
     16          6           0       14.108257    2.730206    0.380152
     17          6           0       13.478522    4.005201   -0.113886
     18          6           0       14.289358    4.377828   -1.266085
     19          6           0       15.296414    3.345951   -1.527833
     20          6           0       12.239483    4.578511    0.547562
     21          6           0       14.156156    5.629405   -2.105466
     22          8           0       14.843098    5.883398   -3.104666
     23          6           0       13.170171    6.649915   -1.703127
     24          7           0       17.476852    1.168221   -2.040656
     25          6           0       17.143130    2.166924   -2.837907
     26          6           0       18.264327    2.375472   -3.950508
     27          6           0       19.112852    1.004734   -3.755135
     28          6           0       18.454878    0.420719   -2.507872
     29          6           0       17.694286    2.623337   -5.386197
     30          6           0       20.663840    1.118152   -3.588939
     31          6           0       21.513370    0.588984   -4.715755
     32          7           0       17.425851   -1.039314   -0.097278
     33          6           0       18.389499   -1.533938   -0.953501
     34          6           0       18.678526   -2.869167   -0.632883
     35          6           0       17.724771   -3.169938    0.357913
     36          6           0       16.952305   -2.071120    0.651176
     37          6           0       19.653029   -3.746519   -1.240996
     38          6           0       17.358651   -4.220267    1.226786
     39          8           0       17.798162   -5.372814    1.488790
     40          6           0       16.020615   -3.694778    1.917109
     41          6           0       16.007665   -4.055890    3.357170
     42          8           0       16.781269   -3.682295    4.236423
     43          8           0       14.837840   -4.848416    3.580772
     44          6           0       14.612114   -5.338077    4.946664
     45          1           0       12.787911    2.255840    1.971134
     46          1           0       16.166125    3.905944   -3.302113
     47          1           0       19.639881   -1.326567   -2.576317
     48          1           0       13.625213   -2.131877    3.283325
     49          1           0       12.844453    0.467458    3.843747
     50          1           0       11.717119   -1.685045    2.222411
     51          1           0       11.389563   -0.146617    1.515364
     52          1           0       11.000026   -0.421703    3.267040
     53          1           0       14.989521    0.339902    4.759406
     54          1           0       16.039963   -0.948358    4.519669
     55          1           0       14.775218   -0.660667    6.894197
     56          1           0       15.065750   -2.311711    6.131804
     57          1           0       12.316636    5.655429    0.701476
     58          1           0       12.009007    4.111405    1.505081
     59          1           0       11.357583    4.269968   -0.013283
     60          1           0       12.163617    6.232182   -1.667847
     61          1           0       13.195967    7.484640   -2.403669
     62          1           0       13.348889    7.123663   -0.737866
     63          1           0       18.951179    3.186276   -3.708020
     64          1           0       18.849212    0.249514   -4.497031
     65          1           0       16.610255    2.508048   -5.389211
     66          1           0       18.294914    1.920780   -5.964272
     67          1           0       18.047345    3.605681   -5.697284
     68          1           0       20.935277    0.550133   -2.698845
     69          1           0       20.931986    2.156768   -3.394325
     70          1           0       20.785627    0.381401   -5.499110
     71          1           0       21.940153   -0.360615   -4.390853
     72          1           0       22.228838    1.316064   -5.097894
     73          1           0       20.602547   -3.211964   -1.233501
     74          1           0       19.558856   -3.892857   -2.317054
     75          1           0       19.740457   -4.660404   -0.653104
     76          1           0       15.174021   -4.156741    1.408196
     77          1           0       13.746312   -5.999875    4.981239
     78          1           0       14.287132   -4.500186    5.563730
     79          1           0       15.479434   -5.913901    5.267864
     80         12           0      -16.214556    0.312552    0.625234
     81          6           0      -16.183686   -2.512631   -1.394774
     82          6           0      -12.687524    0.477226    0.322768
     83          6           0      -16.281258    3.528517    1.529264
     84          6           0      -19.719200    0.386743    0.250225
     85          7           0      -14.614746   -0.733071   -0.752944
     86          6           0      -14.873395   -1.988480   -1.248305
     87          6           0      -13.630969   -2.639424   -1.770055
     88          6           0      -12.494727   -1.821074   -1.000875
     89          6           0      -13.269343   -0.574448   -0.444392
     90          6           0      -11.714069   -2.619885    0.160655
     91          6           0      -13.619613   -2.632569   -3.384758
     92          6           0      -12.838334   -3.686388   -3.989145
     93          1           0      -11.762310   -3.173937   -4.969794
     94          7           0      -14.722142    1.745787    1.066184
     95          6           0      -13.317080    1.617194    0.881021
     96          6           0      -12.698952    2.840784    1.363141
     97          6           0      -13.714719    3.750311    1.745714
     98          6           0      -14.989462    2.985541    1.533878
     99          6           0      -11.238276    3.077418    1.260476
    100          6           0      -13.448116    5.238752    2.224047
    101          8           0      -12.274670    5.603591    2.277956
    102          6           0      -14.531173    6.080415    2.890128
    103          7           0      -17.782792    1.725909    0.742209
    104          6           0      -17.521920    2.950090    1.266791
    105          6           0      -18.854565    3.926888    1.303594
    106          6           0      -20.001263    2.825887    1.092697
    107          6           0      -19.185911    1.555024    0.694853
    108          6           0      -19.086794    4.721994    2.643931
    109          6           0      -21.009110    3.207832    0.006977
    110          6           0      -22.517198    3.329969    0.331918
    111          7           0      -17.668557   -0.957371   -0.107578
    112          6           0      -19.024393   -0.808886   -0.152909
    113          6           0      -19.613548   -2.020894   -0.651685
    114          6           0      -18.469485   -2.703222   -1.213318
    115          6           0      -17.326569   -1.960235   -0.871784
    116          6           0      -21.079391   -2.297945   -0.821382
    117          6           0      -18.086283   -3.827866   -2.041060
    118          8           0      -18.726335   -4.768433   -2.401692
    119          6           0      -16.513848   -3.821662   -2.177754
    120          6           0      -15.802529   -5.018003   -1.507959
    121          8           0      -15.999719   -5.387994   -0.370511
    122          8           0      -14.975411   -5.663692   -2.450041
    123          6           0      -14.374964   -6.897868   -2.042317
    124          1           0      -11.599419    0.432319    0.252763
    125          1           0      -16.361049    4.615858    1.587885
    126          1           0      -20.806665    0.443367    0.174905
    127          1           0      -13.469409   -3.629322   -1.342068
    128          1           0      -11.765533   -1.484472   -1.738694
    129          1           0      -10.668017   -2.614805   -0.145430
    130          1           0      -12.081380   -3.636572    0.296944
    131          1           0      -11.837633   -2.030878    1.069908
    132          1           0      -13.163141   -1.672916   -3.626666
    133          1           0      -14.688058   -2.590555   -3.598045
    134          1           0      -13.548736   -4.322350   -4.515971
    135          1           0      -12.297096   -4.238332   -3.220742
    136          1           0      -10.696943    2.159051    1.033878
    137          1           0      -10.842888    3.386315    2.228451
    138          1           0      -11.007218    3.791220    0.469431
    139          1           0      -15.355040    6.342531    2.225575
    140          1           0      -14.051649    6.978770    3.280250
    141          1           0      -14.896861    5.515189    3.747462
    142          1           0      -18.739925    4.534720    0.406517
    143          1           0      -20.505100    2.506630    2.005275
    144          1           0      -18.960026    5.789227    2.464497
    145          1           0      -18.356548    4.400635    3.387575
    146          1           0      -20.105783    4.501157    2.963539
    147          1           0      -20.900374    2.583453   -0.879540
    148          1           0      -20.793718    4.145821   -0.504516
    149          1           0      -23.185347    2.576956   -0.086877
    150          1           0      -22.825032    4.270863   -0.124852
    151          1           0      -22.690898    3.332569    1.408659
    152          1           0      -21.188929   -3.378330   -0.918770
    153          1           0      -21.482811   -2.065294   -1.806388
    154          1           0      -21.725785   -1.836313   -0.075409
    155          1           0      -16.365438   -3.891559   -3.255703
    156          1           0      -13.483525   -6.893120   -2.670384
    157          1           0      -14.939552   -7.762227   -2.391484
    158          1           0      -14.240860   -6.927470   -0.961744
 ---------------------------------------------------------------------

 SCF Done:  E(RCAM-B3LYP) =  -4069.74972232     A.U. after   19 cycles

 Excitation energies and oscillator strengths:

 Excited State   1:      Singlet-A      1.6843 eV  736.13 nm  f=0.3875  <S**2>=0.000
     309 -> 316        0.17410
     312 -> 313        0.68812
     309 <- 316        0.10835
 This state for optimization and/or second-order correction.
 Total Energy, E(TD-HF/TD-DFT) =  -4069.68782675
 Copying the excited state density for this state as the 1-particle RhoCI density.

 Excited State   2:      Singlet-A      1.7997 eV  688.91 nm  f=0.3675  <S**2>=0.000
     310 -> 315        0.21209
     311 -> 314        0.67494
     310 <- 315        0.10952

 Excited State   3:      Singlet-A      2.2245 eV  557.35 nm  f=0.0810  <S**2>=0.000
     310 -> 314        0.62932
     311 -> 315       -0.30796

 Excited State   4:      Singlet-A      2.2456 eV  552.13 nm  f=0.1074  <S**2>=0.000
     309 -> 313        0.63690
     312 -> 316       -0.29188

 Excited State   5:      Singlet-A      3.1357 eV  395.39 nm  f=0.0000  <S**2>=0.000
     312 -> 314        0.70709

 The electronic state is 1-A.
 Alpha  occ. eigenvalues --  -46.89846 -46.89411 -19.25173 -19.23964 -19.20785
 Alpha  occ. eigenvalues --  -19.20240 -19.19748 -19.19015 -19.18472 -19.18302
 Alpha  occ. eigenvalues --  -14.42358 -14.42172 -14.42057 -14.41742 -14.40244
 Alpha  occ. eigenvalues --  -14.39991 -14.39126 -14.38586 -10.40125 -10.39314
 Alpha  occ. eigenvalues --  -10.36431 -10.35142 -10.34508 -10.34063 -10.31856
 Alpha  occ. eigenvalues --  -10.31664 -10.31543 -10.31497 -10.31233 -10.31110
 Alpha  occ. eigenvalues --  -10.31014 -10.30984 -10.30771 -10.30728 -10.30639
 Alpha  occ. eigenvalues --  -10.30607 -10.30521 -10.30328 -10.30267 -10.29700
 Alpha  occ. eigenvalues --  -10.29351 -10.29324 -10.28691 -10.28682 -10.28665
 Alpha  occ. eigenvalues --  -10.28590 -10.28557 -10.28552 -10.28527 -10.28411
 Alpha  occ. eigenvalues --  -10.28405 -10.28325 -10.28267 -10.28208 -10.28182
 Alpha  occ. eigenvalues --  -10.28163 -10.28029 -10.27859 -10.27858 -10.27697
 Alpha  occ. eigenvalues --  -10.27666 -10.27614 -10.27560 -10.27510 -10.27487
 Alpha  occ. eigenvalues --  -10.27092 -10.26994 -10.26908 -10.26745 -10.26484
 Alpha  occ. eigenvalues --  -10.26471 -10.26442 -10.26401 -10.26397 -10.26336
 Alpha  occ. eigenvalues --  -10.26248 -10.26046 -10.25929 -10.25897 -10.25842
 Alpha  occ. eigenvalues --  -10.25830 -10.25737 -10.25516 -10.25424 -10.24677
 Alpha  occ. eigenvalues --  -10.24661  -3.18264  -3.17865  -1.93114  -1.92774
 Alpha  occ. eigenvalues --   -1.92769  -1.92531  -1.92331  -1.92151  -1.16122
 Alpha  occ. eigenvalues --   -1.13988  -1.10839  -1.10344  -1.09438  -1.08778
 Alpha  occ. eigenvalues --   -1.07308  -1.06748  -1.05802  -1.05230  -1.04958
 Alpha  occ. eigenvalues --   -1.03508  -1.02961  -1.02430  -1.01642  -1.01488
 Alpha  occ. eigenvalues --   -0.92977  -0.92290  -0.89517  -0.89260  -0.88630
 Alpha  occ. eigenvalues --   -0.88418  -0.88231  -0.87918  -0.87572  -0.87396
 Alpha  occ. eigenvalues --   -0.86928  -0.86920  -0.86476  -0.85861  -0.84293
 Alpha  occ. eigenvalues --   -0.84139  -0.83993  -0.83412  -0.82747  -0.82743
 Alpha  occ. eigenvalues --   -0.82280  -0.82078  -0.81530  -0.81194  -0.80689
 Alpha  occ. eigenvalues --   -0.80300  -0.78987  -0.77880  -0.77732  -0.77380
 Alpha  occ. eigenvalues --   -0.76989  -0.76813  -0.76168  -0.75909  -0.75256
 Alpha  occ. eigenvalues --   -0.74983  -0.73243  -0.72709  -0.72275  -0.71392
 Alpha  occ. eigenvalues --   -0.69283  -0.68950  -0.68614  -0.68484  -0.67945
 Alpha  occ. eigenvalues --   -0.67501  -0.67246  -0.66554  -0.65964  -0.65944
 Alpha  occ. eigenvalues --   -0.65680  -0.65615  -0.64862  -0.64620  -0.64552
 Alpha  occ. eigenvalues --   -0.64141  -0.62865  -0.61277  -0.60554  -0.60166
 Alpha  occ. eigenvalues --   -0.59699  -0.59525  -0.59308  -0.59041  -0.58612
 Alpha  occ. eigenvalues --   -0.58367  -0.58054  -0.57760  -0.57513  -0.57358
 Alpha  occ. eigenvalues --   -0.57015  -0.56379  -0.55785  -0.55500  -0.55377
 Alpha  occ. eigenvalues --   -0.55013  -0.54877  -0.54468  -0.54051  -0.53813
 Alpha  occ. eigenvalues --   -0.53552  -0.53293  -0.53240  -0.52985  -0.52769
 Alpha  occ. eigenvalues --   -0.52645  -0.52625  -0.52496  -0.52492  -0.52259
 Alpha  occ. eigenvalues --   -0.52142  -0.51783  -0.51688  -0.51574  -0.51130
 Alpha  occ. eigenvalues --   -0.51084  -0.50937  -0.50843  -0.50566  -0.50366
 Alpha  occ. eigenvalues --   -0.50249  -0.50134  -0.49885  -0.49756  -0.49664
 Alpha  occ. eigenvalues --   -0.49579  -0.49263  -0.49222  -0.49193  -0.48808
 Alpha  occ. eigenvalues --   -0.48807  -0.48685  -0.48497  -0.48400  -0.48064
 Alpha  occ. eigenvalues --   -0.48059  -0.47937  -0.47829  -0.47635  -0.47353
 Alpha  occ. eigenvalues --   -0.47333  -0.47076  -0.47050  -0.46999  -0.46811
 Alpha  occ. eigenvalues --   -0.46470  -0.46320  -0.46217  -0.46123  -0.45972
 Alpha  occ. eigenvalues --   -0.45724  -0.45606  -0.45360  -0.45285  -0.45003
 Alpha  occ. eigenvalues --   -0.44932  -0.44811  -0.44555  -0.44247  -0.44127
 Alpha  occ. eigenvalues --   -0.44010  -0.43949  -0.43931  -0.43578  -0.43577
 Alpha  occ. eigenvalues --   -0.43427  -0.43355  -0.43158  -0.43007  -0.42754
 Alpha  occ. eigenvalues --   -0.42732  -0.42626  -0.42539  -0.42242  -0.41956
 Alpha  occ. eigenvalues --   -0.41708  -0.41598  -0.41472  -0.41194  -0.41122
 Alpha  occ. eigenvalues --   -0.41077  -0.41023  -0.40774  -0.40666  -0.40510
 Alpha  occ. eigenvalues --   -0.40309  -0.40074  -0.39848  -0.39050  -0.38698
 Alpha  occ. eigenvalues --   -0.38507  -0.38232  -0.37849  -0.37774  -0.37418
 Alpha  occ. eigenvalues --   -0.37114  -0.36737  -0.36467  -0.36275  -0.36128
 Alpha  occ. eigenvalues --   -0.35658  -0.35652  -0.34830  -0.34497  -0.34308
 Alpha  occ. eigenvalues --   -0.33922  -0.33568  -0.33327  -0.31814  -0.31637
 Alpha  occ. eigenvalues --   -0.31312  -0.31300  -0.30522  -0.30266  -0.30266
 Alpha  occ. eigenvalues --   -0.30013  -0.29313  -0.29219  -0.24363  -0.24179
 Alpha  occ. eigenvalues --   -0.21690  -0.21216
 Alpha virt. eigenvalues --   -0.08831  -0.08631  -0.02668  -0.01695  -0.00254
 Alpha virt. eigenvalues --    0.00342   0.01285   0.02116   0.02240   0.02307
 Alpha virt. eigenvalues --    0.04527   0.04560   0.04623   0.05489   0.05588

 Mulliken charges:
               1
     1  Mg  11.999963
     2  C    6.000391
     3  C    5.999864
     4  C    5.999633
     5  C    6.000005
     6  N    7.000153
     7  C    5.999574
     8  C    6.000088
     9  C    5.999814
    10  C    6.000348
    11  C    5.999935
    12  C    6.000023
    13  C    5.999944
    14  H    1.000101
    15  N    6.999793
    16  C    6.000442
    17  C    6.000444
    18  C    6.000058
    19  C    6.000508
    20  C    5.999808
    21  C    6.000166
    22  O    8.000232
    23  C    5.999853
    24  N    6.999976
    25  C    6.000425
    26  C    5.999846
    27  C    6.000106
    28  C    5.999669
    29  C    5.999985
    30  C    6.000097
    31  C    6.000013
    32  N    7.000090
    33  C    5.999653
    34  C    5.999442
    35  C    6.000062
    36  C    5.999501
    37  C    6.000160
    38  C    5.999767
    39  O    7.999514
    40  C    5.999980
    41  C    5.999955
    42  O    7.999909
    43  O    7.999985
    44  C    6.000028
    45  H    1.000294
    46  H    1.000048
    47  H    0.999761
    48  H    1.000024
    49  H    1.000198
    50  H    1.000104
    51  H    1.000060
    52  H    1.000267
    53  H    0.999911
    54  H    0.999990
    55  H    0.999984
    56  H    0.999963
    57  H    1.000335
    58  H    1.000339
    59  H    1.000483
    60  H    1.000237
    61  H    1.000196
    62  H    1.000133
    63  H    1.000006
    64  H    0.999960
    65  H    1.000008
    66  H    1.000014
    67  H    0.999968
    68  H    1.000033
    69  H    0.999841
    70  H    0.999925
    71  H    0.999979
    72  H    0.999858
    73  H    0.999685
    74  H    0.999591
    75  H    0.999739
    76  H    0.999912
    77  H    0.999937
    78  H    1.000017
    79  H    0.999896
    80  Mg  12.001229
    81  C    5.987546
    82  C    6.028572
    83  C    6.013801
    84  C    5.971203
    85  N    7.009037
    86  C    6.028917
    87  C    5.986005
    88  C    6.012399
    89  C    5.957198
    90  C    6.001455
    91  C    5.998354
    92  C    5.995659
    93  H    1.011493
    94  N    7.010226
    95  C    5.941493
    96  C    5.991146
    97  C    5.977535
    98  C    5.964854
    99  C    6.007328
   100  C    5.987561
   101  O    7.979094
   102  C    6.003930
   103  N    6.985085
   104  C    5.974281
   105  C    6.008827
   106  C    5.991345
   107  C    6.039296
   108  C    6.001379
   109  C    5.997673
   110  C    5.999047
   111  N    6.997205
   112  C    6.049433
   113  C    6.019935
   114  C    6.012183
   115  C    6.027935
   116  C    5.997248
   117  C    6.017245
   118  O    8.031155
   119  C    6.002586
   120  C    6.005513
   121  O    8.005110
   122  O    8.003200
   123  C    5.996792
   124  H    0.991418
   125  H    0.992156
   126  H    1.006775
   127  H    1.002773
   128  H    0.995971
   129  H    0.996773
   130  H    0.985659
   131  H    1.004419
   132  H    1.012469
   133  H    0.990677
   134  H    0.996674
   135  H    1.004160
   136  H    0.980635
   137  H    0.983166
   138  H    0.980984
   139  H    0.987899
   140  H    0.986730
   141  H    0.991600
   142  H    0.997591
   143  H    1.000913
   144  H    1.000150
   145  H    1.004006
   146  H    0.989121
   147  H    0.994867
   148  H    1.009068
   149  H    0.996370
   150  H    1.004262
   151  H    1.003381
   152  H    1.013770
   153  H    1.023066
   154  H    1.018907
   155  H    1.010446
   156  H    1.006448
   157  H    1.003076
   158  H    1.005114
 Sum of Mulliken charges = 624.00000

 Dipole moment (field-independent basis, Debye):
    X=             -7.1002    Y=             -7.5765    Z=             -3.6759  Tot=             11.0149
 Quadrupole moment (field-independent basis, Debye-Ang):
   XX=            222.3698   YY=             -4.5260   ZZ=             -0.3694
   XY=            121.9242   XZ=             56.6043   YZ=             -2.2382

 Normal termination of Gaussian 16 at Wed Sep 22 02:43:02 2021.
