 Gaussian 16, Revision A.03,
 Gaussian 16:  ES64L-G16RevA.03 25-Dec-2016

 ----------------------------------------------------------
 #p cam-b3lyp/Def2SVP td=(nstates=5) density=(transition=1)
 ----------------------------------------------------------

 --------------------------------
 TDDFT excited states in gaussian
 --------------------------------
 Symbolic Z-matrix:
 Charge =  0 Multiplicity = 1

                         Standard orientation:
 ---------------------------------------------------------------------
 Center     Atomic      Atomic             Coordinates (Angstroms)
 Number     Number       Type             X           Y           Z
 ---------------------------------------------------------------------
      1         12           0       20.469361    0.107531    0.463409
      2          6           0       18.005752   -1.796600   -1.331991
      3          6           0       21.525453    1.306634   -2.701667
      4          6           0       23.023130    1.935287    1.991114
      5          6           0       19.650295   -1.383810    3.338359
      6          7           0       19.903885   -0.422148   -1.830075
      7          6           0       18.819472   -1.112396   -2.243489
      8          6           0       18.768877   -1.139544   -3.813485
      9          6           0       20.052756   -0.301753   -4.154666
     10          6           0       20.509072    0.319689   -2.814695
     11          6           0       21.158410   -1.164348   -4.857538
     12          6           0       17.492133   -0.528213   -4.390088
     13          6           0       16.848182   -1.278265   -5.509620
     14          1           0       15.509948   -0.770740   -6.065896
     15          7           0       21.897672    1.566205   -0.181842
     16          6           0       22.159737    1.888116   -1.509370
     17          6           0       23.190301    2.907185   -1.529972
     18          6           0       23.570140    3.187439   -0.227839
     19          6           0       22.874739    2.150799    0.607136
     20          6           0       23.837392    3.444202   -2.774156
     21          6           0       24.655404    4.185202    0.350157
     22          8           0       24.937893    4.377515    1.507451
     23          6           0       25.330968    5.148484   -0.601655
     24          7           0       21.331460    0.165781    2.294655
     25          6           0       22.349670    0.957236    2.758591
     26          6           0       22.784589    0.570052    4.191346
     27          6           0       21.559725   -0.303117    4.699926
     28          6           0       20.772169   -0.495108    3.348057
     29          6           0       24.178099   -0.134618    4.237486
     30          6           0       20.698675    0.373659    5.809518
     31          6           0       19.898307    1.598204    5.371671
     32          7           0       19.174128   -1.293677    0.969301
     33          6           0       18.864176   -1.805940    2.259963
     34          6           0       17.793849   -2.797151    2.175566
     35          6           0       17.411235   -2.773214    0.822372
     36          6           0       18.244028   -1.857154    0.126805
     37          6           0       17.235688   -3.556742    3.287992
     38          6           0       16.463699   -3.388518   -0.101357
     39          8           0       15.556750   -4.171866    0.125118
     40          6           0       16.861516   -2.848452   -1.578728
     41          6           0       15.500716   -2.311413   -2.028732
     42          8           0       14.904330   -1.291865   -1.637618
     43          8           0       14.976592   -3.157351   -2.898490
     44          6           0       13.768624   -2.730418   -3.714862
     45          1           0       21.792510    1.725057   -3.674009
     46          1           0       23.798345    2.460744    2.554269
     47          1           0       19.385715   -1.775610    4.322408
     48          1           0       18.753242   -2.200538   -4.060505
     49          1           0       19.820419    0.546503   -4.799944
     50          1           0       21.515631   -0.792627   -5.817910
     51          1           0       20.937617   -2.231516   -4.886874
     52          1           0       22.137165   -1.173772   -4.377375
     53          1           0       17.905508    0.280263   -4.993329
     54          1           0       16.814081   -0.147700   -3.625382
     55          1           0       16.697289   -2.355886   -5.427808
     56          1           0       17.562420   -1.157282   -6.324144
     57          1           0       23.315156    3.109085   -3.669928
     58          1           0       24.889837    3.184814   -2.899062
     59          1           0       23.828645    4.529221   -2.879170
     60          1           0       24.620065    5.808273   -1.098926
     61          1           0       25.859753    4.461944   -1.262904
     62          1           0       26.097477    5.612023    0.019417
     63          1           0       22.947340    1.532313    4.678078
     64          1           0       21.742739   -1.360685    4.891354
     65          1           0       24.944382    0.479974    4.709843
     66          1           0       24.575867   -0.549998    3.312222
     67          1           0       23.945406   -1.007046    4.848347
     68          1           0       21.314433    0.435384    6.706919
     69          1           0       19.938348   -0.346523    6.111266
     70          1           0       20.086332    1.953067    4.359003
     71          1           0       20.198840    2.397845    6.048235
     72          1           0       18.819984    1.459685    5.302317
     73          1           0       16.444438   -4.256367    3.017882
     74          1           0       16.855067   -2.804360    3.978639
     75          1           0       18.061639   -4.074502    3.777730
     76          1           0       17.070925   -3.661092   -2.274307
     77          1           0       13.722263   -3.423835   -4.554868
     78          1           0       13.884788   -1.742541   -4.159592
     79          1           0       12.843736   -2.696625   -3.137894
     80         12           0      -20.077264   -0.458673   -0.274119
     81          6           0      -19.630456    2.953949    0.063406
     82          6           0      -16.591925   -0.883387    0.240517
     83          6           0      -20.505582   -3.848734   -0.016827
     84          6           0      -23.508892   -0.068128   -0.294462
     85          7           0      -18.336547    0.921483   -0.026330
     86          6           0      -18.428685    2.281332    0.183640
     87          6           0      -17.078764    2.949487    0.642905
     88          6           0      -16.038317    1.780353    0.304142
     89          6           0      -17.001485    0.482044    0.105686
     90          6           0      -15.041374    1.961393   -0.903222
     91          6           0      -17.025919    3.357256    2.073234
     92          6           0      -16.823857    4.809936    2.459339
     93          1           0      -16.123853    5.059096    3.804951
     94          7           0      -18.706968   -2.153322   -0.026027
     95          6           0      -17.309497   -2.054609    0.110765
     96          6           0      -16.737764   -3.363115    0.145048
     97          6           0      -17.908088   -4.275705    0.230160
     98          6           0      -19.143892   -3.447349    0.075924
     99          6           0      -15.246235   -3.644417    0.354654
    100          6           0      -17.727324   -5.792664    0.413575
    101          8           0      -16.670966   -6.406197    0.535267
    102          6           0      -18.933305   -6.574279    0.798275
    103          7           0      -21.843133   -1.832412    0.016352
    104          6           0      -21.708815   -3.160943   -0.095920
    105          6           0      -23.063212   -3.766501    0.269667
    106          6           0      -24.121917   -2.578357    0.105747
    107          6           0      -23.105879   -1.368779   -0.105173
    108          6           0      -23.424756   -4.903633   -0.750423
    109          6           0      -25.162658   -2.284897    1.263018
    110          6           0      -26.652405   -2.492120    1.034266
    111          7           0      -21.369841    1.148870   -0.221656
    112          6           0      -22.767069    1.170857   -0.274058
    113          6           0      -23.238321    2.516667   -0.153903
    114          6           0      -22.047195    3.293292   -0.010232
    115          6           0      -20.940090    2.363595   -0.113386
    116          6           0      -24.649594    3.013652   -0.147313
    117          6           0      -21.499259    4.580848    0.112929
    118          8           0      -22.088210    5.641415    0.175652
    119          6           0      -19.935281    4.422222    0.248266
    120          6           0      -19.286329    5.417341   -0.619640
    121          8           0      -18.756040    6.437404   -0.194326
    122          8           0      -19.395320    5.036127   -1.948660
    123          6           0      -18.800483    6.017927   -2.883142
    124          1           0      -15.535242   -1.136038    0.346254
    125          1           0      -20.543901   -4.940425   -0.015322
    126          1           0      -24.595652    0.031542   -0.259481
    127          1           0      -16.870986    3.813983    0.013326
    128          1           0      -15.490049    1.580539    1.225481
    129          1           0      -15.076750    3.012072   -1.191017
    130          1           0      -15.252151    1.328553   -1.765408
    131          1           0      -14.056673    1.660502   -0.547501
    132          1           0      -16.159749    2.852042    2.503213
    133          1           0      -17.951806    3.076256    2.573955
    134          1           0      -17.809138    5.258171    2.584066
    135          1           0      -16.217377    5.366359    1.745086
    136          1           0      -14.537620   -2.838274    0.543336
    137          1           0      -15.001697   -4.228107   -0.532476
    138          1           0      -15.247941   -4.425737    1.114007
    139          1           0      -19.569285   -7.000920    0.023829
    140          1           0      -19.544777   -6.053026    1.534975
    141          1           0      -18.560462   -7.468442    1.299221
    142          1           0      -23.088252   -4.167854    1.283032
    143          1           0      -24.633171   -2.661114   -0.852715
    144          1           0      -23.711373   -5.774001   -0.160176
    145          1           0      -22.635232   -5.173680   -1.452861
    146          1           0      -24.253038   -4.642545   -1.409522
    147          1           0      -24.973605   -1.243877    1.524076
    148          1           0      -24.903581   -2.985346    2.058177
    149          1           0      -27.141659   -1.842083    1.760089
    150          1           0      -26.908154   -3.521018    1.288323
    151          1           0      -27.096159   -2.245358    0.070328
    152          1           0      -24.582989    4.096798   -0.041748
    153          1           0      -25.163437    2.512856    0.672657
    154          1           0      -25.213309    2.824610   -1.061050
    155          1           0      -19.738835    4.714556    1.280347
    156          1           0      -19.549843    6.749916   -3.184206
    157          1           0      -18.360773    5.431297   -3.689723
    158          1           0      -17.952963    6.538843   -2.438564
 ---------------------------------------------------------------------

 SCF Done:  E(RCAM-B3LYP) =  -4069.78098772     A.U. after   19 cycles

 Excitation energies and oscillator strengths:

 Excited State   1:      Singlet-A      1.6510 eV  750.99 nm  f=0.3699  <S**2>=0.000
     310 -> 316       -0.18395
     312 -> 314        0.68512
     310 <- 316       -0.11253
 This state for optimization and/or second-order correction.
 Total Energy, E(TD-HF/TD-DFT) =  -4069.72031627
 Copying the excited state density for this state as the 1-particle RhoCI density.

 Excited State   2:      Singlet-A      1.7133 eV  723.66 nm  f=0.3806  <S**2>=0.000
     309 -> 315       -0.17420
     311 -> 313        0.68631
     309 <- 315       -0.10489

 Excited State   3:      Singlet-A      2.1719 eV  570.85 nm  f=0.1595  <S**2>=0.000
     309 -> 313        0.65197
     311 -> 315        0.25356

 Excited State   4:      Singlet-A      2.2173 eV  559.16 nm  f=0.0913  <S**2>=0.000
     310 -> 314        0.62582
     312 -> 316        0.32034

 Excited State   5:      Singlet-A      2.8243 eV  438.99 nm  f=0.0000  <S**2>=0.000
     312 -> 313        0.70710

 The electronic state is 1-A.
 Alpha  occ. eigenvalues --  -46.90481 -46.88293 -19.25123 -19.24943 -19.19827
 Alpha  occ. eigenvalues --  -19.19515 -19.19364 -19.19106 -19.18301 -19.18002
 Alpha  occ. eigenvalues --  -14.43486 -14.42459 -14.41991 -14.41550 -14.40104
 Alpha  occ. eigenvalues --  -14.40047 -14.39871 -14.39678 -10.39125 -10.38466
 Alpha  occ. eigenvalues --  -10.35589 -10.35392 -10.35271 -10.34189 -10.33106
 Alpha  occ. eigenvalues --  -10.32207 -10.32072 -10.31683 -10.31668 -10.31514
 Alpha  occ. eigenvalues --  -10.31404 -10.31370 -10.31238 -10.31087 -10.31039
 Alpha  occ. eigenvalues --  -10.30824 -10.30628 -10.30417 -10.30125 -10.30001
 Alpha  occ. eigenvalues --  -10.29913 -10.29830 -10.29419 -10.29091 -10.28869
 Alpha  occ. eigenvalues --  -10.28779 -10.28742 -10.28705 -10.28673 -10.28598
 Alpha  occ. eigenvalues --  -10.28514 -10.28435 -10.28416 -10.28410 -10.28366
 Alpha  occ. eigenvalues --  -10.28358 -10.28289 -10.28288 -10.28266 -10.28258
 Alpha  occ. eigenvalues --  -10.28194 -10.28138 -10.27894 -10.27533 -10.27460
 Alpha  occ. eigenvalues --  -10.27333 -10.27285 -10.27030 -10.26979 -10.26890
 Alpha  occ. eigenvalues --  -10.26832 -10.26825 -10.26615 -10.26243 -10.26223
 Alpha  occ. eigenvalues --  -10.26177 -10.26097 -10.26069 -10.26052 -10.26018
 Alpha  occ. eigenvalues --  -10.25900 -10.25708 -10.25420 -10.25411 -10.25399
 Alpha  occ. eigenvalues --  -10.24908  -3.18692  -3.16984  -1.93620  -1.93123
 Alpha  occ. eigenvalues --   -1.92994  -1.91869  -1.91456  -1.91289  -1.15945
 Alpha  occ. eigenvalues --   -1.15537  -1.11453  -1.10054  -1.10036  -1.09768
 Alpha  occ. eigenvalues --   -1.07480  -1.05286  -1.04817  -1.04055  -1.03789
 Alpha  occ. eigenvalues --   -1.03127  -1.02569  -1.02216  -1.01735  -1.01702
 Alpha  occ. eigenvalues --   -0.92586  -0.90864  -0.89501  -0.89377  -0.89255
 Alpha  occ. eigenvalues --   -0.88748  -0.88194  -0.87996  -0.87693  -0.87355
 Alpha  occ. eigenvalues --   -0.87173  -0.86954  -0.86448  -0.85814  -0.84514
 Alpha  occ. eigenvalues --   -0.84121  -0.83844  -0.83582  -0.82894  -0.82366
 Alpha  occ. eigenvalues --   -0.82226  -0.81507  -0.81030  -0.80887  -0.80751
 Alpha  occ. eigenvalues --   -0.80166  -0.78134  -0.77835  -0.77304  -0.77186
 Alpha  occ. eigenvalues --   -0.76985  -0.76956  -0.76219  -0.75979  -0.75526
 Alpha  occ. eigenvalues --   -0.75125  -0.73502  -0.72594  -0.72282  -0.71647
 Alpha  occ. eigenvalues --   -0.70066  -0.69394  -0.68993  -0.68752  -0.67991
 Alpha  occ. eigenvalues --   -0.67537  -0.67130  -0.66278  -0.65634  -0.65480
 Alpha  occ. eigenvalues --   -0.65470  -0.65248  -0.65119  -0.64807  -0.64569
 Alpha  occ. eigenvalues --   -0.64057  -0.63007  -0.61780  -0.60250  -0.59749
 Alpha  occ. eigenvalues --   -0.59594  -0.59457  -0.59278  -0.59066  -0.58940
 Alpha  occ. eigenvalues --   -0.57792  -0.57704  -0.57363  -0.56986  -0.56551
 Alpha  occ. eigenvalues --   -0.56241  -0.55973  -0.55643  -0.55492  -0.55446
 Alpha  occ. eigenvalues --   -0.55025  -0.54810  -0.54666  -0.53966  -0.53846
 Alpha  occ. eigenvalues --   -0.53520  -0.53331  -0.53232  -0.53216  -0.52895
 Alpha  occ. eigenvalues --   -0.52824  -0.52784  -0.52720  -0.52479  -0.52425
 Alpha  occ. eigenvalues --   -0.52119  -0.52091  -0.51842  -0.51520  -0.51326
 Alpha  occ. eigenvalues --   -0.50967  -0.50934  -0.50893  -0.50374  -0.50207
 Alpha  occ. eigenvalues --   -0.50112  -0.49799  -0.49709  -0.49606  -0.49493
 Alpha  occ. eigenvalues --   -0.49289  -0.49227  -0.49140  -0.48953  -0.48869
 Alpha  occ. eigenvalues --   -0.48654  -0.48646  -0.48438  -0.48307  -0.48132
 Alpha  occ. eigenvalues --   -0.47947  -0.47793  -0.47523  -0.47451  -0.47170
 Alpha  occ. eigenvalues --   -0.47009  -0.46726  -0.46704  -0.46654  -0.46580
 Alpha  occ. eigenvalues --   -0.46341  -0.46184  -0.46124  -0.45988  -0.45833
 Alpha  occ. eigenvalues --   -0.45831  -0.45682  -0.45502  -0.45308  -0.45239
 Alpha  occ. eigenvalues --   -0.45185  -0.44912  -0.44668  -0.44520  -0.44412
 Alpha  occ. eigenvalues --   -0.44159  -0.44117  -0.43967  -0.43723  -0.43641
 Alpha  occ. eigenvalues --   -0.43630  -0.43530  -0.43157  -0.42991  -0.42975
 Alpha  occ. eigenvalues --   -0.42968  -0.42753  -0.42497  -0.42425  -0.42227
 Alpha  occ. eigenvalues --   -0.42146  -0.41814  -0.41590  -0.41497  -0.41409
 Alpha  occ. eigenvalues --   -0.41272  -0.40912  -0.40480  -0.40365  -0.40187
 Alpha  occ. eigenvalues --   -0.39964  -0.39708  -0.39581  -0.39459  -0.39202
 Alpha  occ. eigenvalues --   -0.38632  -0.38347  -0.38049  -0.37811  -0.37522
 Alpha  occ. eigenvalues --   -0.37406  -0.37209  -0.36781  -0.36623  -0.36057
 Alpha  occ. eigenvalues --   -0.35890  -0.35637  -0.34486  -0.34313  -0.33905
 Alpha  occ. eigenvalues --   -0.33329  -0.33126  -0.32729  -0.31758  -0.31439
 Alpha  occ. eigenvalues --   -0.31216  -0.30985  -0.30799  -0.30524  -0.30356
 Alpha  occ. eigenvalues --   -0.30186  -0.29981  -0.29576  -0.24610  -0.24107
 Alpha  occ. eigenvalues --   -0.22150  -0.20957
 Alpha virt. eigenvalues --   -0.09721  -0.08699  -0.02333  -0.02032   0.00027
 Alpha virt. eigenvalues --    0.00655   0.02220   0.02343   0.02392   0.03411
 Alpha virt. eigenvalues --    0.04514   0.05155   0.05264   0.05273   0.05850

 Mulliken charges:
               1
     1  Mg  12.000716
     2  C    5.977995
     3  C    6.023486
     4  C    6.028265
     5  C    5.992540
     6  N    6.990721
     7  C    6.029316
     8  C    5.995226
     9  C    6.006181
    10  C    5.966819
    11  C    6.002571
    12  C    5.994219
    13  C    5.998089
    14  H    1.000581
    15  N    7.009818
    16  C    5.948237
    17  C    5.985509
    18  C    5.981529
    19  C    5.956335
    20  C    6.006971
    21  C    5.987831
    22  O    7.973461
    23  C    6.003670
    24  N    7.012169
    25  C    5.957540
    26  C    6.007233
    27  C    5.995855
    28  C    6.033745
    29  C    6.005444
    30  C    5.994484
    31  C    5.993049
    32  N    6.994198
    33  C    6.040992
    34  C    6.028559
    35  C    6.004147
    36  C    6.036209
    37  C    5.997934
    38  C    6.014353
    39  O    8.028300
    40  C    6.002885
    41  C    6.003478
    42  O    8.005006
    43  O    8.000103
    44  C    5.997589
    45  H    0.989777
    46  H    0.993891
    47  H    1.012757
    48  H    0.996380
    49  H    1.001221
    50  H    0.997122
    51  H    0.987018
    52  H    1.002359
    53  H    1.009730
    54  H    0.996325
    55  H    0.996653
    56  H    1.005874
    57  H    0.981579
    58  H    0.979341
    59  H    0.980433
    60  H    0.992252
    61  H    0.995023
    62  H    0.985516
    63  H    1.002491
    64  H    0.997550
    65  H    1.000078
    66  H    1.001216
    67  H    0.986107
    68  H    1.010552
    69  H    0.995896
    70  H    1.011761
    71  H    1.008732
    72  H    0.995793
    73  H    1.015430
    74  H    1.018636
    75  H    1.018746
    76  H    1.008849
    77  H    1.004632
    78  H    1.005310
    79  H    1.001614
    80  Mg  11.999995
    81  C    5.999602
    82  C    6.000086
    83  C    6.000500
    84  C    5.999935
    85  N    6.999808
    86  C    6.000442
    87  C    5.999879
    88  C    6.000048
    89  C    5.999612
    90  C    6.000096
    91  C    6.000018
    92  C    5.999999
    93  H    1.000010
    94  N    7.000200
    95  C    5.999439
    96  C    5.999678
    97  C    5.999910
    98  C    5.999381
    99  C    6.000094
   100  C    5.999822
   101  O    7.999648
   102  C    6.000120
   103  N    7.000086
   104  C    5.999511
   105  C    6.000115
   106  C    5.999950
   107  C    6.000341
   108  C    6.000019
   109  C    5.999929
   110  C    5.999971
   111  N    6.999952
   112  C    6.000515
   113  C    6.000380
   114  C    6.000085
   115  C    6.000476
   116  C    5.999926
   117  C    6.000239
   118  O    8.000491
   119  C    6.000041
   120  C    6.000065
   121  O    8.000114
   122  O    7.999963
   123  C    5.999951
   124  H    0.999714
   125  H    1.000001
   126  H    1.000261
   127  H    0.999989
   128  H    0.999898
   129  H    0.999833
   130  H    0.999990
   131  H    0.999853
   132  H    1.000052
   133  H    0.999953
   134  H    0.999960
   135  H    1.000018
   136  H    0.999677
   137  H    0.999708
   138  H    0.999729
   139  H    0.999852
   140  H    0.999887
   141  H    0.999807
   142  H    0.999969
   143  H    1.000046
   144  H    1.000006
   145  H    1.000049
   146  H    0.999955
   147  H    0.999914
   148  H    1.000144
   149  H    1.000046
   150  H    1.000113
   151  H    1.000044
   152  H    1.000212
   153  H    1.000270
   154  H    1.000323
   155  H    1.000083
   156  H    1.000061
   157  H    1.000076
   158  H    1.000066
 Sum of Mulliken charges = 624.00000

 Dipole moment (field-independent basis, Debye):
    X=             -7.6166    Y=             -6.8767    Z=              3.5867  Tot=             10.8705
 Quadrupole moment (field-independent basis, Debye-Ang):
   XX=           -302.1335   YY=             -2.9258   ZZ=              4.2683
   XY=           -146.7404   XZ=             72.6047   YZ=             -2.0695

 Normal termination of Gaussian 16 at Wed Sep 22 12:14:33 2021.
