 Gaussian 16, Revision A.03,
 Gaussian 16:  ES64L-G16RevA.03 25-Dec-2016

 -----------------------------------
 #p cam-b3lyp/Def2SVP td=(nstates=5)
 -----------------------------------

 --------------------------------
 TDDFT excited states in gaussian
 --------------------------------
 Symbolic Z-matrix:
 Charge =  0 Multiplicity = 1

                         Standard orientation:
 ---------------------------------------------------------------------
 Center     Atomic      Atomic             Coordinates (Angstroms)
 Number     Number       Type             X           Y           Z
 ---------------------------------------------------------------------
      1         12           0      -26.316952    0.230836    0.247509
      2          6           0      -23.288099   -1.444023   -0.137753
      3          6           0      -27.971035   -2.533492   -0.959696
      4          6           0      -29.134004    2.084712    0.419874
      5          6           0      -24.459954    3.161275    1.104124
      6          7           0      -25.660430   -1.682388   -0.552522
      7          6           0      -24.395031   -2.180757   -0.595191
      8          6           0      -24.384547   -3.644113   -1.055804
      9          6           0      -25.914164   -3.867489   -1.438835
     10          6           0      -26.563102   -2.578909   -0.922772
     11          6           0      -26.110692   -4.033325   -2.940914
     12          6           0      -24.016896   -4.706505    0.040463
     13          6           0      -23.384131   -5.991814   -0.425914
     14          1           0      -23.443332   -6.354696   -1.842086
     15          7           0      -28.251406   -0.199158   -0.116232
     16          6           0      -28.734318   -1.420182   -0.627969
     17          6           0      -30.170363   -1.340914   -0.568556
     18          6           0      -30.557003   -0.049708   -0.128580
     19          6           0      -29.288022    0.689986    0.080784
     20          6           0      -31.082637   -2.407147   -1.136269
     21          6           0      -31.883014    0.528720    0.138996
     22          8           0      -32.068292    1.712869    0.322921
     23          6           0      -33.174547   -0.361202    0.036575
     24          7           0      -26.806728    2.328205    0.870318
     25          6           0      -28.012580    2.809869    0.819071
     26          6           0      -28.040306    4.319214    1.205917
     27          6           0      -26.590971    4.662828    1.498025
     28          6           0      -25.843536    3.340408    1.096815
     29          6           0      -28.785046    5.172847    0.074595
     30          6           0      -26.359085    5.127888    2.951241
     31          6           0      -26.340057    6.679797    3.216020
     32          7           0      -24.404083    0.722241    0.696143
     33          6           0      -23.779122    1.949898    1.028207
     34          6           0      -22.386711    1.784674    1.204863
     35          6           0      -22.162891    0.449242    0.660159
     36          6           0      -23.447658   -0.115246    0.416915
     37          6           0      -21.383116    2.892505    1.467802
     38          6           0      -21.099199   -0.424533    0.326579
     39          8           0      -19.884457   -0.325356    0.445893
     40          6           0      -21.860136   -1.825476   -0.162596
     41          6           0      -21.264940   -2.146010   -1.502210
     42          8           0      -21.304267   -1.395538   -2.482870
     43          8           0      -20.520654   -3.362917   -1.496268
     44          6           0      -19.886132   -3.743546   -2.796946
     45          1           0      -28.428971   -3.444592   -1.352241
     46          1           0      -30.051795    2.656437    0.269791
     47          1           0      -23.847832    4.011549    1.410861
     48          1           0      -23.735151   -3.681146   -1.930738
     49          1           0      -26.341245   -4.758614   -0.979022
     50          1           0      -25.164235   -4.231188   -3.443346
     51          1           0      -26.651518   -3.200035   -3.390333
     52          1           0      -26.633846   -4.948603   -3.217916
     53          1           0      -24.925465   -4.925172    0.600437
     54          1           0      -23.397856   -4.190030    0.774371
     55          1           0      -23.927936   -6.803716    0.056484
     56          1           0      -22.332229   -5.993892   -0.140144
     57          1           0      -31.643429   -2.072247   -2.008818
     58          1           0      -31.744485   -2.743537   -0.337111
     59          1           0      -30.594388   -3.306196   -1.511989
     60          1           0      -33.418739   -0.406204   -1.025083
     61          1           0      -34.025797    0.162274    0.472043
     62          1           0      -32.980748   -1.371484    0.394893
     63          1           0      -28.659801    4.327593    2.102915
     64          1           0      -26.192132    5.378274    0.780533
     65          1           0      -28.135480    5.964691   -0.298175
     66          1           0      -29.646694    5.728818    0.444664
     67          1           0      -28.995447    4.450240   -0.714943
     68          1           0      -25.390568    4.721260    3.244450
     69          1           0      -27.120249    4.638012    3.558673
     70          1           0      -25.326312    7.033668    3.025115
     71          1           0      -26.708297    7.057441    4.170091
     72          1           0      -26.939179    7.027872    2.375271
     73          1           0      -21.419984    3.006263    2.550907
     74          1           0      -21.687316    3.825826    0.995494
     75          1           0      -20.406517    2.785705    0.993882
     76          1           0      -21.686254   -2.598267    0.587200
     77          1           0      -19.139912   -3.013458   -3.108288
     78          1           0      -20.531055   -3.908149   -3.660537
     79          1           0      -19.372618   -4.649285   -2.474398
     80         12           0       26.482381   -0.114652   -0.165814
     81          6           0       23.023330    0.083015    0.215563
     82          6           0       26.296205    2.223728   -2.692056
     83          6           0       29.750981   -0.381041   -0.282397
     84          6           0       26.638551   -1.687822    3.117978
     85          7           0       24.733559    0.993135   -1.171327
     86          6           0       23.409660    0.945158   -0.835745
     87          6           0       22.598088    1.792680   -1.749964
     88          6           0       23.669290    2.515779   -2.660126
     89          6           0       25.033863    1.888344   -2.174240
     90          6           0       23.366782    2.468924   -4.179053
     91          6           0       21.702284    2.808170   -0.999798
     92          6           0       20.254137    2.707987   -1.475920
     93          1           0       19.559019    4.021434   -1.945681
     94          7           0       27.839953    0.780903   -1.358884
     95          6           0       27.593723    1.691561   -2.385333
     96          6           0       28.891033    1.944074   -2.999059
     97          6           0       29.935704    1.154996   -2.326643
     98          6           0       29.184284    0.388652   -1.282919
     99          6           0       29.096946    2.970046   -3.997469
    100          6           0       31.367927    1.331922   -2.619353
    101          8           0       31.803654    2.076974   -3.471979
    102          6           0       32.460517    0.691454   -1.836466
    103          7           0       27.907622   -0.857068    1.205852
    104          6           0       29.184273   -1.099925    0.766260
    105          6           0       29.996320   -1.758018    1.861757
    106          6           0       29.116398   -1.697402    3.053933
    107          6           0       27.834280   -1.339028    2.485319
    108          6           0       30.588403   -3.180835    1.497275
    109          6           0       29.502385   -0.549298    4.048557
    110          6           0       29.204081   -0.776164    5.458290
    111          7           0       25.133161   -0.735609    1.386146
    112          6           0       25.319367   -1.405142    2.602680
    113          6           0       24.050801   -1.849428    3.088707
    114          6           0       23.120698   -1.270137    2.233686
    115          6           0       23.833967   -0.550697    1.209573
    116          6           0       23.875306   -2.691746    4.298044
    117          6           0       21.742810   -1.085991    2.005405
    118          8           0       20.787874   -1.498881    2.624800
    119          6           0       21.618480   -0.274701    0.696453
    120          6           0       20.804080   -1.035494   -0.264487
    121          8           0       21.228378   -1.904048   -1.045247
    122          8           0       19.472072   -0.756774   -0.060665
    123          6           0       18.462847   -1.307490   -0.950579
    124          1           0       26.154845    2.918257   -3.522116
    125          1           0       30.830049   -0.510409   -0.167343
    126          1           0       26.732508   -2.184306    4.086056
    127          1           0       22.156342    1.082039   -2.449066
    128          1           0       23.738486    3.588558   -2.482606
    129          1           0       22.302194    2.232378   -4.195307
    130          1           0       23.993631    1.812274   -4.782446
    131          1           0       23.496560    3.460237   -4.612600
    132          1           0       21.944965    3.850741   -1.204524
    133          1           0       21.809567    2.581192    0.060741
    134          1           0       19.777122    2.458963   -0.528119
    135          1           0       20.204075    1.883182   -2.185226
    136          1           0       28.129406    3.419349   -4.222304
    137          1           0       29.448313    2.626413   -4.970843
    138          1           0       29.741352    3.748237   -3.586983
    139          1           0       32.075884   -0.328054   -1.808251
    140          1           0       32.480724    1.134397   -0.840379
    141          1           0       33.412398    0.748700   -2.364874
    142          1           0       30.860168   -1.100498    1.952209
    143          1           0       28.910029   -2.627536    3.583526
    144          1           0       30.467001   -3.383742    0.433067
    145          1           0       30.261524   -3.994925    2.145140
    146          1           0       31.676815   -3.214693    1.536568
    147          1           0       29.034589    0.379234    3.721075
    148          1           0       30.573491   -0.351654    4.009538
    149          1           0       30.042865   -1.306780    5.910141
    150          1           0       28.262163   -1.306512    5.602216
    151          1           0       29.270407    0.166314    6.002786
    152          1           0       24.659940   -3.444702    4.371008
    153          1           0       22.893815   -3.160194    4.372808
    154          1           0       24.077504   -2.003268    5.118595
    155          1           0       21.009216    0.622093    0.809752
    156          1           0       18.227509   -2.370241   -0.892417
    157          1           0       18.703153   -1.042912   -1.980114
    158          1           0       17.539511   -0.829270   -0.625802
 ---------------------------------------------------------------------

 SCF Done:  E(RCAM-B3LYP) =  -4069.81223690     A.U. after   19 cycles

 Excitation energies and oscillator strengths:

 Excited State   1:      Singlet-A      1.6751 eV  740.15 nm  f=0.3715  <S**2>=0.000
     309 -> 315       -0.18826
     311 -> 313        0.68339
     309 <- 315       -0.11090
 This state for optimization and/or second-order correction.
 Total Energy, E(TD-HF/TD-DFT) =  -4069.75067753
 Copying the excited state density for this state as the 1-particle RhoCI density.

 Excited State   2:      Singlet-A      1.7264 eV  718.15 nm  f=0.3715  <S**2>=0.000
     310 -> 316        0.17541
     312 -> 314        0.68642
     310 <- 316        0.10553

 Excited State   3:      Singlet-A      2.1859 eV  567.20 nm  f=0.1028  <S**2>=0.000
     309 -> 313        0.63557
     311 -> 315        0.29757

 Excited State   4:      Singlet-A      2.2226 eV  557.83 nm  f=0.1462  <S**2>=0.000
     310 -> 314        0.65064
     312 -> 316       -0.26125

 Excited State   5:      Singlet-A      3.1935 eV  388.24 nm  f=0.0000  <S**2>=0.000
     312 -> 313        0.70710

 The electronic state is 1-A.
 Alpha  occ. eigenvalues --  -46.88932 -46.87986 -19.24855 -19.24148 -19.19450
 Alpha  occ. eigenvalues --  -19.19351 -19.19271 -19.18345 -19.18219 -19.17371
 Alpha  occ. eigenvalues --  -14.42686 -14.42315 -14.41920 -14.41649 -14.40258
 Alpha  occ. eigenvalues --  -14.40169 -14.39351 -14.39158 -10.39077 -10.39063
 Alpha  occ. eigenvalues --  -10.35471 -10.34337 -10.34198 -10.33695 -10.31698
 Alpha  occ. eigenvalues --  -10.31662 -10.31609 -10.31608 -10.31561 -10.31559
 Alpha  occ. eigenvalues --  -10.31185 -10.31156 -10.31052 -10.31041 -10.30851
 Alpha  occ. eigenvalues --  -10.30809 -10.30692 -10.30464 -10.29856 -10.29699
 Alpha  occ. eigenvalues --  -10.29082 -10.28970 -10.28898 -10.28867 -10.28544
 Alpha  occ. eigenvalues --  -10.28537 -10.28485 -10.28360 -10.28304 -10.28209
 Alpha  occ. eigenvalues --  -10.28113 -10.28103 -10.28047 -10.27958 -10.27934
 Alpha  occ. eigenvalues --  -10.27847 -10.27798 -10.27770 -10.27768 -10.27757
 Alpha  occ. eigenvalues --  -10.27613 -10.27503 -10.27475 -10.27350 -10.27286
 Alpha  occ. eigenvalues --  -10.27198 -10.27162 -10.27130 -10.26879 -10.26809
 Alpha  occ. eigenvalues --  -10.26786 -10.26455 -10.26432 -10.26365 -10.26346
 Alpha  occ. eigenvalues --  -10.26327 -10.26212 -10.25994 -10.25860 -10.25852
 Alpha  occ. eigenvalues --  -10.25803 -10.25543 -10.25178 -10.24855 -10.24712
 Alpha  occ. eigenvalues --  -10.24531  -3.17422  -3.16681  -1.92325  -1.91886
 Alpha  occ. eigenvalues --   -1.91712  -1.91593  -1.91130  -1.91000  -1.15435
 Alpha  occ. eigenvalues --   -1.13445  -1.11126  -1.10045  -1.09834  -1.08625
 Alpha  occ. eigenvalues --   -1.06695  -1.05823  -1.05196  -1.04975  -1.03953
 Alpha  occ. eigenvalues --   -1.03791  -1.03381  -1.02977  -1.02426  -1.01561
 Alpha  occ. eigenvalues --   -0.92641  -0.92105  -0.90755  -0.89580  -0.89297
 Alpha  occ. eigenvalues --   -0.89040  -0.88979  -0.88412  -0.87770  -0.87698
 Alpha  occ. eigenvalues --   -0.87490  -0.87231  -0.86286  -0.86270  -0.85253
 Alpha  occ. eigenvalues --   -0.84533  -0.84335  -0.83444  -0.82992  -0.82561
 Alpha  occ. eigenvalues --   -0.82208  -0.81499  -0.81399  -0.80813  -0.80396
 Alpha  occ. eigenvalues --   -0.80032  -0.78794  -0.78660  -0.77965  -0.77275
 Alpha  occ. eigenvalues --   -0.77109  -0.76869  -0.76294  -0.75868  -0.75372
 Alpha  occ. eigenvalues --   -0.75067  -0.73399  -0.73127  -0.72022  -0.71624
 Alpha  occ. eigenvalues --   -0.69572  -0.69326  -0.69098  -0.68981  -0.67990
 Alpha  occ. eigenvalues --   -0.67980  -0.67504  -0.67295  -0.66457  -0.65918
 Alpha  occ. eigenvalues --   -0.65793  -0.65264  -0.65259  -0.64958  -0.64671
 Alpha  occ. eigenvalues --   -0.64616  -0.62019  -0.61401  -0.60728  -0.60356
 Alpha  occ. eigenvalues --   -0.59647  -0.59484  -0.59454  -0.59325  -0.58950
 Alpha  occ. eigenvalues --   -0.58538  -0.57905  -0.57787  -0.57399  -0.57359
 Alpha  occ. eigenvalues --   -0.56394  -0.56267  -0.55885  -0.55472  -0.55133
 Alpha  occ. eigenvalues --   -0.54981  -0.54634  -0.54419  -0.54229  -0.54011
 Alpha  occ. eigenvalues --   -0.53400  -0.53240  -0.53182  -0.52910  -0.52821
 Alpha  occ. eigenvalues --   -0.52536  -0.52497  -0.52377  -0.52280  -0.52263
 Alpha  occ. eigenvalues --   -0.52084  -0.52056  -0.51730  -0.51670  -0.51600
 Alpha  occ. eigenvalues --   -0.51273  -0.51218  -0.51025  -0.50567  -0.50402
 Alpha  occ. eigenvalues --   -0.50144  -0.49995  -0.49877  -0.49646  -0.49614
 Alpha  occ. eigenvalues --   -0.49519  -0.49375  -0.49293  -0.49106  -0.49090
 Alpha  occ. eigenvalues --   -0.48838  -0.48575  -0.48552  -0.48495  -0.48389
 Alpha  occ. eigenvalues --   -0.48153  -0.47662  -0.47610  -0.47506  -0.47222
 Alpha  occ. eigenvalues --   -0.47148  -0.47122  -0.46988  -0.46939  -0.46778
 Alpha  occ. eigenvalues --   -0.46715  -0.46589  -0.46303  -0.46198  -0.45779
 Alpha  occ. eigenvalues --   -0.45726  -0.45294  -0.45079  -0.45056  -0.44922
 Alpha  occ. eigenvalues --   -0.44695  -0.44573  -0.44543  -0.44466  -0.44262
 Alpha  occ. eigenvalues --   -0.44097  -0.44037  -0.43900  -0.43671  -0.43415
 Alpha  occ. eigenvalues --   -0.43380  -0.43218  -0.43051  -0.43026  -0.42955
 Alpha  occ. eigenvalues --   -0.42891  -0.42622  -0.42551  -0.42482  -0.42074
 Alpha  occ. eigenvalues --   -0.42005  -0.41845  -0.41653  -0.41568  -0.41502
 Alpha  occ. eigenvalues --   -0.41324  -0.41310  -0.41158  -0.40824  -0.40661
 Alpha  occ. eigenvalues --   -0.40270  -0.40253  -0.39870  -0.39436  -0.39202
 Alpha  occ. eigenvalues --   -0.38631  -0.38471  -0.37786  -0.37724  -0.37320
 Alpha  occ. eigenvalues --   -0.37238  -0.36992  -0.36960  -0.36372  -0.36305
 Alpha  occ. eigenvalues --   -0.36168  -0.35787  -0.34381  -0.34335  -0.33858
 Alpha  occ. eigenvalues --   -0.33699  -0.33519  -0.33016  -0.31667  -0.31371
 Alpha  occ. eigenvalues --   -0.31081  -0.30665  -0.30516  -0.29869  -0.29782
 Alpha  occ. eigenvalues --   -0.29647  -0.29489  -0.29430  -0.24298  -0.24195
 Alpha  occ. eigenvalues --   -0.21563  -0.21552
 Alpha virt. eigenvalues --   -0.09152  -0.09063  -0.02501  -0.01660   0.00205
 Alpha virt. eigenvalues --    0.00261   0.02360   0.02392   0.02686   0.03737
 Alpha virt. eigenvalues --    0.04101   0.04703   0.05004   0.05202   0.05472

 Mulliken charges:
               1
     1  Mg   0.837753
     2  C   -0.064343
     3  C   -0.101913
     4  C   -0.064643
     5  C   -0.069219
     6  N   -0.258950
     7  C   -0.042773
     8  C    0.004743
     9  C   -0.089121
    10  C    0.049844
    11  C    0.062950
    12  C    0.057716
    13  C   -0.049643
    14  H    0.021457
    15  N   -0.445160
    16  C    0.218493
    17  C   -0.136272
    18  C    0.001388
    19  C    0.123249
    20  C    0.099296
    21  C   -0.029024
    22  O   -0.193701
    23  C    0.055178
    24  N   -0.251928
    25  C    0.025412
    26  C   -0.042222
    27  C    0.006458
    28  C    0.003638
    29  C    0.061049
    30  C    0.040839
    31  C    0.012897
    32  N   -0.354117
    33  C    0.120110
    34  C   -0.140567
    35  C   -0.036375
    36  C    0.156030
    37  C    0.107127
    38  C    0.042568
    39  O   -0.174803
    40  C   -0.012626
    41  C    0.224437
    42  O   -0.232326
    43  O   -0.374592
    44  C    0.182349
    45  H   -0.020861
    46  H    0.005677
    47  H   -0.023866
    48  H    0.019839
    49  H    0.013828
    50  H    0.012099
    51  H    0.027928
    52  H    0.000686
    53  H    0.000794
    54  H    0.001731
    55  H    0.026177
    56  H    0.043856
    57  H    0.040760
    58  H    0.027835
    59  H    0.006502
    60  H    0.030782
    61  H    0.029459
    62  H    0.018270
    63  H    0.021899
    64  H    0.001251
    65  H    0.008332
    66  H    0.023164
    67  H    0.031266
    68  H    0.001448
    69  H    0.002355
    70  H    0.015186
    71  H    0.031746
    72  H    0.007751
    73  H    0.031018
    74  H    0.017747
    75  H    0.040068
    76  H    0.041931
    77  H    0.040479
    78  H    0.036935
    79  H    0.035266
    80  Mg   0.815965
    81  C    0.061277
    82  C   -0.041725
    83  C   -0.115237
    84  C   -0.090468
    85  N   -0.274134
    86  C   -0.072856
    87  C    0.029128
    88  C   -0.105821
    89  C    0.020206
    90  C    0.061870
    91  C    0.063527
    92  C   -0.082842
    93  H    0.023037
    94  N   -0.454282
    95  C    0.183542
    96  C   -0.155245
    97  C   -0.020268
    98  C    0.249183
    99  C    0.147986
   100  C   -0.059489
   101  O   -0.208417
   102  C    0.069710
   103  N   -0.300506
   104  C    0.044354
   105  C   -0.028471
   106  C   -0.022865
   107  C    0.032435
   108  C    0.076711
   109  C    0.046893
   110  C    0.037673
   111  N   -0.321491
   112  C    0.100625
   113  C   -0.177557
   114  C    0.038598
   115  C    0.077963
   116  C    0.134574
   117  C    0.030851
   118  O   -0.149589
   119  C   -0.065415
   120  C    0.186027
   121  O   -0.240191
   122  O   -0.329515
   123  C    0.188533
   124  H   -0.024510
   125  H   -0.026473
   126  H   -0.025936
   127  H    0.025430
   128  H    0.016566
   129  H    0.017447
   130  H    0.029692
   131  H    0.010081
   132  H    0.027901
   133  H    0.028714
   134  H    0.041926
   135  H    0.032859
   136  H   -0.022417
   137  H    0.032738
   138  H    0.041385
   139  H    0.021176
   140  H    0.040048
   141  H    0.031055
   142  H    0.007541
   143  H    0.001017
   144  H    0.012641
   145  H    0.023857
   146  H    0.005920
   147  H    0.014801
   148  H   -0.004829
   149  H    0.004469
   150  H    0.009401
   151  H    0.010866
   152  H    0.014694
   153  H    0.043152
   154  H    0.027830
   155  H    0.023757
   156  H    0.040297
   157  H    0.029974
   158  H    0.032643
 Sum of Mulliken charges =  -0.00000

 Dipole moment (field-independent basis, Debye):
    X=             -3.4823    Y=             -2.4237    Z=              1.2129  Tot=              4.4127
 Quadrupole moment (field-independent basis, Debye-Ang):
   XX=           -233.4482   YY=           -475.4652   ZZ=           -508.6501
   XY=             66.4978   XZ=             84.9002   YZ=              9.5628

 Normal termination of Gaussian 16 at Thu Sep 16 06:42:34 2021.
