 Gaussian 16, Revision A.03,
 Gaussian 16:  ES64L-G16RevA.03 25-Dec-2016

 -----------------------------------
 #p cam-b3lyp/Def2SVP td=(nstates=5)
 -----------------------------------

 --------------------------------
 TDDFT excited states in gaussian
 --------------------------------
 Symbolic Z-matrix:
 Charge =  0 Multiplicity = 1

                         Standard orientation:
 ---------------------------------------------------------------------
 Center     Atomic      Atomic             Coordinates (Angstroms)
 Number     Number       Type             X           Y           Z
 ---------------------------------------------------------------------
      1         12           0      -26.519697    0.283195   -0.561127
      2          6           0      -25.006342   -2.263192    1.351943
      3          6           0      -27.050876    2.039086    2.345092
      4          6           0      -28.044979    2.717446   -2.301373
      5          6           0      -26.476982   -1.780700   -3.386317
      6          7           0      -25.931734   -0.084239    1.512656
      7          6           0      -25.343473   -1.103803    2.131708
      8          6           0      -25.129396   -0.956432    3.652570
      9          6           0      -26.086655    0.315223    3.859364
     10          6           0      -26.423505    0.770814    2.460571
     11          6           0      -27.326570    0.017158    4.666893
     12          6           0      -23.588489   -0.663131    4.087481
     13          6           0      -23.264608   -1.136451    5.507522
     14          1           0      -22.153637   -2.215612    5.578402
     15          7           0      -27.299755    2.238368   -0.089177
     16          6           0      -27.460770    2.738951    1.226529
     17          6           0      -27.815980    4.134425    1.099223
     18          6           0      -28.090528    4.372355   -0.244506
     19          6           0      -27.800747    3.097092   -0.972192
     20          6           0      -28.070459    5.053305    2.279198
     21          6           0      -28.520695    5.624225   -0.974258
     22          8           0      -28.620951    5.611966   -2.166367
     23          6           0      -28.757856    6.918167   -0.261512
     24          7           0      -27.350457    0.391161   -2.490703
     25          6           0      -27.870297    1.538970   -3.014173
     26          6           0      -28.157620    1.244412   -4.512652
     27          6           0      -27.192941    0.144746   -4.918922
     28          6           0      -26.979056   -0.512578   -3.535105
     29          6           0      -29.591893    0.739218   -4.662591
     30          6           0      -25.949098    0.620054   -5.573861
     31          6           0      -25.189686    1.769839   -4.959555
     32          7           0      -25.860159   -1.617125   -1.004438
     33          6           0      -25.904721   -2.348878   -2.176203
     34          6           0      -25.273967   -3.657096   -1.942048
     35          6           0      -24.895507   -3.636156   -0.588384
     36          6           0      -25.260449   -2.418034   -0.083434
     37          6           0      -25.137242   -4.745983   -2.916510
     38          6           0      -24.155690   -4.318472    0.439241
     39          8           0      -23.534101   -5.421281    0.419065
     40          6           0      -24.192179   -3.391846    1.745029
     41          6           0      -24.885098   -4.194184    2.815749
     42          8           0      -25.912809   -4.775267    2.629057
     43          8           0      -24.267888   -4.170224    4.095751
     44          6           0      -25.111710   -4.684300    5.217139
     45          1           0      -27.275176    2.588227    3.261295
     46          1           0      -28.626271    3.438756   -2.880159
     47          1           0      -26.273523   -2.404475   -4.259527
     48          1           0      -25.411496   -1.879592    4.160362
     49          1           0      -25.456598    1.030333    4.389714
     50          1           0      -27.106437    0.334481    5.686054
     51          1           0      -27.658138   -1.016728    4.568448
     52          1           0      -28.048858    0.753233    4.314065
     53          1           0      -23.390809    0.408511    4.047894
     54          1           0      -22.896646   -1.106821    3.371239
     55          1           0      -24.242757   -1.475170    5.849603
     56          1           0      -23.023011   -0.306997    6.171881
     57          1           0      -27.574963    4.558601    3.113714
     58          1           0      -29.145871    4.959894    2.427699
     59          1           0      -27.652879    6.049194    2.129708
     60          1           0      -27.727514    7.175429   -0.015329
     61          1           0      -29.329681    6.830322    0.661889
     62          1           0      -29.222202    7.641344   -0.932836
     63          1           0      -28.092981    2.105728   -5.176623
     64          1           0      -27.580563   -0.572074   -5.642052
     65          1           0      -29.779439   -0.326413   -4.794734
     66          1           0      -30.031308    1.261368   -5.512455
     67          1           0      -30.154411    1.064350   -3.786656
     68          1           0      -26.107225    0.852019   -6.627355
     69          1           0      -25.294625   -0.251079   -5.550464
     70          1           0      -24.257842    1.341262   -4.589537
     71          1           0      -25.572927    2.379364   -4.140661
     72          1           0      -24.909442    2.454215   -5.760145
     73          1           0      -26.128229   -5.160035   -3.102234
     74          1           0      -24.435977   -5.431159   -2.440344
     75          1           0      -24.782096   -4.377795   -3.879950
     76          1           0      -23.147161   -3.142763    1.930329
     77          1           0      -25.128052   -5.774102    5.208992
     78          1           0      -26.138413   -4.316766    5.185854
     79          1           0      -24.745227   -4.479695    6.222678
     80         12           0       26.500792   -0.636083    0.309239
     81          6           0       25.612539    2.835437    0.386446
     82          6           0       23.148074   -1.298793   -0.606823
     83          6           0       27.436465   -3.750075   -0.520134
     84          6           0       29.814602    0.299338    0.548046
     85          7           0       24.564400    0.616920   -0.065069
     86          6           0       24.542834    1.981359    0.012516
     87          6           0       23.244465    2.505361   -0.580366
     88          6           0       22.427686    1.145971   -0.598161
     89          6           0       23.392863    0.036174   -0.422656
     90          6           0       21.263959    0.994930    0.438262
     91          6           0       23.529372    3.249704   -1.924211
     92          6           0       22.835163    4.642989   -2.216806
     93          1           0       21.882788    4.783333   -3.417912
     94          7           0       25.482271   -2.300078   -0.252955
     95          6           0       24.102915   -2.403717   -0.573288
     96          6           0       23.759378   -3.774880   -0.901998
     97          6           0       25.031472   -4.479039   -0.879642
     98          6           0       26.035238   -3.491563   -0.529670
     99          6           0       22.398294   -4.156601   -1.311759
    100          6           0       25.154115   -5.986583   -1.161820
    101          8           0       24.093807   -6.576776   -1.521383
    102          6           0       26.448296   -6.818838   -1.040425
    103          7           0       28.386648   -1.615330   -0.231102
    104          6           0       28.520193   -2.921660   -0.357565
    105          6           0       29.971348   -3.236121   -0.528156
    106          6           0       30.694104   -1.925120   -0.118249
    107          6           0       29.556040   -0.958793    0.001765
    108          6           0       30.597575   -4.507331    0.189582
    109          6           0       31.832891   -1.415132   -1.143924
    110          6           0       33.302140   -1.376280   -0.656842
    111          7           0       27.514528    1.103521    0.632424
    112          6           0       28.835169    1.339722    0.707930
    113          6           0       29.107078    2.713231    0.925699
    114          6           0       27.853336    3.324409    0.850516
    115          6           0       26.895407    2.303854    0.624458
    116          6           0       30.376734    3.421917    1.178653
    117          6           0       27.254171    4.622669    0.890363
    118          8           0       27.796819    5.700307    0.989234
    119          6           0       25.664017    4.335922    0.521459
    120          6           0       24.805901    4.803617    1.616517
    121          8           0       25.020552    4.630385    2.822930
    122          8           0       23.726501    5.430897    1.031765
    123          6           0       22.727380    5.987748    1.942246
    124          1           0       22.129087   -1.568253   -0.888773
    125          1           0       27.807547   -4.712248   -0.878280
    126          1           0       30.813712    0.615923    0.855254
    127          1           0       22.780245    3.115286    0.195039
    128          1           0       22.148241    1.156713   -1.652332
    129          1           0       21.467771    0.098783    1.026081
    130          1           0       20.281594    0.850590   -0.010891
    131          1           0       21.187060    1.790514    1.179994
    132          1           0       23.157803    2.498903   -2.621234
    133          1           0       24.579853    3.392955   -2.176330
    134          1           0       23.661624    5.347635   -2.307369
    135          1           0       22.374472    4.990174   -1.292466
    136          1           0       22.122593   -3.480600   -2.121490
    137          1           0       21.696164   -3.954019   -0.503277
    138          1           0       22.208233   -5.206403   -1.536660
    139          1           0       27.103005   -6.543167   -1.867308
    140          1           0       26.094407   -7.829640   -0.840269
    141          1           0       26.874732   -6.459607   -0.103225
    142          1           0       30.119234   -3.449489   -1.586065
    143          1           0       30.985462   -2.145908    0.908700
    144          1           0       31.423093   -4.801927   -0.458850
    145          1           0       29.822823   -5.268386    0.281298
    146          1           0       30.976940   -4.161902    1.151436
    147          1           0       31.489898   -0.421118   -1.430493
    148          1           0       31.722448   -1.989234   -2.063782
    149          1           0       33.790817   -0.425332   -0.864723
    150          1           0       33.848595   -2.186857   -1.139704
    151          1           0       33.418532   -1.604254    0.402842
    152          1           0       30.210171    4.403546    1.621099
    153          1           0       30.719530    3.473568    0.145086
    154          1           0       31.083902    2.704953    1.595568
    155          1           0       25.412601    4.715609   -0.468211
    156          1           0       23.182445    6.627589    2.698644
    157          1           0       22.165598    5.179062    2.412034
    158          1           0       22.039708    6.607606    1.366885
 ---------------------------------------------------------------------

 SCF Done:  E(RCAM-B3LYP) =  -4069.78640635     A.U. after   17 cycles

 Excitation energies and oscillator strengths:

 Excited State   1:      Singlet-A      1.6958 eV  731.15 nm  f=0.3246  <S**2>=0.000
     310 -> 315       -0.17339
     311 -> 313        0.68488
     310 <- 315       -0.10566
 This state for optimization and/or second-order correction.
 Total Energy, E(TD-HF/TD-DFT) =  -4069.72408868
 Copying the excited state density for this state as the 1-particle RhoCI density.

 Excited State   2:      Singlet-A      1.6990 eV  729.76 nm  f=0.4347  <S**2>=0.000
     309 -> 316       -0.18456
     312 -> 314        0.68256
     309 <- 316       -0.11103

 Excited State   3:      Singlet-A      2.1842 eV  567.65 nm  f=0.1186  <S**2>=0.000
     310 -> 313        0.64719
     311 -> 315        0.27033

 Excited State   4:      Singlet-A      2.2522 eV  550.49 nm  f=0.1328  <S**2>=0.000
     309 -> 314        0.64093
     312 -> 316        0.28919

 Excited State   5:      Singlet-A      3.1824 eV  389.59 nm  f=0.0000  <S**2>=0.000
     312 -> 313        0.70710

 The electronic state is 1-A.
 Alpha  occ. eigenvalues --  -46.88909 -46.88631 -19.26281 -19.24506 -19.20565
 Alpha  occ. eigenvalues --  -19.20051 -19.19744 -19.19091 -19.18248 -19.18133
 Alpha  occ. eigenvalues --  -14.43423 -14.41936 -14.41403 -14.41348 -14.39935
 Alpha  occ. eigenvalues --  -14.39829 -14.39715 -14.39064 -10.40102 -10.39405
 Alpha  occ. eigenvalues --  -10.35452 -10.35246 -10.35195 -10.34749 -10.32459
 Alpha  occ. eigenvalues --  -10.31858 -10.31690 -10.31280 -10.31193 -10.31128
 Alpha  occ. eigenvalues --  -10.30956 -10.30776 -10.30639 -10.30616 -10.30527
 Alpha  occ. eigenvalues --  -10.30402 -10.30330 -10.30312 -10.29758 -10.29446
 Alpha  occ. eigenvalues --  -10.29397 -10.29084 -10.28952 -10.28864 -10.28812
 Alpha  occ. eigenvalues --  -10.28736 -10.28564 -10.28395 -10.28375 -10.28317
 Alpha  occ. eigenvalues --  -10.28251 -10.28208 -10.28136 -10.28103 -10.27781
 Alpha  occ. eigenvalues --  -10.27628 -10.27593 -10.27537 -10.27521 -10.27489
 Alpha  occ. eigenvalues --  -10.27473 -10.27458 -10.27234 -10.27233 -10.27200
 Alpha  occ. eigenvalues --  -10.27134 -10.27127 -10.26998 -10.26787 -10.26701
 Alpha  occ. eigenvalues --  -10.26676 -10.26659 -10.26598 -10.26438 -10.26424
 Alpha  occ. eigenvalues --  -10.26408 -10.26238 -10.26077 -10.25628 -10.25405
 Alpha  occ. eigenvalues --  -10.25124 -10.25113 -10.25048 -10.24564 -10.24470
 Alpha  occ. eigenvalues --  -10.24434  -3.17463  -3.17126  -1.92353  -1.92048
 Alpha  occ. eigenvalues --   -1.91907  -1.91780  -1.91558  -1.91443  -1.16551
 Alpha  occ. eigenvalues --   -1.15621  -1.12126  -1.10825  -1.08175  -1.07388
 Alpha  occ. eigenvalues --   -1.07242  -1.06662  -1.05454  -1.05305  -1.04728
 Alpha  occ. eigenvalues --   -1.03745  -1.03546  -1.02943  -1.02342  -1.01777
 Alpha  occ. eigenvalues --   -0.93185  -0.92959  -0.90057  -0.89447  -0.89329
 Alpha  occ. eigenvalues --   -0.88841  -0.88287  -0.88135  -0.87975  -0.87857
 Alpha  occ. eigenvalues --   -0.87477  -0.86943  -0.86229  -0.86009  -0.84715
 Alpha  occ. eigenvalues --   -0.84639  -0.83862  -0.83581  -0.82731  -0.82639
 Alpha  occ. eigenvalues --   -0.82482  -0.82020  -0.81369  -0.81122  -0.80488
 Alpha  occ. eigenvalues --   -0.79931  -0.78921  -0.78225  -0.77650  -0.77355
 Alpha  occ. eigenvalues --   -0.77115  -0.76881  -0.76303  -0.76293  -0.75347
 Alpha  occ. eigenvalues --   -0.74998  -0.73199  -0.72466  -0.72217  -0.71342
 Alpha  occ. eigenvalues --   -0.69815  -0.69713  -0.69391  -0.68858  -0.68487
 Alpha  occ. eigenvalues --   -0.67851  -0.67132  -0.66753  -0.66157  -0.65838
 Alpha  occ. eigenvalues --   -0.65639  -0.65121  -0.64949  -0.64768  -0.64213
 Alpha  occ. eigenvalues --   -0.63418  -0.62964  -0.61777  -0.60393  -0.60147
 Alpha  occ. eigenvalues --   -0.59948  -0.59906  -0.59550  -0.59155  -0.58991
 Alpha  occ. eigenvalues --   -0.58921  -0.58618  -0.58435  -0.57603  -0.57596
 Alpha  occ. eigenvalues --   -0.56405  -0.56243  -0.55988  -0.55771  -0.55653
 Alpha  occ. eigenvalues --   -0.54863  -0.54795  -0.54551  -0.54507  -0.54099
 Alpha  occ. eigenvalues --   -0.53990  -0.53727  -0.53697  -0.53625  -0.53296
 Alpha  occ. eigenvalues --   -0.53053  -0.52940  -0.52635  -0.52445  -0.52100
 Alpha  occ. eigenvalues --   -0.51891  -0.51768  -0.51643  -0.51538  -0.51417
 Alpha  occ. eigenvalues --   -0.51232  -0.50850  -0.50742  -0.50584  -0.50340
 Alpha  occ. eigenvalues --   -0.50213  -0.50032  -0.50020  -0.49975  -0.49702
 Alpha  occ. eigenvalues --   -0.49596  -0.49570  -0.49412  -0.49218  -0.49085
 Alpha  occ. eigenvalues --   -0.48789  -0.48467  -0.48310  -0.48231  -0.47941
 Alpha  occ. eigenvalues --   -0.47745  -0.47743  -0.47660  -0.47655  -0.47594
 Alpha  occ. eigenvalues --   -0.47453  -0.47185  -0.47033  -0.46718  -0.46648
 Alpha  occ. eigenvalues --   -0.46457  -0.46365  -0.46130  -0.45936  -0.45887
 Alpha  occ. eigenvalues --   -0.45624  -0.45567  -0.45415  -0.45379  -0.45229
 Alpha  occ. eigenvalues --   -0.44984  -0.44967  -0.44542  -0.44330  -0.44180
 Alpha  occ. eigenvalues --   -0.43779  -0.43741  -0.43659  -0.43560  -0.43513
 Alpha  occ. eigenvalues --   -0.43278  -0.43165  -0.43117  -0.43087  -0.42950
 Alpha  occ. eigenvalues --   -0.42861  -0.42809  -0.42534  -0.42475  -0.42325
 Alpha  occ. eigenvalues --   -0.41832  -0.41568  -0.41527  -0.41230  -0.41107
 Alpha  occ. eigenvalues --   -0.41053  -0.40940  -0.40855  -0.40389  -0.40337
 Alpha  occ. eigenvalues --   -0.40282  -0.40230  -0.39756  -0.39533  -0.38928
 Alpha  occ. eigenvalues --   -0.38746  -0.38353  -0.38250  -0.37727  -0.37725
 Alpha  occ. eigenvalues --   -0.37640  -0.37294  -0.37138  -0.36449  -0.36440
 Alpha  occ. eigenvalues --   -0.36203  -0.35854  -0.35193  -0.34692  -0.34528
 Alpha  occ. eigenvalues --   -0.34114  -0.33215  -0.33019  -0.31723  -0.31379
 Alpha  occ. eigenvalues --   -0.31332  -0.31128  -0.30333  -0.30324  -0.30112
 Alpha  occ. eigenvalues --   -0.30019  -0.29370  -0.29339  -0.24172  -0.24153
 Alpha  occ. eigenvalues --   -0.21397  -0.21313
 Alpha virt. eigenvalues --   -0.08970  -0.08929  -0.01748  -0.01733   0.00281
 Alpha virt. eigenvalues --    0.00427   0.02163   0.02299   0.02424   0.03251
 Alpha virt. eigenvalues --    0.04245   0.04643   0.05006   0.05290   0.05609

 Mulliken charges:
               1
     1  Mg   0.813732
     2  C   -0.040349
     3  C   -0.100314
     4  C   -0.056113
     5  C   -0.065202
     6  N   -0.248661
     7  C   -0.044789
     8  C   -0.042264
     9  C   -0.088354
    10  C    0.097196
    11  C    0.104642
    12  C    0.047570
    13  C   -0.047311
    14  H    0.045019
    15  N   -0.365841
    16  C    0.130080
    17  C   -0.165500
    18  C   -0.010038
    19  C    0.116010
    20  C    0.118462
    21  C   -0.027543
    22  O   -0.177939
    23  C    0.053324
    24  N   -0.336439
    25  C    0.059174
    26  C   -0.036034
    27  C    0.001082
    28  C    0.092601
    29  C    0.078989
    30  C    0.053785
    31  C   -0.013968
    32  N   -0.352960
    33  C    0.068142
    34  C   -0.192110
    35  C    0.046578
    36  C    0.100695
    37  C    0.125869
    38  C    0.023008
    39  O   -0.217211
    40  C    0.037677
    41  C    0.193547
    42  O   -0.181809
    43  O   -0.372701
    44  C    0.178956
    45  H   -0.015780
    46  H   -0.006740
    47  H   -0.026806
    48  H    0.020227
    49  H    0.010230
    50  H    0.008607
    51  H    0.034975
    52  H    0.001628
    53  H    0.003169
    54  H    0.019046
    55  H    0.008184
    56  H    0.020930
    57  H    0.008447
    58  H    0.052493
    59  H    0.037120
    60  H    0.038108
    61  H    0.030887
    62  H    0.035322
    63  H   -0.003207
    64  H   -0.009954
    65  H    0.023925
    66  H    0.009692
    67  H    0.009334
    68  H    0.006474
    69  H   -0.008903
    70  H    0.008037
    71  H    0.038118
    72  H    0.006339
    73  H    0.030661
    74  H    0.042268
    75  H    0.013579
    76  H    0.046812
    77  H    0.037702
    78  H    0.032995
    79  H    0.033398
    80  Mg   0.845487
    81  C   -0.112927
    82  C   -0.073126
    83  C   -0.090978
    84  C   -0.092591
    85  N   -0.247132
    86  C   -0.075159
    87  C   -0.009317
    88  C   -0.029563
    89  C    0.035790
    90  C    0.076710
    91  C    0.033485
    92  C   -0.045951
    93  H    0.033764
    94  N   -0.393822
    95  C    0.113894
    96  C   -0.127918
    97  C   -0.056942
    98  C    0.207453
    99  C    0.128627
   100  C   -0.019433
   101  O   -0.248899
   102  C    0.082583
   103  N   -0.275364
   104  C   -0.016086
   105  C   -0.039370
   106  C   -0.051981
   107  C    0.065267
   108  C    0.078732
   109  C    0.053587
   110  C    0.008853
   111  N   -0.340877
   112  C    0.091979
   113  C   -0.194219
   114  C   -0.020902
   115  C    0.159309
   116  C    0.167678
   117  C    0.065258
   118  O   -0.152102
   119  C    0.021573
   120  C    0.224361
   121  O   -0.224394
   122  O   -0.341388
   123  C    0.178506
   124  H   -0.025584
   125  H   -0.057467
   126  H   -0.022573
   127  H   -0.004150
   128  H    0.003359
   129  H    0.016665
   130  H    0.023099
   131  H    0.015137
   132  H    0.006917
   133  H    0.030308
   134  H    0.025800
   135  H    0.020578
   136  H    0.025882
   137  H    0.010159
   138  H    0.043840
   139  H    0.062293
   140  H    0.038795
   141  H    0.023397
   142  H    0.011770
   143  H    0.009055
   144  H    0.018293
   145  H    0.020291
   146  H    0.011081
   147  H    0.009903
   148  H    0.000820
   149  H    0.024626
   150  H    0.014038
   151  H    0.012616
   152  H    0.056966
   153  H    0.022575
   154  H    0.007142
   155  H    0.030631
   156  H    0.047758
   157  H    0.034994
   158  H    0.038528
 Sum of Mulliken charges =  -0.00000

 Dipole moment (field-independent basis, Debye):
    X=             -0.4808    Y=              5.5364    Z=              2.1809  Tot=              5.9698
 Quadrupole moment (field-independent basis, Debye-Ang):
   XX=           -354.6012   YY=           -572.1415   ZZ=           -484.4925
   XY=           -207.5205   XZ=           -102.6925   YZ=              3.7706

 Normal termination of Gaussian 16 at Tue Sep 14 15:58:49 2021.
