 Gaussian 16, Revision A.03,
 Gaussian 16:  ES64L-G16RevA.03 25-Dec-2016

 -----------------------------------
 #p cam-b3lyp/Def2SVP td=(nstates=5)
 -----------------------------------

 --------------------------------
 TDDFT excited states in gaussian
 --------------------------------
 Symbolic Z-matrix:
 Charge =  0 Multiplicity = 1

                         Standard orientation:
 ---------------------------------------------------------------------
 Center     Atomic      Atomic             Coordinates (Angstroms)
 Number     Number       Type             X           Y           Z
 ---------------------------------------------------------------------
      1         12           0       21.521579    0.822801   -0.251301
      2          6           0       22.783065   -2.348902    0.826273
      3          6           0       18.889983   -0.858444   -1.626504
      4          6           0       20.625027    3.549231   -1.600153
      5          6           0       24.737895    2.088063    0.196009
      6          7           0       21.011994   -1.330293   -0.323096
      7          6           0       21.548030   -2.437789    0.180183
      8          6           0       20.637034   -3.691849    0.022727
      9          6           0       19.764362   -3.214211   -1.223187
     10          6           0       19.863943   -1.711613   -1.027724
     11          6           0       20.378548   -3.575882   -2.571694
     12          6           0       19.744935   -3.940939    1.285202
     13          6           0       19.072271   -5.315272    1.349103
     14          1           0       18.912357   -5.957087    2.645193
     15          7           0       19.779352    1.365651   -1.008141
     16          6           0       18.822375    0.546524   -1.506652
     17          6           0       17.719686    1.428267   -1.946294
     18          6           0       18.192073    2.836479   -1.837274
     19          6           0       19.577824    2.636520   -1.498028
     20          6           0       16.373741    0.918189   -2.361028
     21          6           0       17.506376    4.153298   -2.021498
     22          8           0       18.154916    5.251777   -2.107029
     23          6           0       16.042460    4.113754   -2.190103
     24          7           0       22.574236    2.519746   -0.859518
     25          6           0       21.937596    3.583810   -1.360955
     26          6           0       22.850420    4.769996   -1.459216
     27          6           0       24.189006    4.362634   -0.689803
     28          6           0       23.821248    2.900952   -0.334122
     29          6           0       23.199150    5.230117   -2.881427
     30          6           0       24.659711    5.302603    0.448315
     31          6           0       23.677889    5.248917    1.597332
     32          7           0       23.395614    0.087056    0.559696
     33          6           0       24.614562    0.777333    0.625718
     34          6           0       25.617387   -0.166324    1.152897
     35          6           0       24.911203   -1.352569    1.342559
     36          6           0       23.559350   -1.169577    0.933535
     37          6           0       27.001082    0.106826    1.340549
     38          6           0       24.989977   -2.739228    1.772476
     39          8           0       25.855291   -3.433121    2.308422
     40          6           0       23.645002   -3.474695    1.341248
     41          6           0       23.150258   -4.251519    2.530820
     42          8           0       22.746002   -3.664412    3.555148
     43          8           0       23.007735   -5.541813    2.191159
     44          6           0       22.491499   -6.363149    3.318572
     45          1           0       18.145944   -1.294939   -2.295696
     46          1           0       20.333535    4.538952   -1.957813
     47          1           0       25.742777    2.436284    0.441787
     48          1           0       21.168017   -4.611097   -0.225193
     49          1           0       18.727225   -3.538989   -1.142018
     50          1           0       21.380271   -3.989286   -2.455205
     51          1           0       20.414799   -2.642977   -3.134603
     52          1           0       19.719030   -4.238747   -3.132429
     53          1           0       18.861726   -3.304368    1.232472
     54          1           0       20.315860   -3.776117    2.199645
     55          1           0       19.512409   -6.008204    0.631445
     56          1           0       18.038738   -5.205273    1.020606
     57          1           0       16.379792   -0.162421   -2.498107
     58          1           0       16.174674    1.317037   -3.355513
     59          1           0       15.586796    1.231701   -1.674908
     60          1           0       15.796762    3.504939   -3.060463
     61          1           0       15.714957    5.152380   -2.219201
     62          1           0       15.601379    3.610227   -1.329373
     63          1           0       22.411859    5.642032   -0.975848
     64          1           0       25.046250    4.308075   -1.361242
     65          1           0       22.945678    6.271934   -3.079096
     66          1           0       22.696551    4.565386   -3.583438
     67          1           0       24.242929    5.093513   -3.162997
     68          1           0       24.689617    6.334433    0.099921
     69          1           0       25.649383    5.052969    0.831045
     70          1           0       22.907601    5.956459    1.292585
     71          1           0       24.157681    5.568786    2.522910
     72          1           0       23.207757    4.268293    1.673751
     73          1           0       27.267216   -0.317488    2.308588
     74          1           0       27.201166    1.177605    1.308887
     75          1           0       27.428749   -0.423220    0.489663
     76          1           0       23.897702   -4.124702    0.504136
     77          1           0       23.201554   -7.175188    3.475568
     78          1           0       21.465863   -6.630130    3.063236
     79          1           0       22.498250   -5.890947    4.301587
     80         12           0      -22.464046   -0.261504    0.272036
     81          6           0      -19.111870   -1.089060    0.358608
     82          6           0      -21.994733    1.542813    3.165911
     83          6           0      -25.615190    1.047132   -0.124156
     84          6           0      -22.825577   -1.993826   -2.680852
     85          7           0      -20.730267    0.336679    1.485218
     86          6           0      -19.466540   -0.202642    1.346614
     87          6           0      -18.516012    0.288171    2.435380
     88          6           0      -19.535445    0.842273    3.499266
     89          6           0      -20.800801    0.954890    2.661543
     90          6           0      -19.681615    0.032096    4.866188
     91          6           0      -17.405564    1.291391    1.987721
     92          6           0      -16.015814    1.015121    2.521417
     93          1           0      -15.572758    2.059042    3.534697
     94          7           0      -23.588863    1.099586    1.367586
     95          6           0      -23.243429    1.696214    2.514059
     96          6           0      -24.344228    2.487572    3.035802
     97          6           0      -25.429262    2.425398    2.177433
     98          6           0      -24.909886    1.543650    1.045572
     99          6           0      -24.217333    3.368823    4.368229
    100          6           0      -26.845493    3.056864    2.396590
    101          8           0      -27.035318    3.778274    3.416465
    102          6           0      -27.945023    2.874497    1.421708
    103          7           0      -23.984220   -0.250002   -1.367333
    104          6           0      -25.209335    0.195849   -1.210201
    105          6           0      -26.173801   -0.361079   -2.236394
    106          6           0      -25.336304   -1.293732   -3.175721
    107          6           0      -23.961783   -1.268806   -2.350411
    108          6           0      -27.586650   -0.857926   -1.792313
    109          6           0      -25.119741   -0.921551   -4.671197
    110          6           0      -24.667512   -2.096308   -5.513708
    111          7           0      -21.201214   -1.340300   -0.957425
    112          6           0      -21.507051   -2.085007   -2.119981
    113          6           0      -20.324313   -2.805628   -2.505071
    114          6           0      -19.334292   -2.485906   -1.544158
    115          6           0      -19.938654   -1.572168   -0.685200
    116          6           0      -20.231759   -3.897302   -3.560775
    117          6           0      -18.032553   -2.768463   -1.190960
    118          8           0      -17.124435   -3.380894   -1.683216
    119          6           0      -17.750171   -1.737094    0.021198
    120          6           0      -16.956725   -0.608507   -0.635525
    121          8           0      -17.426721    0.300888   -1.291790
    122          8           0      -15.620962   -0.843032   -0.351798
    123          6           0      -14.666892    0.064574   -0.980799
    124          1           0      -21.963812    1.961467    4.173832
    125          1           0      -26.611734    1.489395   -0.180170
    126          1           0      -22.827178   -2.690326   -3.521870
    127          1           0      -18.051467   -0.590608    2.881706
    128          1           0      -19.285452    1.893175    3.649382
    129          1           0      -20.680560    0.326581    5.187699
    130          1           0      -19.047449    0.398071    5.674033
    131          1           0      -19.563439   -1.050044    4.812141
    132          1           0      -17.769330    2.246622    2.366827
    133          1           0      -17.366117    1.544699    0.928498
    134          1           0      -15.339872    0.993778    1.666274
    135          1           0      -15.947669    0.054034    3.031473
    136          1           0      -23.233828    3.359323    4.839936
    137          1           0      -24.948699    3.047186    5.110436
    138          1           0      -24.322569    4.437362    4.185661
    139          1           0      -28.168103    1.812932    1.319634
    140          1           0      -27.761164    3.427420    0.500433
    141          1           0      -28.828992    3.214586    1.959760
    142          1           0      -26.494059    0.338726   -3.008555
    143          1           0      -25.575154   -2.348478   -3.037437
    144          1           0      -27.722006   -0.496397   -0.772029
    145          1           0      -27.741782   -1.928447   -1.931400
    146          1           0      -28.411864   -0.421065   -2.354881
    147          1           0      -24.423943   -0.082636   -4.673521
    148          1           0      -26.078494   -0.508456   -4.984469
    149          1           0      -25.061509   -1.948266   -6.519479
    150          1           0      -25.010936   -3.074185   -5.174117
    151          1           0      -23.585706   -2.047262   -5.638034
    152          1           0      -19.290472   -4.446802   -3.546316
    153          1           0      -20.400990   -3.431626   -4.530790
    154          1           0      -21.025253   -4.634519   -3.437872
    155          1           0      -17.294338   -2.241000    0.874043
    156          1           0      -14.695032   -0.071581   -2.062022
    157          1           0      -13.661367   -0.063706   -0.581554
    158          1           0      -14.980359    1.094156   -0.810489
 ---------------------------------------------------------------------

 SCF Done:  E(RCAM-B3LYP) =  -4069.81311211     A.U. after   18 cycles

 Excitation energies and oscillator strengths:

 Excited State   1:      Singlet-A      1.6799 eV  738.05 nm  f=0.3904  <S**2>=0.000
     310 -> 316        0.17553
     312 -> 313        0.68570
     310 <- 316        0.10513
 This state for optimization and/or second-order correction.
 Total Energy, E(TD-HF/TD-DFT) =  -4069.75137757
 Copying the excited state density for this state as the 1-particle RhoCI density.

 Excited State   2:      Singlet-A      1.8654 eV  664.66 nm  f=0.3709  <S**2>=0.000
     309 -> 315        0.14282
     311 -> 314        0.68808

 Excited State   3:      Singlet-A      2.1926 eV  565.47 nm  f=0.0987  <S**2>=0.000
     310 -> 313        0.64072
     312 -> 316       -0.27826

 Excited State   4:      Singlet-A      2.2639 eV  547.66 nm  f=0.1278  <S**2>=0.000
     309 -> 314        0.64676
     311 -> 315       -0.24685
     311 -> 318       -0.10319

 Excited State   5:      Singlet-A      3.2220 eV  384.81 nm  f=0.0000  <S**2>=0.000
     312 -> 314        0.70710

 The electronic state is 1-A.
 Alpha  occ. eigenvalues --  -46.89426 -46.87755 -19.26243 -19.24552 -19.20246
 Alpha  occ. eigenvalues --  -19.19904 -19.18979 -19.18772 -19.18129 -19.17747
 Alpha  occ. eigenvalues --  -14.42409 -14.42337 -14.42074 -14.41409 -14.40577
 Alpha  occ. eigenvalues --  -14.39361 -14.38546 -14.38515 -10.39120 -10.39038
 Alpha  occ. eigenvalues --  -10.37052 -10.35406 -10.34349 -10.33428 -10.33101
 Alpha  occ. eigenvalues --  -10.32443 -10.31746 -10.31638 -10.31364 -10.31180
 Alpha  occ. eigenvalues --  -10.31106 -10.30867 -10.30529 -10.30467 -10.30379
 Alpha  occ. eigenvalues --  -10.30166 -10.29881 -10.29829 -10.29820 -10.29590
 Alpha  occ. eigenvalues --  -10.29213 -10.29189 -10.28706 -10.28493 -10.28440
 Alpha  occ. eigenvalues --  -10.28416 -10.28369 -10.28329 -10.28323 -10.28088
 Alpha  occ. eigenvalues --  -10.28083 -10.28074 -10.27752 -10.27685 -10.27543
 Alpha  occ. eigenvalues --  -10.27543 -10.27462 -10.27444 -10.27437 -10.27411
 Alpha  occ. eigenvalues --  -10.27362 -10.27259 -10.27219 -10.27180 -10.27117
 Alpha  occ. eigenvalues --  -10.26980 -10.26963 -10.26941 -10.26881 -10.26807
 Alpha  occ. eigenvalues --  -10.26780 -10.26661 -10.26471 -10.26365 -10.26192
 Alpha  occ. eigenvalues --  -10.26146 -10.25979 -10.25972 -10.25826 -10.25805
 Alpha  occ. eigenvalues --  -10.25398 -10.25322 -10.24792 -10.24747 -10.24648
 Alpha  occ. eigenvalues --  -10.23128  -3.17865  -3.16498  -1.92748  -1.92326
 Alpha  occ. eigenvalues --   -1.92168  -1.91380  -1.90966  -1.90808  -1.16592
 Alpha  occ. eigenvalues --   -1.15493  -1.09829  -1.09167  -1.08587  -1.07938
 Alpha  occ. eigenvalues --   -1.07174  -1.06601  -1.04611  -1.04539  -1.03866
 Alpha  occ. eigenvalues --   -1.03720  -1.03218  -1.03193  -1.02575  -1.02370
 Alpha  occ. eigenvalues --   -0.91931  -0.91589  -0.89480  -0.89206  -0.89145
 Alpha  occ. eigenvalues --   -0.88524  -0.88247  -0.87994  -0.87830  -0.87631
 Alpha  occ. eigenvalues --   -0.87231  -0.87083  -0.86657  -0.85851  -0.84940
 Alpha  occ. eigenvalues --   -0.84530  -0.83897  -0.83659  -0.83232  -0.82925
 Alpha  occ. eigenvalues --   -0.82606  -0.82087  -0.81545  -0.80735  -0.80555
 Alpha  occ. eigenvalues --   -0.80249  -0.78755  -0.77669  -0.77186  -0.77177
 Alpha  occ. eigenvalues --   -0.76893  -0.76768  -0.75882  -0.75359  -0.75169
 Alpha  occ. eigenvalues --   -0.74858  -0.72733  -0.72420  -0.71721  -0.71631
 Alpha  occ. eigenvalues --   -0.69868  -0.69750  -0.69141  -0.68831  -0.67933
 Alpha  occ. eigenvalues --   -0.67600  -0.67381  -0.67176  -0.65641  -0.65504
 Alpha  occ. eigenvalues --   -0.65244  -0.64813  -0.64705  -0.64579  -0.64229
 Alpha  occ. eigenvalues --   -0.64070  -0.62257  -0.61733  -0.60400  -0.59996
 Alpha  occ. eigenvalues --   -0.59762  -0.59500  -0.59054  -0.58947  -0.58488
 Alpha  occ. eigenvalues --   -0.58463  -0.57870  -0.57544  -0.57418  -0.57268
 Alpha  occ. eigenvalues --   -0.56463  -0.56269  -0.55937  -0.55517  -0.55478
 Alpha  occ. eigenvalues --   -0.55300  -0.55069  -0.54483  -0.54211  -0.53948
 Alpha  occ. eigenvalues --   -0.53852  -0.53758  -0.53365  -0.53257  -0.53187
 Alpha  occ. eigenvalues --   -0.53180  -0.52873  -0.52741  -0.52713  -0.52399
 Alpha  occ. eigenvalues --   -0.52036  -0.51875  -0.51613  -0.51574  -0.51155
 Alpha  occ. eigenvalues --   -0.51055  -0.50832  -0.50556  -0.50529  -0.50182
 Alpha  occ. eigenvalues --   -0.50035  -0.49991  -0.49876  -0.49838  -0.49478
 Alpha  occ. eigenvalues --   -0.49472  -0.49173  -0.49056  -0.49054  -0.48734
 Alpha  occ. eigenvalues --   -0.48570  -0.48552  -0.48421  -0.48404  -0.48243
 Alpha  occ. eigenvalues --   -0.47653  -0.47608  -0.47391  -0.47255  -0.47202
 Alpha  occ. eigenvalues --   -0.46756  -0.46574  -0.46513  -0.46318  -0.46216
 Alpha  occ. eigenvalues --   -0.46159  -0.46122  -0.45986  -0.45782  -0.45245
 Alpha  occ. eigenvalues --   -0.45218  -0.45161  -0.45073  -0.44906  -0.44694
 Alpha  occ. eigenvalues --   -0.44537  -0.44464  -0.44303  -0.44104  -0.44046
 Alpha  occ. eigenvalues --   -0.43978  -0.43972  -0.43616  -0.43454  -0.43435
 Alpha  occ. eigenvalues --   -0.43344  -0.43110  -0.42986  -0.42731  -0.42658
 Alpha  occ. eigenvalues --   -0.42615  -0.42580  -0.42501  -0.42206  -0.42065
 Alpha  occ. eigenvalues --   -0.41969  -0.41663  -0.41631  -0.41491  -0.41100
 Alpha  occ. eigenvalues --   -0.40827  -0.40799  -0.40780  -0.40531  -0.40434
 Alpha  occ. eigenvalues --   -0.40190  -0.40181  -0.39892  -0.39402  -0.39295
 Alpha  occ. eigenvalues --   -0.39002  -0.38429  -0.38085  -0.37705  -0.37366
 Alpha  occ. eigenvalues --   -0.37280  -0.37221  -0.36672  -0.36514  -0.36355
 Alpha  occ. eigenvalues --   -0.36152  -0.35363  -0.34446  -0.34319  -0.34245
 Alpha  occ. eigenvalues --   -0.33729  -0.33145  -0.33104  -0.32464  -0.31905
 Alpha  occ. eigenvalues --   -0.31302  -0.30994  -0.30883  -0.29989  -0.29688
 Alpha  occ. eigenvalues --   -0.29408  -0.29281  -0.29128  -0.24093  -0.24039
 Alpha  occ. eigenvalues --   -0.21511  -0.21086
 Alpha virt. eigenvalues --   -0.08733  -0.08475  -0.01815  -0.01709  -0.00016
 Alpha virt. eigenvalues --    0.00091   0.01781   0.01968   0.02241   0.03165
 Alpha virt. eigenvalues --    0.04760   0.05139   0.05148   0.05806   0.06220

 Mulliken charges:
               1
     1  Mg   0.838726
     2  C   -0.002962
     3  C   -0.094082
     4  C   -0.045876
     5  C   -0.063973
     6  N   -0.256762
     7  C   -0.052478
     8  C   -0.014018
     9  C   -0.087003
    10  C    0.046315
    11  C    0.104815
    12  C    0.053472
    13  C   -0.071831
    14  H    0.036159
    15  N   -0.433142
    16  C    0.168432
    17  C   -0.177122
    18  C   -0.004008
    19  C    0.148733
    20  C    0.110166
    21  C    0.012303
    22  O   -0.249636
    23  C    0.062464
    24  N   -0.341132
    25  C    0.041238
    26  C   -0.028172
    27  C   -0.023953
    28  C    0.074823
    29  C    0.076181
    30  C    0.035139
    31  C   -0.004501
    32  N   -0.310454
    33  C    0.080397
    34  C   -0.169744
    35  C    0.008357
    36  C    0.082981
    37  C    0.127314
    38  C    0.046090
    39  O   -0.188487
    40  C   -0.005326
    41  C    0.212874
    42  O   -0.257091
    43  O   -0.304807
    44  C    0.157695
    45  H   -0.017567
    46  H   -0.016844
    47  H   -0.041534
    48  H    0.000927
    49  H   -0.003986
    50  H    0.025450
    51  H    0.016435
    52  H    0.016683
    53  H    0.011236
    54  H    0.044120
    55  H    0.017856
    56  H    0.017997
    57  H    0.005910
    58  H    0.026846
    59  H    0.039621
    60  H    0.037365
    61  H    0.035666
    62  H    0.031548
    63  H    0.016553
    64  H    0.009423
    65  H    0.023197
    66  H    0.012548
    67  H    0.004720
    68  H    0.006334
    69  H    0.004698
    70  H    0.008786
    71  H    0.018128
    72  H    0.029009
    73  H    0.047544
    74  H    0.009084
    75  H    0.045971
    76  H    0.035131
    77  H    0.042915
    78  H    0.046429
    79  H    0.053691
    80  Mg   0.828957
    81  C   -0.030259
    82  C   -0.118207
    83  C   -0.095988
    84  C   -0.030492
    85  N   -0.261079
    86  C   -0.046102
    87  C   -0.037678
    88  C   -0.022712
    89  C    0.032257
    90  C    0.082820
    91  C    0.069547
    92  C   -0.053101
    93  H    0.008474
    94  N   -0.381667
    95  C    0.167565
    96  C   -0.137028
    97  C   -0.024659
    98  C    0.115533
    99  C    0.116989
   100  C    0.007380
   101  O   -0.226532
   102  C    0.070454
   103  N   -0.264378
   104  C    0.101584
   105  C   -0.027390
   106  C   -0.054102
   107  C    0.007693
   108  C    0.065018
   109  C    0.060305
   110  C    0.025634
   111  N   -0.347630
   112  C    0.034462
   113  C   -0.140344
   114  C    0.052353
   115  C    0.114915
   116  C    0.104371
   117  C   -0.012347
   118  O   -0.157381
   119  C   -0.046267
   120  C    0.232172
   121  O   -0.211940
   122  O   -0.335443
   123  C    0.185520
   124  H   -0.025988
   125  H   -0.042704
   126  H   -0.041113
   127  H   -0.000730
   128  H    0.006120
   129  H    0.004954
   130  H    0.021630
   131  H    0.031775
   132  H   -0.004005
   133  H    0.028893
   134  H    0.025617
   135  H    0.027211
   136  H   -0.002838
   137  H    0.041109
   138  H    0.035902
   139  H    0.040807
   140  H    0.068742
   141  H    0.028232
   142  H    0.010249
   143  H    0.006691
   144  H    0.011358
   145  H    0.019379
   146  H    0.006955
   147  H    0.016827
   148  H    0.001365
   149  H    0.007789
   150  H    0.022111
   151  H    0.031307
   152  H    0.034162
   153  H    0.016125
   154  H    0.019413
   155  H    0.024826
   156  H    0.038206
   157  H    0.041614
   158  H    0.026733
 Sum of Mulliken charges =  -0.00000

 Dipole moment (field-independent basis, Debye):
    X=             -7.4957    Y=             -0.6640    Z=             -2.4274  Tot=              7.9069
 Quadrupole moment (field-independent basis, Debye-Ang):
   XX=           -454.9518   YY=           -521.2847   ZZ=           -511.3910
   XY=             37.9277   XZ=            -56.6808   YZ=              3.9371

 Normal termination of Gaussian 16 at Wed Sep  1 14:23:03 2021.
