 Gaussian 16, Revision A.03,
 Gaussian 16:  ES64L-G16RevA.03 25-Dec-2016

 -----------------------------------
 #p cam-b3lyp/Def2SVP td=(nstates=5)
 -----------------------------------

 --------------------------------
 TDDFT excited states in gaussian
 --------------------------------
 Symbolic Z-matrix:
 Charge =  0 Multiplicity = 1

                         Standard orientation:
 ---------------------------------------------------------------------
 Center     Atomic      Atomic             Coordinates (Angstroms)
 Number     Number       Type             X           Y           Z
 ---------------------------------------------------------------------
      1         12           0      -24.761789   -0.595867   -0.557482
      2          6           0      -26.093975    1.674460    1.868029
      3          6           0      -24.583026    2.044294   -2.711701
      4          6           0      -24.015479   -2.656510   -2.849511
      5          6           0      -26.087905   -3.188113    1.357547
      6          7           0      -25.298385    1.540085   -0.332945
      7          6           0      -25.743010    2.294856    0.666956
      8          6           0      -25.729737    3.818919    0.343802
      9          6           0      -25.791036    3.739397   -1.247398
     10          6           0      -25.154251    2.375383   -1.447140
     11          6           0      -27.211725    3.704097   -1.801382
     12          6           0      -24.417019    4.518838    0.832284
     13          6           0      -24.460815    6.049550    0.851132
     14          1           0      -23.754672    6.757362    1.908352
     15          7           0      -23.910354   -0.303227   -2.315968
     16          6           0      -23.923694    0.840503   -3.041909
     17          6           0      -23.153443    0.552228   -4.270848
     18          6           0      -22.852834   -0.906347   -4.287806
     19          6           0      -23.613154   -1.357376   -3.150324
     20          6           0      -22.739765    1.608236   -5.249351
     21          6           0      -22.021951   -1.760088   -5.192732
     22          8           0      -22.081927   -3.036939   -5.167633
     23          6           0      -21.190567   -1.052329   -6.183145
     24          7           0      -25.198708   -2.616350   -0.847974
     25          6           0      -24.703731   -3.285822   -1.894773
     26          6           0      -24.911220   -4.763841   -1.745288
     27          6           0      -25.438893   -4.987661   -0.254913
     28          6           0      -25.524667   -3.506779    0.189950
     29          6           0      -25.892588   -5.405456   -2.735873
     30          6           0      -24.643677   -5.979097    0.631149
     31          6           0      -23.271796   -5.415869    0.927483
     32          7           0      -25.737678   -0.776656    1.372803
     33          6           0      -26.227361   -1.950601    1.963344
     34          6           0      -26.898811   -1.556658    3.215555
     35          6           0      -26.766659   -0.170101    3.258457
     36          6           0      -26.080568    0.276571    2.093100
     37          6           0      -27.576065   -2.432509    4.109225
     38          6           0      -27.067069    1.040431    4.005600
     39          8           0      -27.547491    1.278148    5.114734
     40          6           0      -26.750923    2.294292    3.076239
     41          6           0      -25.947158    3.271808    3.889708
     42          8           0      -24.789339    2.993619    4.263116
     43          8           0      -26.568978    4.460850    3.897432
     44          6           0      -25.808790    5.484522    4.663177
     45          1           0      -24.700840    2.742092   -3.543049
     46          1           0      -23.680516   -3.413606   -3.561581
     47          1           0      -26.450942   -3.950987    2.048691
     48          1           0      -26.589970    4.371295    0.722358
     49          1           0      -25.184332    4.513292   -1.717205
     50          1           0      -27.948193    3.609032   -1.003574
     51          1           0      -27.246761    2.834144   -2.457468
     52          1           0      -27.400402    4.568110   -2.439080
     53          1           0      -23.631066    4.364812    0.092950
     54          1           0      -24.129632    4.154210    1.819088
     55          1           0      -25.482137    6.420223    0.759412
     56          1           0      -23.958017    6.416660   -0.043644
     57          1           0      -23.246189    2.553207   -5.056712
     58          1           0      -23.107082    1.297630   -6.227262
     59          1           0      -21.657391    1.732632   -5.285728
     60          1           0      -21.831333   -0.444537   -6.822330
     61          1           0      -20.598698   -1.819069   -6.681794
     62          1           0      -20.532310   -0.358088   -5.660004
     63          1           0      -23.975581   -5.305482   -1.878071
     64          1           0      -26.458669   -5.372832   -0.235595
     65          1           0      -25.458025   -6.218098   -3.318516
     66          1           0      -26.276835   -4.620063   -3.386106
     67          1           0      -26.810869   -5.785028   -2.288546
     68          1           0      -24.496602   -6.922533    0.106511
     69          1           0      -25.135730   -6.199639    1.578512
     70          1           0      -22.697189   -5.698056    0.045991
     71          1           0      -22.858335   -5.874502    1.826325
     72          1           0      -23.289330   -4.326665    0.970080
     73          1           0      -27.279588   -2.131973    5.114087
     74          1           0      -27.318363   -3.473377    3.914838
     75          1           0      -28.614051   -2.206765    3.865338
     76          1           0      -27.711405    2.708180    2.770800
     77          1           0      -26.480506    5.879522    5.425415
     78          1           0      -25.407394    6.184787    3.930431
     79          1           0      -24.990463    5.114426    5.281811
     80         12           0       24.985808   -0.832173    0.286559
     81          6           0       25.319610    2.359031   -1.486064
     82          6           0       23.878164    1.048525    3.027367
     83          6           0       24.998399   -3.578205    2.043469
     84          6           0       25.917816   -2.478233   -2.574172
     85          7           0       24.840876    1.421171    0.781573
     86          6           0       24.899383    2.561432   -0.124674
     87          6           0       24.603309    3.914589    0.556886
     88          6           0       24.345924    3.388292    2.085697
     89          6           0       24.360967    1.848848    2.011868
     90          6           0       25.329097    3.943990    3.097567
     91          6           0       23.426864    4.644404   -0.159266
     92          6           0       22.852285    5.815278    0.579922
     93          1           0       22.538669    7.093517   -0.165343
     94          7           0       24.525328   -1.247585    2.298194
     95          6           0       24.078657   -0.350801    3.275358
     96          6           0       23.812844   -1.070775    4.519410
     97          6           0       24.133308   -2.465027    4.254270
     98          6           0       24.581884   -2.518223    2.813765
     99          6           0       23.205351   -0.429128    5.820459
    100          6           0       24.121885   -3.661797    5.135519
    101          8           0       24.388086   -4.800806    4.775596
    102          6           0       23.655610   -3.547788    6.527625
    103          7           0       25.297641   -2.711199   -0.198256
    104          6           0       25.373541   -3.681580    0.714376
    105          6           0       25.713322   -5.058028    0.096103
    106          6           0       25.558150   -4.758260   -1.380413
    107          6           0       25.660468   -3.184255   -1.421244
    108          6           0       27.107406   -5.554640    0.461394
    109          6           0       24.377470   -5.226174   -2.191260
    110          6           0       23.049988   -4.648384   -1.749135
    111          7           0       25.609396   -0.234640   -1.608657
    112          6           0       25.864358   -1.063391   -2.716186
    113          6           0       26.181050   -0.236188   -3.854298
    114          6           0       25.891388    1.067763   -3.376418
    115          6           0       25.562002    1.035269   -2.007955
    116          6           0       26.511210   -0.657426   -5.256474
    117          6           0       25.806678    2.478380   -3.866412
    118          8           0       25.904655    2.951812   -5.018715
    119          6           0       25.468933    3.321875   -2.639069
    120          6           0       26.522277    4.415360   -2.449147
    121          8           0       27.758331    4.324036   -2.188942
    122          8           0       25.860854    5.607710   -2.462725
    123          6           0       26.691919    6.806405   -2.209115
    124          1           0       23.347204    1.607339    3.799581
    125          1           0       25.071259   -4.497885    2.627625
    126          1           0       26.245559   -2.932232   -3.511804
    127          1           0       25.491060    4.520979    0.377436
    128          1           0       23.313848    3.604265    2.361952
    129          1           0       24.769360    4.479172    3.865157
    130          1           0       25.959274    4.648511    2.555932
    131          1           0       26.121270    3.282271    3.447171
    132          1           0       22.719111    3.859453   -0.428047
    133          1           0       23.783604    5.011037   -1.121850
    134          1           0       23.452336    6.233574    1.387720
    135          1           0       21.868920    5.546504    0.964664
    136          1           0       22.253546   -0.942155    5.961197
    137          1           0       23.015430    0.640222    5.729414
    138          1           0       23.914078   -0.641428    6.621020
    139          1           0       24.038552   -2.671280    7.050708
    140          1           0       24.040504   -4.451586    6.998657
    141          1           0       22.587363   -3.358512    6.426631
    142          1           0       24.983816   -5.768966    0.484198
    143          1           0       26.372609   -5.178124   -1.971399
    144          1           0       27.051136   -6.624566    0.658526
    145          1           0       27.482105   -5.057550    1.355523
    146          1           0       27.767659   -5.493932   -0.404503
    147          1           0       24.393781   -6.316300   -2.205953
    148          1           0       24.431552   -4.849185   -3.212427
    149          1           0       22.274690   -5.410718   -1.681939
    150          1           0       22.647179   -3.926112   -2.459537
    151          1           0       23.072206   -4.168118   -0.770816
    152          1           0       25.856890   -0.139256   -5.957093
    153          1           0       26.472313   -1.707311   -5.546766
    154          1           0       27.538426   -0.344683   -5.445039
    155          1           0       24.538568    3.853714   -2.840270
    156          1           0       26.571090    7.125465   -1.174093
    157          1           0       26.282223    7.456850   -2.981897
    158          1           0       27.734720    6.658350   -2.492652
 ---------------------------------------------------------------------

 SCF Done:  E(RCAM-B3LYP) =  -4069.82378656     A.U. after   19 cycles

 Excitation energies and oscillator strengths:

 Excited State   1:      Singlet-A      1.6630 eV  745.53 nm  f=0.3890  <S**2>=0.000
     309 -> 316       -0.16580
     311 -> 313        0.68880
     309 <- 316       -0.10533
 This state for optimization and/or second-order correction.
 Total Energy, E(TD-HF/TD-DFT) =  -4069.76267157
 Copying the excited state density for this state as the 1-particle RhoCI density.

 Excited State   2:      Singlet-A      1.6799 eV  738.06 nm  f=0.3980  <S**2>=0.000
     310 -> 315        0.17554
     312 -> 314        0.68563
     310 <- 315        0.10512

 Excited State   3:      Singlet-A      2.1713 eV  571.01 nm  f=0.1370  <S**2>=0.000
     309 -> 313        0.65260
     311 -> 316        0.25470

 Excited State   4:      Singlet-A      2.1925 eV  565.48 nm  f=0.0992  <S**2>=0.000
     310 -> 314        0.64071
     312 -> 315       -0.27830

 Excited State   5:      Singlet-A      3.0295 eV  409.25 nm  f=0.0000  <S**2>=0.000
     312 -> 313        0.70711

 The electronic state is 1-A.
 Alpha  occ. eigenvalues --  -46.87790 -46.87764 -19.26278 -19.25767 -19.19642
 Alpha  occ. eigenvalues --  -19.19014 -19.18808 -19.18773 -19.18476 -19.18163
 Alpha  occ. eigenvalues --  -14.42508 -14.42443 -14.42173 -14.41443 -14.39966
 Alpha  occ. eigenvalues --  -14.39396 -14.38871 -14.38580 -10.39962 -10.39073
 Alpha  occ. eigenvalues --  -10.35441 -10.34746 -10.34658 -10.34383 -10.31982
 Alpha  occ. eigenvalues --  -10.31918 -10.31673 -10.31509 -10.31399 -10.31380
 Alpha  occ. eigenvalues --  -10.31103 -10.30902 -10.30701 -10.30625 -10.30563
 Alpha  occ. eigenvalues --  -10.30501 -10.30478 -10.30200 -10.29914 -10.29624
 Alpha  occ. eigenvalues --  -10.29272 -10.29248 -10.28972 -10.28964 -10.28887
 Alpha  occ. eigenvalues --  -10.28828 -10.28742 -10.28662 -10.28608 -10.28597
 Alpha  occ. eigenvalues --  -10.28531 -10.28358 -10.28260 -10.28110 -10.27786
 Alpha  occ. eigenvalues --  -10.27720 -10.27578 -10.27541 -10.27517 -10.27495
 Alpha  occ. eigenvalues --  -10.27474 -10.27443 -10.27397 -10.27394 -10.27152
 Alpha  occ. eigenvalues --  -10.27017 -10.26977 -10.26847 -10.26697 -10.26402
 Alpha  occ. eigenvalues --  -10.26292 -10.26228 -10.26178 -10.26013 -10.25906
 Alpha  occ. eigenvalues --  -10.25838 -10.25834 -10.25742 -10.25729 -10.25637
 Alpha  occ. eigenvalues --  -10.25429 -10.24826 -10.24781 -10.24713 -10.24681
 Alpha  occ. eigenvalues --  -10.24570  -3.16533  -3.16505  -1.91414  -1.91410
 Alpha  occ. eigenvalues --   -1.91001  -1.90971  -1.90843  -1.90807  -1.16627
 Alpha  occ. eigenvalues --   -1.16010  -1.10393  -1.08621  -1.07812  -1.07209
 Alpha  occ. eigenvalues --   -1.06636  -1.05771  -1.05060  -1.04574  -1.03754
 Alpha  occ. eigenvalues --   -1.03227  -1.02833  -1.02405  -1.02279  -1.00616
 Alpha  occ. eigenvalues --   -0.92315  -0.91966  -0.89703  -0.89513  -0.89181
 Alpha  occ. eigenvalues --   -0.88870  -0.88707  -0.88281  -0.87864  -0.87666
 Alpha  occ. eigenvalues --   -0.87332  -0.87267  -0.87010  -0.85890  -0.84975
 Alpha  occ. eigenvalues --   -0.84780  -0.84062  -0.83930  -0.82960  -0.82951
 Alpha  occ. eigenvalues --   -0.82642  -0.82309  -0.81579  -0.81430  -0.80590
 Alpha  occ. eigenvalues --   -0.80086  -0.78790  -0.78531  -0.77282  -0.77212
 Alpha  occ. eigenvalues --   -0.76928  -0.76821  -0.75976  -0.75917  -0.75508
 Alpha  occ. eigenvalues --   -0.74892  -0.72772  -0.72768  -0.71962  -0.71666
 Alpha  occ. eigenvalues --   -0.70308  -0.69901  -0.69457  -0.68866  -0.67645
 Alpha  occ. eigenvalues --   -0.67635  -0.67213  -0.67152  -0.65280  -0.65073
 Alpha  occ. eigenvalues --   -0.64847  -0.64672  -0.64614  -0.64338  -0.64263
 Alpha  occ. eigenvalues --   -0.63833  -0.62291  -0.61951  -0.60435  -0.60238
 Alpha  occ. eigenvalues --   -0.59797  -0.59173  -0.59092  -0.58981  -0.58497
 Alpha  occ. eigenvalues --   -0.58333  -0.57729  -0.57578  -0.57411  -0.57302
 Alpha  occ. eigenvalues --   -0.56303  -0.56291  -0.55999  -0.55972  -0.55513
 Alpha  occ. eigenvalues --   -0.55492  -0.55333  -0.55310  -0.54815  -0.54517
 Alpha  occ. eigenvalues --   -0.54300  -0.53888  -0.53471  -0.53292  -0.53215
 Alpha  occ. eigenvalues --   -0.53084  -0.52908  -0.52749  -0.52738  -0.52508
 Alpha  occ. eigenvalues --   -0.52432  -0.52139  -0.51909  -0.51610  -0.51190
 Alpha  occ. eigenvalues --   -0.51156  -0.50843  -0.50742  -0.50565  -0.50396
 Alpha  occ. eigenvalues --   -0.50197  -0.50025  -0.49911  -0.49803  -0.49531
 Alpha  occ. eigenvalues --   -0.49508  -0.49208  -0.49089  -0.48852  -0.48821
 Alpha  occ. eigenvalues --   -0.48586  -0.48554  -0.48458  -0.48455  -0.48439
 Alpha  occ. eigenvalues --   -0.48088  -0.47728  -0.47688  -0.47576  -0.47290
 Alpha  occ. eigenvalues --   -0.47029  -0.46791  -0.46767  -0.46548  -0.46531
 Alpha  occ. eigenvalues --   -0.46353  -0.46164  -0.46156  -0.46010  -0.45816
 Alpha  occ. eigenvalues --   -0.45712  -0.45451  -0.45195  -0.44954  -0.44571
 Alpha  occ. eigenvalues --   -0.44544  -0.44500  -0.44365  -0.44191  -0.44138
 Alpha  occ. eigenvalues --   -0.44081  -0.44013  -0.43986  -0.43499  -0.43489
 Alpha  occ. eigenvalues --   -0.43379  -0.43192  -0.43021  -0.42693  -0.42649
 Alpha  occ. eigenvalues --   -0.42644  -0.42514  -0.42211  -0.42003  -0.41860
 Alpha  occ. eigenvalues --   -0.41765  -0.41697  -0.41527  -0.41214  -0.41134
 Alpha  occ. eigenvalues --   -0.40966  -0.40862  -0.40816  -0.40565  -0.40472
 Alpha  occ. eigenvalues --   -0.40227  -0.39963  -0.39435  -0.39239  -0.39115
 Alpha  occ. eigenvalues --   -0.38904  -0.38463  -0.37741  -0.37342  -0.37314
 Alpha  occ. eigenvalues --   -0.37257  -0.37139  -0.36776  -0.36707  -0.36531
 Alpha  occ. eigenvalues --   -0.36186  -0.36121  -0.34315  -0.34279  -0.34107
 Alpha  occ. eigenvalues --   -0.33764  -0.33180  -0.33079  -0.31523  -0.31337
 Alpha  occ. eigenvalues --   -0.31279  -0.31029  -0.30410  -0.30327  -0.30023
 Alpha  occ. eigenvalues --   -0.29442  -0.29315  -0.29183  -0.24260  -0.24074
 Alpha  occ. eigenvalues --   -0.21487  -0.21121
 Alpha virt. eigenvalues --   -0.09303  -0.08768  -0.01743  -0.01671  -0.00051
 Alpha virt. eigenvalues --    0.00321   0.02180   0.02207   0.03128   0.03358
 Alpha virt. eigenvalues --    0.04499   0.04724   0.05104   0.05150   0.05725

 Mulliken charges:
               1
     1  Mg   0.838709
     2  C   -0.002960
     3  C   -0.094106
     4  C   -0.045855
     5  C   -0.063937
     6  N   -0.256771
     7  C   -0.052460
     8  C   -0.014002
     9  C   -0.087025
    10  C    0.046337
    11  C    0.104811
    12  C    0.053472
    13  C   -0.071811
    14  H    0.036136
    15  N   -0.433130
    16  C    0.168423
    17  C   -0.177145
    18  C   -0.003993
    19  C    0.148707
    20  C    0.110178
    21  C    0.012291
    22  O   -0.249622
    23  C    0.062472
    24  N   -0.341138
    25  C    0.041242
    26  C   -0.028193
    27  C   -0.023945
    28  C    0.074818
    29  C    0.076183
    30  C    0.035120
    31  C   -0.004499
    32  N   -0.310462
    33  C    0.080383
    34  C   -0.169715
    35  C    0.008345
    36  C    0.082978
    37  C    0.127311
    38  C    0.046116
    39  O   -0.188464
    40  C   -0.005336
    41  C    0.212869
    42  O   -0.257100
    43  O   -0.304796
    44  C    0.157695
    45  H   -0.017593
    46  H   -0.016835
    47  H   -0.041508
    48  H    0.000932
    49  H   -0.004019
    50  H    0.025468
    51  H    0.016447
    52  H    0.016664
    53  H    0.011218
    54  H    0.044118
    55  H    0.017862
    56  H    0.017963
    57  H    0.005882
    58  H    0.026831
    59  H    0.039578
    60  H    0.037349
    61  H    0.035662
    62  H    0.031520
    63  H    0.016562
    64  H    0.009447
    65  H    0.023210
    66  H    0.012547
    67  H    0.004744
    68  H    0.006358
    69  H    0.004717
    70  H    0.008785
    71  H    0.018136
    72  H    0.028993
    73  H    0.047556
    74  H    0.009102
    75  H    0.045996
    76  H    0.035143
    77  H    0.042932
    78  H    0.046410
    79  H    0.053686
    80  Mg   0.833754
    81  C   -0.021278
    82  C   -0.080156
    83  C   -0.082731
    84  C   -0.070324
    85  N   -0.301404
    86  C   -0.047357
    87  C   -0.021597
    88  C   -0.058519
    89  C    0.064041
    90  C    0.100736
    91  C    0.032555
    92  C   -0.071169
    93  H    0.011785
    94  N   -0.386354
    95  C    0.147004
    96  C   -0.156160
    97  C   -0.010697
    98  C    0.125012
    99  C    0.113800
   100  C   -0.027325
   101  O   -0.211678
   102  C    0.063956
   103  N   -0.345421
   104  C    0.087688
   105  C   -0.030099
   106  C   -0.026320
   107  C    0.096075
   108  C    0.087955
   109  C    0.059798
   110  C   -0.013218
   111  N   -0.360274
   112  C    0.064914
   113  C   -0.139137
   114  C   -0.053529
   115  C    0.135964
   116  C    0.107476
   117  C    0.083454
   118  O   -0.200412
   119  C    0.008592
   120  C    0.216119
   121  O   -0.257645
   122  O   -0.336366
   123  C    0.163766
   124  H   -0.033243
   125  H   -0.005306
   126  H   -0.025207
   127  H    0.025816
   128  H    0.008743
   129  H    0.023476
   130  H    0.000239
   131  H    0.025558
   132  H    0.009580
   133  H    0.036929
   134  H    0.030378
   135  H    0.032706
   136  H    0.039159
   137  H    0.020305
   138  H    0.045787
   139  H    0.005839
   140  H    0.040887
   141  H    0.037721
   142  H    0.013770
   143  H   -0.013277
   144  H    0.012824
   145  H    0.026533
   146  H    0.015536
   147  H    0.009186
   148  H    0.004000
   149  H    0.005195
   150  H    0.012486
   151  H    0.021973
   152  H    0.039101
   153  H    0.005109
   154  H    0.032607
   155  H    0.049788
   156  H    0.048530
   157  H    0.042661
   158  H    0.059335
 Sum of Mulliken charges =  -0.00000

 Dipole moment (field-independent basis, Debye):
    X=             -3.1226    Y=              2.5637    Z=              0.2643  Tot=              4.0488
 Quadrupole moment (field-independent basis, Debye-Ang):
   XX=           -661.5549   YY=           -464.3976   ZZ=           -533.3742
   XY=            -38.4737   XZ=            216.1392   YZ=             11.5131

 Normal termination of Gaussian 16 at Wed Sep  1 13:50:39 2021.
