 Gaussian 16, Revision A.03,
 Gaussian 16:  ES64L-G16RevA.03 25-Dec-2016

 ----------------------------------------------------------
 #p cam-b3lyp/Def2SVP td=(nstates=5) density=(transition=1)
 ----------------------------------------------------------

 --------------------------------
 TDDFT excited states in gaussian
 --------------------------------
 Symbolic Z-matrix:
 Charge =  0 Multiplicity = 1

                         Standard orientation:
 ---------------------------------------------------------------------
 Center     Atomic      Atomic             Coordinates (Angstroms)
 Number     Number       Type             X           Y           Z
 ---------------------------------------------------------------------
      1         12           0       24.949256    0.325674   -0.392176
      2          6           0       23.473501   -1.580000    2.216418
      3          6           0       23.421302    3.131703    1.125577
      4          6           0       25.934292    2.144283   -2.915409
      5          6           0       26.090125   -2.627695   -1.831836
      6          7           0       23.564803    0.736693    1.494064
      7          6           0       23.225000   -0.227636    2.410959
      8          6           0       22.509270    0.331043    3.629128
      9          6           0       22.398638    1.848689    3.172231
     10          6           0       23.206590    1.938792    1.868479
     11          6           0       20.942369    2.302216    3.129718
     12          6           0       23.359765    0.131596    4.902865
     13          6           0       22.622443   -0.182891    6.260058
     14          1           0       21.123831    0.182312    6.376693
     15          7           0       24.783655    2.380304   -0.810330
     16          6           0       24.050251    3.332288   -0.101562
     17          6           0       24.208145    4.627979   -0.780950
     18          6           0       25.033846    4.360997   -1.921405
     19          6           0       25.305030    2.911650   -1.867815
     20          6           0       23.550075    5.828466   -0.351692
     21          6           0       25.523478    5.334980   -2.988351
     22          8           0       26.156905    4.934542   -3.977881
     23          6           0       25.411872    6.795222   -2.786970
     24          7           0       25.792304   -0.186760   -2.182710
     25          6           0       26.202978    0.767055   -3.022638
     26          6           0       26.853675    0.147413   -4.301902
     27          6           0       27.067833   -1.332998   -3.853065
     28          6           0       26.282970   -1.433304   -2.582776
     29          6           0       26.021606    0.357869   -5.617891
     30          6           0       28.615450   -1.461698   -3.581898
     31          6           0       29.186701   -1.243652   -2.138466
     32          7           0       24.926723   -1.679471    0.100159
     33          6           0       25.434187   -2.778583   -0.616179
     34          6           0       25.071332   -4.017476    0.115841
     35          6           0       24.274819   -3.576873    1.166296
     36          6           0       24.212659   -2.199529    1.182326
     37          6           0       25.288980   -5.319030   -0.491622
     38          6           0       23.401929   -4.088819    2.219870
     39          8           0       23.144332   -5.258102    2.482780
     40          6           0       22.805459   -2.797430    2.953600
     41          6           0       21.322934   -2.792541    2.910897
     42          8           0       20.623814   -2.230585    2.072710
     43          8           0       20.830718   -3.526267    4.006822
     44          6           0       19.414353   -3.744362    4.195682
     45          1           0       23.201595    4.066256    1.646716
     46          1           0       26.308689    2.696524   -3.780317
     47          1           0       26.536753   -3.475618   -2.354730
     48          1           0       21.526972   -0.116878    3.781531
     49          1           0       22.813948    2.435629    3.990995
     50          1           0       20.718369    3.185530    3.726753
     51          1           0       20.198141    1.555839    3.407574
     52          1           0       20.753671    2.631361    2.107013
     53          1           0       23.997121    0.997283    5.082643
     54          1           0       23.997048   -0.694156    4.584571
     55          1           0       23.061982    0.395732    7.071837
     56          1           0       22.930737   -1.195617    6.519710
     57          1           0       24.329185    6.585389   -0.259092
     58          1           0       22.867786    5.625887    0.473301
     59          1           0       22.871340    5.983024   -1.191054
     60          1           0       24.392468    7.171139   -2.879256
     61          1           0       25.986527    7.310384   -3.556462
     62          1           0       25.676831    7.005440   -1.751173
     63          1           0       27.748582    0.769011   -4.332139
     64          1           0       26.803173   -2.038847   -4.640761
     65          1           0       26.399767    1.222251   -6.163889
     66          1           0       24.974794    0.408284   -5.320061
     67          1           0       26.169129   -0.545423   -6.209602
     68          1           0       29.161693   -0.935510   -4.365000
     69          1           0       28.780047   -2.538360   -3.633789
     70          1           0       30.072465   -0.633037   -2.311188
     71          1           0       29.504315   -2.171155   -1.660321
     72          1           0       28.549695   -0.692298   -1.447696
     73          1           0       24.906223   -5.293109   -1.511082
     74          1           0       24.688317   -6.028705    0.078199
     75          1           0       26.312123   -5.658799   -0.333190
     76          1           0       23.134484   -2.924510    3.985421
     77          1           0       19.068650   -4.702556    3.808564
     78          1           0       18.838279   -2.852285    3.949373
     79          1           0       19.350997   -3.712220    5.283740
     80         12           0      -24.552562    0.592093    0.276668
     81          6           0      -23.298842   -2.428975   -0.927859
     82          6           0      -21.479841    2.047354   -0.293577
     83          6           0      -25.966289    3.352984    1.347722
     84          6           0      -27.909497   -0.749398   -0.185853
     85          7           0      -22.540451   -0.211295   -0.499608
     86          6           0      -22.264017   -1.466849   -0.963066
     87          6           0      -20.833076   -1.587580   -1.351100
     88          6           0      -20.261962   -0.123121   -1.183970
     89          6           0      -21.494271    0.678131   -0.608446
     90          6           0      -18.927832   -0.033147   -0.401124
     91          6           0      -20.638393   -2.119136   -2.791926
     92          6           0      -19.676142   -3.305614   -2.806043
     93          1           0      -18.462362   -3.235646   -3.781157
     94          7           0      -23.805409    2.448896    0.526633
     95          6           0      -22.500086    2.874859    0.285363
     96          6           0      -22.457273    4.262784    0.727250
     97          6           0      -23.769188    4.670794    1.255010
     98          6           0      -24.602457    3.433495    1.128412
     99          6           0      -21.320787    5.124646    0.487591
    100          6           0      -24.073713    6.065071    1.617639
    101          8           0      -23.268060    6.971477    1.581816
    102          6           0      -25.434291    6.550977    1.977622
    103          7           0      -26.571631    1.179466    0.482368
    104          6           0      -26.863134    2.295513    1.225014
    105          6           0      -28.362776    2.452827    1.362672
    106          6           0      -28.922047    1.419558    0.457800
    107          6           0      -27.768538    0.595770    0.163914
    108          6           0      -28.905061    2.451584    2.850537
    109          6           0      -29.418492    2.000404   -0.910618
    110          6           0      -30.519645    1.297537   -1.559646
    111          7           0      -25.480020   -1.228629   -0.386169
    112          6           0      -26.814083   -1.650817   -0.456405
    113          6           0      -26.844830   -3.064054   -0.667806
    114          6           0      -25.520708   -3.416834   -0.900131
    115          6           0      -24.706123   -2.237557   -0.755523
    116          6           0      -28.089082   -3.873012   -0.682572
    117          6           0      -24.671789   -4.481893   -1.260105
    118          8           0      -24.931338   -5.641472   -1.492574
    119          6           0      -23.231686   -3.922712   -1.239405
    120          6           0      -22.420473   -4.719781   -0.305556
    121          8           0      -22.328587   -4.528601    0.918784
    122          8           0      -21.900626   -5.810795   -0.963523
    123          6           0      -20.977256   -6.705420   -0.284698
    124          1           0      -20.466132    2.424253   -0.440872
    125          1           0      -26.573684    4.209052    1.651992
    126          1           0      -28.933034   -1.117094   -0.284193
    127          1           0      -20.371755   -2.103185   -0.508349
    128          1           0      -19.995318    0.350640   -2.128219
    129          1           0      -18.556077   -1.056819   -0.459942
    130          1           0      -18.978755    0.381087    0.605866
    131          1           0      -18.228101    0.608830   -0.935679
    132          1           0      -20.150356   -1.413257   -3.463727
    133          1           0      -21.631773   -2.383109   -3.154259
    134          1           0      -20.337699   -4.059984   -3.231660
    135          1           0      -19.420943   -3.526346   -1.770631
    136          1           0      -20.541647    4.528995    0.011462
    137          1           0      -20.827547    5.523355    1.374577
    138          1           0      -21.608609    5.916414   -0.204941
    139          1           0      -25.709921    5.774721    2.691476
    140          1           0      -26.064157    6.512509    1.088473
    141          1           0      -25.392378    7.533982    2.447212
    142          1           0      -28.536039    3.462883    0.993196
    143          1           0      -29.641343    0.713364    0.872659
    144          1           0      -28.078716    2.520978    3.558200
    145          1           0      -29.620572    1.660851    3.078806
    146          1           0      -29.416300    3.375107    3.120853
    147          1           0      -28.574238    2.069292   -1.596723
    148          1           0      -29.764428    3.026758   -0.789053
    149          1           0      -31.459907    1.690644   -1.171503
    150          1           0      -30.449753    0.216098   -1.438000
    151          1           0      -30.600822    1.623081   -2.597227
    152          1           0      -28.791932   -3.528676    0.075948
    153          1           0      -27.921183   -4.945528   -0.583196
    154          1           0      -28.554838   -3.605259   -1.631029
    155          1           0      -22.695058   -4.098850   -2.171758
    156          1           0      -21.358605   -7.377483    0.484139
    157          1           0      -20.142188   -6.130422    0.114963
    158          1           0      -20.648040   -7.385345   -1.069583
 ---------------------------------------------------------------------

 SCF Done:  E(RCAM-B3LYP) =  -4069.78063214     A.U. after   18 cycles

 Excitation energies and oscillator strengths:

 Excited State   1:      Singlet-A      1.6751 eV  740.16 nm  f=0.3654  <S**2>=0.000
     309 -> 315       -0.18827
     311 -> 313        0.68340
     309 <- 315       -0.11090
 This state for optimization and/or second-order correction.
 Total Energy, E(TD-HF/TD-DFT) =  -4069.71907300
 Copying the excited state density for this state as the 1-particle RhoCI density.

 Excited State   2:      Singlet-A      1.7492 eV  708.82 nm  f=0.3753  <S**2>=0.000
     310 -> 316       -0.18983
     312 -> 314        0.68132
     310 <- 316       -0.10804

 Excited State   3:      Singlet-A      2.1859 eV  567.20 nm  f=0.1027  <S**2>=0.000
     309 -> 313        0.63557
     311 -> 315        0.29758

 Excited State   4:      Singlet-A      2.2729 eV  545.50 nm  f=0.0723  <S**2>=0.000
     310 -> 314        0.62313
     312 -> 316        0.32197

 Excited State   5:      Singlet-A      2.9666 eV  417.94 nm  f=0.0000  <S**2>=0.000
     312 -> 313        0.70711

 The electronic state is 1-A.
 Alpha  occ. eigenvalues --  -46.88953 -46.88501 -19.24879 -19.23976 -19.19879
 Alpha  occ. eigenvalues --  -19.19374 -19.19314 -19.18731 -19.18367 -19.17392
 Alpha  occ. eigenvalues --  -14.42337 -14.42120 -14.41941 -14.41280 -14.40279
 Alpha  occ. eigenvalues --  -14.39680 -14.39179 -14.38913 -10.39478 -10.39100
 Alpha  occ. eigenvalues --  -10.35370 -10.35281 -10.34220 -10.33716 -10.31687
 Alpha  occ. eigenvalues --  -10.31631 -10.31583 -10.31580 -10.31181 -10.31073
 Alpha  occ. eigenvalues --  -10.31061 -10.31003 -10.30764 -10.30484 -10.30447
 Alpha  occ. eigenvalues --  -10.30384 -10.30310 -10.30210 -10.29877 -10.29229
 Alpha  occ. eigenvalues --  -10.29183 -10.29103 -10.29024 -10.28994 -10.28867
 Alpha  occ. eigenvalues --  -10.28565 -10.28558 -10.28382 -10.28327 -10.28231
 Alpha  occ. eigenvalues --  -10.28229 -10.28135 -10.28036 -10.27979 -10.27821
 Alpha  occ. eigenvalues --  -10.27578 -10.27549 -10.27441 -10.27388 -10.27371
 Alpha  occ. eigenvalues --  -10.27305 -10.27276 -10.27234 -10.27219 -10.27185
 Alpha  occ. eigenvalues --  -10.27151 -10.27136 -10.27037 -10.26806 -10.26805
 Alpha  occ. eigenvalues --  -10.26501 -10.26477 -10.26451 -10.26425 -10.26365
 Alpha  occ. eigenvalues --  -10.26233 -10.25747 -10.25562 -10.25334 -10.25305
 Alpha  occ. eigenvalues --  -10.25274 -10.25198 -10.25090 -10.24876 -10.24733
 Alpha  occ. eigenvalues --  -10.24691  -3.17443  -3.17044  -1.92346  -1.91951
 Alpha  occ. eigenvalues --   -1.91907  -1.91733  -1.91511  -1.91332  -1.15459
 Alpha  occ. eigenvalues --   -1.14650  -1.10067  -1.09854  -1.09654  -1.09199
 Alpha  occ. eigenvalues --   -1.07242  -1.06719  -1.04995  -1.04754  -1.04035
 Alpha  occ. eigenvalues --   -1.03812  -1.03087  -1.02998  -1.01583  -1.01368
 Alpha  occ. eigenvalues --   -0.92663  -0.91974  -0.90775  -0.89876  -0.89602
 Alpha  occ. eigenvalues --   -0.89061  -0.88652  -0.88380  -0.87719  -0.87327
 Alpha  occ. eigenvalues --   -0.87252  -0.86729  -0.86307  -0.86178  -0.85274
 Alpha  occ. eigenvalues --   -0.84553  -0.84126  -0.83466  -0.83293  -0.82637
 Alpha  occ. eigenvalues --   -0.82582  -0.81986  -0.81420  -0.80834  -0.80825
 Alpha  occ. eigenvalues --   -0.80433  -0.78938  -0.78680  -0.77986  -0.77130
 Alpha  occ. eigenvalues --   -0.77098  -0.76848  -0.76316  -0.75779  -0.75393
 Alpha  occ. eigenvalues --   -0.74772  -0.73420  -0.72119  -0.72044  -0.71295
 Alpha  occ. eigenvalues --   -0.69347  -0.69228  -0.69118  -0.68902  -0.68002
 Alpha  occ. eigenvalues --   -0.67832  -0.67526  -0.66698  -0.66477  -0.65940
 Alpha  occ. eigenvalues --   -0.65285  -0.64995  -0.64693  -0.64672  -0.64451
 Alpha  occ. eigenvalues --   -0.64176  -0.62042  -0.61525  -0.60749  -0.60321
 Alpha  occ. eigenvalues --   -0.59506  -0.59475  -0.59354  -0.59035  -0.58971
 Alpha  occ. eigenvalues --   -0.58054  -0.57926  -0.57865  -0.57422  -0.57157
 Alpha  occ. eigenvalues --   -0.56416  -0.56268  -0.55907  -0.55492  -0.55481
 Alpha  occ. eigenvalues --   -0.55321  -0.55154  -0.54442  -0.54268  -0.54252
 Alpha  occ. eigenvalues --   -0.53947  -0.53841  -0.53314  -0.53203  -0.53142
 Alpha  occ. eigenvalues --   -0.52841  -0.52758  -0.52558  -0.52317  -0.52301
 Alpha  occ. eigenvalues --   -0.52105  -0.51799  -0.51751  -0.51691  -0.51490
 Alpha  occ. eigenvalues --   -0.51296  -0.51294  -0.51240  -0.50753  -0.50597
 Alpha  occ. eigenvalues --   -0.50424  -0.50017  -0.49894  -0.49775  -0.49667
 Alpha  occ. eigenvalues --   -0.49548  -0.49396  -0.49128  -0.49015  -0.48897
 Alpha  occ. eigenvalues --   -0.48860  -0.48572  -0.48517  -0.48514  -0.48376
 Alpha  occ. eigenvalues --   -0.48069  -0.47630  -0.47584  -0.47351  -0.47143
 Alpha  occ. eigenvalues --   -0.47009  -0.46939  -0.46800  -0.46667  -0.46610
 Alpha  occ. eigenvalues --   -0.46324  -0.46219  -0.46094  -0.45982  -0.45748
 Alpha  occ. eigenvalues --   -0.45381  -0.45315  -0.45008  -0.44943  -0.44602
 Alpha  occ. eigenvalues --   -0.44595  -0.44488  -0.44243  -0.44222  -0.44057
 Alpha  occ. eigenvalues --   -0.44037  -0.43920  -0.43693  -0.43653  -0.43437
 Alpha  occ. eigenvalues --   -0.43408  -0.43305  -0.43240  -0.43072  -0.42976
 Alpha  occ. eigenvalues --   -0.42946  -0.42573  -0.42543  -0.42095  -0.41940
 Alpha  occ. eigenvalues --   -0.41683  -0.41673  -0.41592  -0.41344  -0.41291
 Alpha  occ. eigenvalues --   -0.41179  -0.41010  -0.40682  -0.40654  -0.40334
 Alpha  occ. eigenvalues --   -0.40273  -0.39842  -0.39360  -0.39222  -0.38566
 Alpha  occ. eigenvalues --   -0.38494  -0.37746  -0.37737  -0.37412  -0.37342
 Alpha  occ. eigenvalues --   -0.37100  -0.36981  -0.36624  -0.36394  -0.36328
 Alpha  occ. eigenvalues --   -0.36111  -0.35671  -0.34357  -0.34165  -0.34025
 Alpha  occ. eigenvalues --   -0.33722  -0.33283  -0.33038  -0.31393  -0.31185
 Alpha  occ. eigenvalues --   -0.30949  -0.30812  -0.30687  -0.30143  -0.29890
 Alpha  occ. eigenvalues --   -0.29668  -0.29450  -0.29332  -0.24319  -0.23869
 Alpha  occ. eigenvalues --   -0.21584  -0.20772
 Alpha virt. eigenvalues --   -0.09173  -0.08132  -0.02522  -0.01694   0.00240
 Alpha virt. eigenvalues --    0.00248   0.02196   0.02339   0.02665   0.03342
 Alpha virt. eigenvalues --    0.04078   0.04840   0.04983   0.05100   0.05450

 Mulliken charges:
               1
     1  Mg  12.000013
     2  C    5.999903
     3  C    5.999924
     4  C    6.000154
     5  C    6.000080
     6  N    6.999953
     7  C    6.000111
     8  C    5.999956
     9  C    6.000046
    10  C    5.999962
    11  C    6.000028
    12  C    5.999996
    13  C    6.000003
    14  H    0.999978
    15  N    7.000001
    16  C    5.999874
    17  C    5.999894
    18  C    5.999964
    19  C    5.999862
    20  C    6.000056
    21  C    5.999943
    22  O    7.999902
    23  C    6.000031
    24  N    7.000042
    25  C    5.999855
    26  C    6.000014
    27  C    5.999972
    28  C    6.000047
    29  C    6.000003
    30  C    5.999976
    31  C    5.999962
    32  N    7.000010
    33  C    6.000073
    34  C    6.000151
    35  C    5.999985
    36  C    6.000142
    37  C    5.999948
    38  C    6.000061
    39  O    8.000118
    40  C    6.000002
    41  C    6.000007
    42  O    8.000014
    43  O    8.000005
    44  C    5.999997
    45  H    0.999935
    46  H    0.999996
    47  H    1.000066
    48  H    0.999995
    49  H    0.999961
    50  H    0.999945
    51  H    0.999932
    52  H    0.999996
    53  H    1.000034
    54  H    0.999990
    55  H    1.000003
    56  H    1.000008
    57  H    0.999921
    58  H    0.999913
    59  H    0.999900
    60  H    0.999938
    61  H    0.999945
    62  H    0.999977
    63  H    1.000023
    64  H    1.000035
    65  H    1.000013
    66  H    0.999990
    67  H    0.999988
    68  H    1.000060
    69  H    1.000022
    70  H    1.000049
    71  H    1.000008
    72  H    1.000002
    73  H    1.000091
    74  H    1.000082
    75  H    1.000109
    76  H    1.000033
    77  H    1.000029
    78  H    0.999988
    79  H    1.000009
    80  Mg  12.001309
    81  C    6.017979
    82  C    5.979239
    83  C    5.975446
    84  C    6.023885
    85  N    7.004611
    86  C    5.965936
    87  C    6.014203
    88  C    5.990989
    89  C    6.029865
    90  C    5.996887
    91  C    6.001074
    92  C    6.001155
    93  H    0.991884
    94  N    6.985790
    95  C    6.050825
    96  C    6.020513
    97  C    6.012748
    98  C    6.044731
    99  C    5.987885
   100  C    6.006762
   101  O    8.018376
   102  C    5.998805
   103  N    7.007565
   104  C    6.034730
   105  C    5.992091
   106  C    6.007731
   107  C    5.960992
   108  C    5.998810
   109  C    6.008237
   110  C    6.000836
   111  N    7.005894
   112  C    5.951309
   113  C    5.976010
   114  C    5.994889
   115  C    5.963719
   116  C    6.001993
   117  C    5.982611
   118  O    7.967167
   119  C    6.002672
   120  C    5.995047
   121  O    7.991942
   122  O    8.000451
   123  C    6.003750
   124  H    1.009813
   125  H    1.011088
   126  H    0.991073
   127  H    0.995942
   128  H    1.000945
   129  H    1.012392
   130  H    0.997255
   131  H    0.999910
   132  H    0.991875
   133  H    1.007404
   134  H    1.004240
   135  H    0.999343
   136  H    1.020791
   137  H    1.023224
   138  H    1.021250
   139  H    1.005886
   140  H    1.010702
   141  H    1.012486
   142  H    0.999655
   143  H    1.002217
   144  H    0.997457
   145  H    1.013025
   146  H    1.002113
   147  H    0.994328
   148  H    0.985148
   149  H    0.994534
   150  H    1.006216
   151  H    0.996196
   152  H    0.980371
   153  H    0.985618
   154  H    0.980945
   155  H    0.990548
   156  H    0.997052
   157  H    0.993634
   158  H    0.995982
 Sum of Mulliken charges = 624.00000

 Dipole moment (field-independent basis, Debye):
    X=              3.7373    Y=              9.7087    Z=              2.6130  Tot=             10.7263
 Quadrupole moment (field-independent basis, Debye-Ang):
   XX=           -185.1003   YY=              9.2222   ZZ=              0.7947
   XY=           -236.3258   XZ=            -65.7855   YZ=              2.6840

 Normal termination of Gaussian 16 at Wed Sep 22 07:34:00 2021.
