 Gaussian 16, Revision A.03,
 Gaussian 16:  ES64L-G16RevA.03 25-Dec-2016

 -----------------------------------
 #p cam-b3lyp/Def2SVP td=(nstates=5)
 -----------------------------------

 --------------------------------
 TDDFT excited states in gaussian
 --------------------------------
 Symbolic Z-matrix:
 Charge =  0 Multiplicity = 1

                         Standard orientation:
 ---------------------------------------------------------------------
 Center     Atomic      Atomic             Coordinates (Angstroms)
 Number     Number       Type             X           Y           Z
 ---------------------------------------------------------------------
      1         12           0      -23.661304    0.610695    0.125448
      2          6           0      -21.148814   -1.508846    1.124825
      3          6           0      -25.809196   -2.216475   -0.105397
      4          6           0      -26.064105    2.458144   -1.372268
      5          6           0      -21.547184    3.212796    0.024429
      6          7           0      -23.483680   -1.617593    0.470888
      7          6           0      -22.322668   -2.224299    0.868780
      8          6           0      -22.542468   -3.716554    1.127243
      9          6           0      -24.008108   -3.910326    0.520025
     10          6           0      -24.472743   -2.504746    0.273814
     11          6           0      -24.067663   -4.866724   -0.727154
     12          6           0      -22.465232   -4.118193    2.670778
     13          6           0      -21.737821   -5.348769    3.156521
     14          1           0      -21.972028   -6.635332    2.447675
     15          7           0      -25.707878    0.217645   -0.604636
     16          6           0      -26.431537   -0.912074   -0.444175
     17          6           0      -27.794273   -0.714361   -0.809295
     18          6           0      -27.913798    0.667669   -1.159076
     19          6           0      -26.499167    1.144397   -1.115599
     20          6           0      -28.717671   -1.889558   -0.792961
     21          6           0      -29.125695    1.412802   -1.692005
     22          8           0      -29.038340    2.525549   -2.220439
     23          6           0      -30.506927    0.787450   -1.606206
     24          7           0      -23.754140    2.557330   -0.733611
     25          6           0      -24.906480    3.127242   -1.174444
     26          6           0      -24.706425    4.619670   -1.432642
     27          6           0      -23.284746    4.877332   -0.803186
     28          6           0      -22.825773    3.470847   -0.472576
     29          6           0      -24.908054    5.228203   -2.851877
     30          6           0      -23.213477    5.905075    0.402249
     31          6           0      -23.311713    5.417820    1.832381
     32          7           0      -21.741719    0.829712    0.389594
     33          6           0      -20.971253    1.961864    0.470171
     34          6           0      -19.611052    1.697765    0.769053
     35          6           0      -19.632349    0.343388    1.086980
     36          6           0      -20.950918   -0.129603    0.862829
     37          6           0      -18.377610    2.583744    0.885684
     38          6           0      -18.872383   -0.756179    1.493846
     39          8           0      -17.676696   -0.803532    1.717092
     40          6           0      -19.807760   -2.091181    1.533493
     41          6           0      -19.247414   -3.056942    0.596387
     42          8           0      -19.178643   -2.920507   -0.641207
     43          8           0      -18.729893   -4.159288    1.200420
     44          6           0      -17.862186   -5.051519    0.423399
     45          1           0      -26.392626   -3.137776   -0.055122
     46          1           0      -26.891262    3.138783   -1.583411
     47          1           0      -20.946883    4.062572    0.353838
     48          1           0      -21.737763   -4.270847    0.642535
     49          1           0      -24.672146   -4.399492    1.232875
     50          1           0      -24.733024   -5.692638   -0.477985
     51          1           0      -23.026370   -5.120361   -0.926602
     52          1           0      -24.552571   -4.450907   -1.610886
     53          1           0      -23.523385   -4.214637    2.914538
     54          1           0      -22.211841   -3.255603    3.286178
     55          1           0      -21.870209   -5.458946    4.232804
     56          1           0      -20.684968   -5.161250    2.948832
     57          1           0      -29.621502   -1.524907   -0.306248
     58          1           0      -28.324507   -2.682107   -0.155776
     59          1           0      -28.962539   -2.325150   -1.762272
     60          1           0      -30.712000    0.292390   -0.656556
     61          1           0      -30.709103    0.220061   -2.515699
     62          1           0      -31.185004    1.641083   -1.629424
     63          1           0      -25.532486    5.074025   -0.885152
     64          1           0      -22.608822    5.392174   -1.484916
     65          1           0      -23.948452    5.524358   -3.275373
     66          1           0      -25.522755    6.117841   -2.715834
     67          1           0      -25.406058    4.454568   -3.435293
     68          1           0      -24.020027    6.619707    0.244038
     69          1           0      -22.272698    6.454539    0.361774
     70          1           0      -24.077217    5.955361    2.392479
     71          1           0      -22.373846    5.491953    2.384448
     72          1           0      -23.578902    4.364435    1.747977
     73          1           0      -18.668487    3.621974    0.721248
     74          1           0      -17.634988    2.260348    0.155844
     75          1           0      -17.962500    2.466866    1.886350
     76          1           0      -19.615082   -2.427410    2.552693
     77          1           0      -17.179791   -5.646919    1.030134
     78          1           0      -17.347097   -4.590493   -0.418824
     79          1           0      -18.527464   -5.830957    0.051616
     80         12           0       23.502193    0.684591    0.053847
     81          6           0       22.823835   -2.385312   -1.539181
     82          6           0       23.372202   -1.037623    3.047458
     83          6           0       24.034590    3.604321    1.740950
     84          6           0       23.262658    2.283733   -2.888029
     85          7           0       23.169009   -1.501875    0.684096
     86          6           0       23.045784   -2.618040   -0.134557
     87          6           0       23.179252   -3.889036    0.680011
     88          6           0       22.987420   -3.399289    2.161395
     89          6           0       23.203290   -1.917700    1.949190
     90          6           0       21.622540   -3.802399    2.845398
     91          6           0       24.550625   -4.564010    0.528669
     92          6           0       24.533173   -6.096349    0.528402
     93          1           0       24.186090   -6.833836    1.851549
     94          7           0       23.768182    1.205408    2.085507
     95          6           0       23.626283    0.328081    3.105632
     96          6           0       23.727253    1.042361    4.336692
     97          6           0       24.070263    2.408922    4.050527
     98          6           0       23.913992    2.457289    2.607503
     99          6           0       23.548339    0.369321    5.669205
    100          6           0       24.359142    3.601043    4.963004
    101          8           0       24.805469    4.679880    4.514169
    102          6           0       24.051769    3.585441    6.456103
    103          7           0       23.717611    2.622958   -0.502338
    104          6           0       23.863202    3.706013    0.359286
    105          6           0       23.849942    4.968521   -0.439915
    106          6           0       23.673892    4.620612   -1.961830
    107          6           0       23.585744    3.091701   -1.828223
    108          6           0       22.898833    6.075394    0.106651
    109          6           0       24.831746    5.059656   -2.884200
    110          6           0       24.578586    6.405442   -3.590758
    111          7           0       23.089157    0.150126   -1.804835
    112          6           0       23.075721    0.885095   -2.989469
    113          6           0       22.842269    0.022444   -4.206480
    114          6           0       22.712639   -1.244232   -3.614142
    115          6           0       22.918447   -1.136003   -2.201212
    116          6           0       22.775438    0.483321   -5.651098
    117          6           0       22.470966   -2.636666   -3.960684
    118          8           0       22.236447   -3.170354   -5.045686
    119          6           0       22.663297   -3.433963   -2.601372
    120          6           0       21.400284   -4.306425   -2.462112
    121          8           0       20.262768   -3.976837   -2.727840
    122          8           0       21.791506   -5.604019   -2.137725
    123          6           0       20.661138   -6.520649   -1.987717
    124          1           0       23.403848   -1.624643    3.967502
    125          1           0       24.211830    4.590380    2.174859
    126          1           0       23.078959    2.890155   -3.776999
    127          1           0       22.414833   -4.639321    0.479428
    128          1           0       23.723985   -3.783980    2.866843
    129          1           0       20.986741   -4.473277    2.266942
    130          1           0       20.938010   -2.988998    3.084827
    131          1           0       21.802446   -4.358064    3.765724
    132          1           0       25.237081   -4.247424    1.313603
    133          1           0       25.001713   -4.309339   -0.430582
    134          1           0       25.460967   -6.513619    0.137260
    135          1           0       23.823476   -6.483027   -0.202681
    136          1           0       22.619147   -0.179730    5.516004
    137          1           0       23.386414    1.003623    6.540603
    138          1           0       24.327460   -0.347218    5.928283
    139          1           0       23.032541    3.244825    6.639219
    140          1           0       24.206121    4.629646    6.727581
    141          1           0       24.715360    2.902694    6.986753
    142          1           0       24.792319    5.476099   -0.231793
    143          1           0       22.733497    4.948598   -2.406628
    144          1           0       22.366153    5.660494    0.962620
    145          1           0       22.171082    6.324922   -0.665035
    146          1           0       23.574044    6.880737    0.397742
    147          1           0       25.056573    4.220343   -3.541936
    148          1           0       25.724981    5.289009   -2.302729
    149          1           0       23.861199    6.993394   -3.017910
    150          1           0       24.113345    6.360304   -4.575623
    151          1           0       25.517006    6.960667   -3.599385
    152          1           0       23.791375    0.736734   -5.954517
    153          1           0       22.170810    1.371143   -5.835233
    154          1           0       22.403589   -0.372193   -6.214724
    155          1           0       23.542524   -4.075959   -2.550897
    156          1           0       20.249955   -6.579121   -0.979492
    157          1           0       21.061135   -7.478954   -2.318714
    158          1           0       19.753048   -6.344102   -2.564153
 ---------------------------------------------------------------------

 SCF Done:  E(RCAM-B3LYP) =  -4069.86471994     A.U. after   18 cycles

 Excitation energies and oscillator strengths:

 Excited State   1:      Singlet-A      1.7014 eV  728.71 nm  f=0.3749  <S**2>=0.000
     309 -> 315       -0.18654
     312 -> 314        0.68387
     309 <- 315       -0.10956
 This state for optimization and/or second-order correction.
 Total Energy, E(TD-HF/TD-DFT) =  -4069.80219394
 Copying the excited state density for this state as the 1-particle RhoCI density.

 Excited State   2:      Singlet-A      1.7199 eV  720.86 nm  f=0.4174  <S**2>=0.000
     310 -> 316       -0.17812
     311 -> 313        0.68656
     310 <- 316       -0.10694

 Excited State   3:      Singlet-A      2.1905 eV  566.01 nm  f=0.1744  <S**2>=0.000
     310 -> 313        0.66248
     311 -> 316        0.23744

 Excited State   4:      Singlet-A      2.2323 eV  555.40 nm  f=0.0997  <S**2>=0.000
     309 -> 314        0.63577
     312 -> 315        0.29946

 Excited State   5:      Singlet-A      3.0577 eV  405.48 nm  f=0.0000  <S**2>=0.000
     312 -> 313        0.70710

 The electronic state is 1-A.
 Alpha  occ. eigenvalues --  -46.89111 -46.87626 -19.25741 -19.25083 -19.20388
 Alpha  occ. eigenvalues --  -19.19185 -19.19075 -19.18877 -19.18603 -19.18537
 Alpha  occ. eigenvalues --  -14.42653 -14.42138 -14.41546 -14.41255 -14.39873
 Alpha  occ. eigenvalues --  -14.39583 -14.39505 -14.39460 -10.39662 -10.38948
 Alpha  occ. eigenvalues --  -10.35825 -10.35366 -10.35058 -10.34530 -10.31631
 Alpha  occ. eigenvalues --  -10.31455 -10.31417 -10.31078 -10.30880 -10.30852
 Alpha  occ. eigenvalues --  -10.30723 -10.30706 -10.30431 -10.30304 -10.30255
 Alpha  occ. eigenvalues --  -10.30132 -10.30078 -10.30056 -10.29886 -10.29563
 Alpha  occ. eigenvalues --  -10.29199 -10.29084 -10.29014 -10.28722 -10.28717
 Alpha  occ. eigenvalues --  -10.28692 -10.28607 -10.28585 -10.28537 -10.28460
 Alpha  occ. eigenvalues --  -10.28362 -10.28357 -10.28278 -10.28010 -10.28005
 Alpha  occ. eigenvalues --  -10.27979 -10.27834 -10.27686 -10.27525 -10.27503
 Alpha  occ. eigenvalues --  -10.27462 -10.27351 -10.27318 -10.27181 -10.27045
 Alpha  occ. eigenvalues --  -10.27025 -10.26917 -10.26872 -10.26610 -10.26580
 Alpha  occ. eigenvalues --  -10.26422 -10.26404 -10.26382 -10.26315 -10.26235
 Alpha  occ. eigenvalues --  -10.26182 -10.26070 -10.25987 -10.25968 -10.25715
 Alpha  occ. eigenvalues --  -10.25672 -10.25640 -10.25541 -10.25210 -10.25044
 Alpha  occ. eigenvalues --  -10.24625  -3.17720  -3.16410  -1.92603  -1.92136
 Alpha  occ. eigenvalues --   -1.92069  -1.91308  -1.90841  -1.90754  -1.16279
 Alpha  occ. eigenvalues --   -1.15867  -1.09896  -1.09462  -1.09210  -1.08908
 Alpha  occ. eigenvalues --   -1.08152  -1.05861  -1.05379  -1.04694  -1.04646
 Alpha  occ. eigenvalues --   -1.04159  -1.03646  -1.03485  -1.03053  -1.01436
 Alpha  occ. eigenvalues --   -0.92619  -0.92553  -0.89414  -0.89026  -0.89000
 Alpha  occ. eigenvalues --   -0.88276  -0.88262  -0.88206  -0.87787  -0.87463
 Alpha  occ. eigenvalues --   -0.87423  -0.86994  -0.86427  -0.86126  -0.84395
 Alpha  occ. eigenvalues --   -0.84290  -0.83771  -0.83528  -0.82689  -0.82280
 Alpha  occ. eigenvalues --   -0.81847  -0.81710  -0.81172  -0.80967  -0.80328
 Alpha  occ. eigenvalues --   -0.80065  -0.78435  -0.78395  -0.77484  -0.77447
 Alpha  occ. eigenvalues --   -0.77268  -0.77106  -0.76258  -0.76133  -0.75499
 Alpha  occ. eigenvalues --   -0.75039  -0.73548  -0.72661  -0.71643  -0.71552
 Alpha  occ. eigenvalues --   -0.69639  -0.69365  -0.69220  -0.68797  -0.68167
 Alpha  occ. eigenvalues --   -0.68136  -0.67297  -0.67135  -0.65768  -0.65641
 Alpha  occ. eigenvalues --   -0.65485  -0.65127  -0.64775  -0.64472  -0.64216
 Alpha  occ. eigenvalues --   -0.64143  -0.62557  -0.62250  -0.60354  -0.60185
 Alpha  occ. eigenvalues --   -0.60133  -0.59841  -0.59074  -0.58916  -0.58480
 Alpha  occ. eigenvalues --   -0.58301  -0.57919  -0.57730  -0.57480  -0.57298
 Alpha  occ. eigenvalues --   -0.56249  -0.56002  -0.55432  -0.55412  -0.55095
 Alpha  occ. eigenvalues --   -0.54987  -0.54885  -0.54673  -0.54081  -0.53785
 Alpha  occ. eigenvalues --   -0.53477  -0.53309  -0.53136  -0.53117  -0.52860
 Alpha  occ. eigenvalues --   -0.52796  -0.52602  -0.52548  -0.52228  -0.52132
 Alpha  occ. eigenvalues --   -0.52090  -0.51836  -0.51732  -0.51442  -0.51205
 Alpha  occ. eigenvalues --   -0.50763  -0.50571  -0.50466  -0.50278  -0.50197
 Alpha  occ. eigenvalues --   -0.50024  -0.49849  -0.49777  -0.49545  -0.49349
 Alpha  occ. eigenvalues --   -0.49238  -0.49099  -0.49051  -0.48884  -0.48803
 Alpha  occ. eigenvalues --   -0.48767  -0.48569  -0.48476  -0.48223  -0.48219
 Alpha  occ. eigenvalues --   -0.48067  -0.47831  -0.47601  -0.47552  -0.47383
 Alpha  occ. eigenvalues --   -0.47151  -0.46861  -0.46835  -0.46642  -0.46527
 Alpha  occ. eigenvalues --   -0.46507  -0.46257  -0.46173  -0.45965  -0.45894
 Alpha  occ. eigenvalues --   -0.45886  -0.45497  -0.45322  -0.44996  -0.44903
 Alpha  occ. eigenvalues --   -0.44606  -0.44513  -0.44492  -0.44336  -0.44325
 Alpha  occ. eigenvalues --   -0.43948  -0.43932  -0.43632  -0.43571  -0.43478
 Alpha  occ. eigenvalues --   -0.43378  -0.43218  -0.43168  -0.42995  -0.42970
 Alpha  occ. eigenvalues --   -0.42666  -0.42338  -0.42234  -0.41919  -0.41887
 Alpha  occ. eigenvalues --   -0.41832  -0.41732  -0.41590  -0.41525  -0.41325
 Alpha  occ. eigenvalues --   -0.41211  -0.41119  -0.41033  -0.40629  -0.40430
 Alpha  occ. eigenvalues --   -0.40225  -0.39995  -0.39841  -0.39671  -0.39530
 Alpha  occ. eigenvalues --   -0.38691  -0.38518  -0.38293  -0.38240  -0.37915
 Alpha  occ. eigenvalues --   -0.37349  -0.37245  -0.36855  -0.36618  -0.36615
 Alpha  occ. eigenvalues --   -0.36035  -0.35677  -0.35139  -0.34935  -0.34561
 Alpha  occ. eigenvalues --   -0.33446  -0.32888  -0.32835  -0.31502  -0.31340
 Alpha  occ. eigenvalues --   -0.31225  -0.30956  -0.30922  -0.30895  -0.30536
 Alpha  occ. eigenvalues --   -0.30424  -0.30099  -0.29979  -0.23932  -0.23840
 Alpha  occ. eigenvalues --   -0.21472  -0.21058
 Alpha virt. eigenvalues --   -0.09091  -0.08554  -0.01762  -0.01197   0.00016
 Alpha virt. eigenvalues --    0.00221   0.01766   0.01840   0.02469   0.03757
 Alpha virt. eigenvalues --    0.04753   0.04774   0.05049   0.05623   0.06146

 Mulliken charges:
               1
     1  Mg   0.838563
     2  C    0.011585
     3  C   -0.053550
     4  C   -0.054119
     5  C   -0.074690
     6  N   -0.259007
     7  C   -0.044628
     8  C   -0.039949
     9  C   -0.067774
    10  C    0.025086
    11  C    0.071335
    12  C    0.050793
    13  C   -0.046906
    14  H    0.016639
    15  N   -0.276127
    16  C    0.108826
    17  C   -0.140174
    18  C   -0.038882
    19  C    0.073805
    20  C    0.126618
    21  C   -0.001516
    22  O   -0.216469
    23  C    0.046155
    24  N   -0.278515
    25  C    0.028283
    26  C   -0.031854
    27  C    0.005509
    28  C    0.043817
    29  C    0.083007
    30  C   -0.011475
    31  C    0.012522
    32  N   -0.385112
    33  C    0.091413
    34  C   -0.180242
    35  C    0.092695
    36  C    0.102464
    37  C    0.138699
    38  C   -0.042515
    39  O   -0.171689
    40  C    0.016085
    41  C    0.193107
    42  O   -0.252895
    43  O   -0.327428
    44  C    0.186367
    45  H   -0.035446
    46  H   -0.008343
    47  H   -0.023983
    48  H    0.024594
    49  H    0.018092
    50  H    0.010038
    51  H    0.028622
    52  H    0.019056
    53  H   -0.011570
    54  H    0.007803
    55  H    0.032227
    56  H    0.033347
    57  H    0.009162
    58  H    0.014678
    59  H    0.039622
    60  H    0.033209
    61  H    0.047641
    62  H    0.024843
    63  H    0.009814
    64  H    0.009937
    65  H    0.015184
    66  H    0.018534
    67  H    0.029854
    68  H    0.004408
    69  H    0.004801
    70  H    0.014797
    71  H    0.015383
    72  H    0.016061
    73  H    0.004402
    74  H    0.043844
    75  H    0.038548
    76  H    0.030550
    77  H    0.035057
    78  H    0.058281
    79  H    0.019096
    80  Mg   0.856973
    81  C   -0.058721
    82  C   -0.109483
    83  C   -0.071404
    84  C   -0.087061
    85  N   -0.241847
    86  C   -0.014035
    87  C    0.014358
    88  C   -0.051410
    89  C   -0.006671
    90  C    0.052935
    91  C    0.064884
    92  C   -0.070537
    93  H    0.002366
    94  N   -0.342941
    95  C    0.211709
    96  C   -0.159427
    97  C   -0.006388
    98  C    0.104311
    99  C    0.108368
   100  C    0.005854
   101  O   -0.228249
   102  C    0.038026
   103  N   -0.379042
   104  C    0.084267
   105  C   -0.051027
   106  C   -0.001762
   107  C    0.029951
   108  C    0.063121
   109  C    0.045016
   110  C   -0.000572
   111  N   -0.392746
   112  C    0.133034
   113  C   -0.159665
   114  C   -0.023302
   115  C    0.156263
   116  C    0.124931
   117  C    0.083869
   118  O   -0.172877
   119  C   -0.034183
   120  C    0.197922
   121  O   -0.193104
   122  O   -0.339694
   123  C    0.167136
   124  H   -0.033802
   125  H   -0.010985
   126  H   -0.037290
   127  H    0.007793
   128  H    0.014671
   129  H    0.013071
   130  H    0.020465
   131  H    0.012809
   132  H    0.016720
   133  H    0.011990
   134  H    0.024777
   135  H    0.028578
   136  H    0.025005
   137  H    0.003809
   138  H    0.034937
   139  H    0.040300
   140  H    0.037949
   141  H    0.041706
   142  H    0.016559
   143  H    0.017704
   144  H    0.022126
   145  H    0.012490
   146  H    0.021693
   147  H    0.012878
   148  H    0.003387
   149  H    0.004445
   150  H    0.019164
   151  H    0.018447
   152  H    0.027660
   153  H    0.026035
   154  H    0.042303
   155  H    0.042738
   156  H    0.025744
   157  H    0.037229
   158  H    0.047750
 Sum of Mulliken charges =  -0.00000

 Dipole moment (field-independent basis, Debye):
    X=             -2.5021    Y=             -1.6127    Z=              6.5963  Tot=              7.2369
 Quadrupole moment (field-independent basis, Debye-Ang):
   XX=           -335.0661   YY=           -469.0980   ZZ=           -520.2286
   XY=             23.2205   XZ=              7.6268   YZ=            -31.7956

 Normal termination of Gaussian 16 at Fri Sep  3 05:39:57 2021.
