 Gaussian 16, Revision A.03,
 Gaussian 16:  ES64L-G16RevA.03 25-Dec-2016

 -----------------------------------
 #p cam-b3lyp/Def2SVP td=(nstates=5)
 -----------------------------------

 --------------------------------
 TDDFT excited states in gaussian
 --------------------------------
 Symbolic Z-matrix:
 Charge =  0 Multiplicity = 1

                         Standard orientation:
 ---------------------------------------------------------------------
 Center     Atomic      Atomic             Coordinates (Angstroms)
 Number     Number       Type             X           Y           Z
 ---------------------------------------------------------------------
      1         12           0        3.830140   -0.786308   -0.926582
      2          6           0        6.101660    1.840089   -0.057992
      3          6           0        1.303250    1.257348    0.113302
      4          6           0        1.853030   -3.243659   -1.256857
      5          6           0        6.544329   -2.969614   -0.816969
      6          7           0        3.828970    1.266937   -0.099038
      7          6           0        4.761537    2.186703    0.127947
      8          6           0        4.176014    3.579023    0.510025
      9          6           0        2.759735    3.110654    1.072859
     10          6           0        2.602696    1.818633    0.290591
     11          6           0        2.773909    2.784163    2.562726
     12          6           0        4.016511    4.518234   -0.732622
     13          6           0        3.762743    5.993321   -0.408469
     14          1           0        4.340485    7.010049   -1.274394
     15          7           0        1.861404   -0.834612   -1.083407
     16          6           0        0.988876    0.090719   -0.616777
     17          6           0       -0.358000   -0.398483   -0.981862
     18          6           0       -0.208854   -1.774935   -1.530704
     19          6           0        1.189425   -2.019342   -1.284818
     20          6           0       -1.599128    0.428837   -0.844403
     21          6           0       -1.175753   -2.724039   -2.165086
     22          8           0       -0.891901   -3.955379   -2.359512
     23          6           0       -2.513498   -2.188675   -2.476319
     24          7           0        4.101338   -2.852797   -0.809496
     25          6           0        3.091752   -3.696072   -1.051584
     26          6           0        3.580230   -5.107682   -1.188282
     27          6           0        5.174158   -5.021780   -1.230319
     28          6           0        5.334005   -3.496362   -1.016269
     29          6           0        3.150432   -6.075186   -0.076877
     30          6           0        5.881767   -5.674378   -2.444331
     31          6           0        5.550990   -4.906795   -3.704689
     32          7           0        5.979821   -0.602520   -0.689645
     33          6           0        6.916172   -1.645834   -0.652009
     34          6           0        8.228790   -1.038132   -0.366000
     35          6           0        7.960402    0.323451   -0.239888
     36          6           0        6.564312    0.548637   -0.408756
     37          6           0        9.453955   -1.741722   -0.197579
     38          6           0        8.524582    1.637462    0.022664
     39          8           0        9.666740    2.081282    0.149126
     40          6           0        7.326522    2.656493    0.271768
     41          6           0        7.595808    3.885112   -0.553635
     42          8           0        7.570465    3.836441   -1.800372
     43          8           0        7.604842    4.963707    0.244547
     44          6           0        7.837643    6.220410   -0.516148
     45          1           0        0.455769    1.715708    0.626744
     46          1           0        1.223432   -4.108277   -1.477040
     47          1           0        7.449764   -3.578248   -0.851696
     48          1           0        4.729226    4.107055    1.286918
     49          1           0        1.966316    3.810628    0.811622
     50          1           0        3.786624    2.803360    2.965170
     51          1           0        2.350337    1.783036    2.645345
     52          1           0        2.097771    3.441670    3.109809
     53          1           0        3.085990    4.278609   -1.247180
     54          1           0        4.882256    4.437524   -1.390876
     55          1           0        3.978699    6.214496    0.637167
     56          1           0        2.694954    6.186822   -0.511347
     57          1           0       -1.417181    1.329777   -0.259811
     58          1           0       -2.301337   -0.148058   -0.242902
     59          1           0       -2.046915    0.660671   -1.810877
     60          1           0       -2.979566   -1.828920   -1.558765
     61          1           0       -3.039224   -2.982310   -3.006041
     62          1           0       -2.403709   -1.319553   -3.125566
     63          1           0        3.222229   -5.557509   -2.113440
     64          1           0        5.632598   -5.502114   -0.365573
     65          1           0        2.613453   -6.950928   -0.442163
     66          1           0        2.548270   -5.518306    0.640463
     67          1           0        3.962062   -6.435274    0.554797
     68          1           0        5.526195   -6.694225   -2.587253
     69          1           0        6.966239   -5.712688   -2.340876
     70          1           0        4.591038   -5.327911   -4.001312
     71          1           0        6.308435   -5.085327   -4.468636
     72          1           0        5.392147   -3.848593   -3.496209
     73          1           0       10.208274   -1.175917   -0.744238
     74          1           0        9.378288   -2.763261   -0.569515
     75          1           0        9.564108   -1.698906    0.885883
     76          1           0        7.317186    2.874414    1.339263
     77          1           0        8.702638    6.710585   -0.069218
     78          1           0        6.892077    6.762912   -0.515157
     79          1           0        8.176218    6.104599   -1.546339
     80         12           0       -4.147846   -0.514744    1.023992
     81          6           0       -5.567583    2.238751   -0.656731
     82          6           0       -2.223420    1.763702    2.770386
     83          6           0       -2.598497   -3.087834    2.646740
     84          6           0       -5.826115   -2.623582   -0.977379
     85          7           0       -3.946718    1.775615    1.075571
     86          6           0       -4.718705    2.716695    0.405045
     87          6           0       -4.477507    4.100794    0.973254
     88          6           0       -3.151190    3.933710    1.800366
     89          6           0       -3.122001    2.424816    1.895892
     90          6           0       -1.865549    4.606433    1.177610
     91          6           0       -5.608040    4.582535    1.894654
     92          6           0       -5.931753    6.078117    1.812110
     93          1           0       -4.892041    7.093018    2.363514
     94          7           0       -2.697836   -0.653409    2.556271
     95          6           0       -2.043485    0.416588    3.063641
     96          6           0       -1.039571   -0.049659    3.964014
     97          6           0       -1.171047   -1.474484    4.104095
     98          6           0       -2.130347   -1.787244    3.059584
     99          6           0       -0.085659    0.886269    4.652982
    100          6           0       -0.418176   -2.488964    4.965044
    101          8           0       -0.798620   -3.676180    5.066681
    102          6           0        0.879859   -2.148773    5.688536
    103          7           0       -4.273479   -2.536167    0.918737
    104          6           0       -3.491091   -3.438956    1.632490
    105          6           0       -3.799106   -4.824625    1.165726
    106          6           0       -4.890823   -4.764404    0.037547
    107          6           0       -5.069699   -3.238413   -0.012908
    108          6           0       -2.548377   -5.695008    0.839197
    109          6           0       -6.213729   -5.496656    0.350406
    110          6           0       -6.282550   -6.919731   -0.236598
    111          7           0       -5.379285   -0.313210   -0.510248
    112          6           0       -6.087943   -1.260009   -1.248553
    113          6           0       -7.029701   -0.632212   -2.247926
    114          6           0       -6.785102    0.732329   -2.023564
    115          6           0       -5.845367    0.881250   -0.953441
    116          6           0       -7.956913   -1.356973   -3.206462
    117          6           0       -7.192403    2.047755   -2.493809
    118          8           0       -7.963847    2.380809   -3.394363
    119          6           0       -6.481562    3.070360   -1.509233
    120          6           0       -5.766701    4.083152   -2.425209
    121          8           0       -5.169121    3.831499   -3.451244
    122          8           0       -6.058191    5.369717   -1.975969
    123          6           0       -5.429259    6.413485   -2.785560
    124          1           0       -1.690053    2.512562    3.359284
    125          1           0       -2.174278   -3.983131    3.105525
    126          1           0       -6.235647   -3.369021   -1.661752
    127          1           0       -4.304432    4.874684    0.225835
    128          1           0       -3.180358    4.367978    2.799733
    129          1           0       -2.036787    5.215234    0.289371
    130          1           0       -1.075771    3.933542    0.844446
    131          1           0       -1.419293    5.308931    1.881514
    132          1           0       -5.393363    4.354088    2.938348
    133          1           0       -6.549632    4.098371    1.634866
    134          1           0       -6.901942    6.309156    2.251727
    135          1           0       -6.107076    6.387914    0.782081
    136          1           0        0.271116    1.490879    3.819026
    137          1           0        0.801298    0.455731    5.117564
    138          1           0       -0.545029    1.552152    5.383158
    139          1           0        1.588506   -1.671926    5.011180
    140          1           0        1.210968   -3.130084    6.028069
    141          1           0        0.702451   -1.450347    6.506346
    142          1           0       -4.132622   -5.379472    2.043186
    143          1           0       -4.551462   -5.070606   -0.952826
    144          1           0       -1.666470   -5.066130    0.962994
    145          1           0       -2.603394   -6.011417   -0.202073
    146          1           0       -2.585714   -6.495325    1.579007
    147          1           0       -7.027104   -4.831191    0.061985
    148          1           0       -6.300177   -5.701982    1.417620
    149          1           0       -5.274107   -7.304103   -0.390828
    150          1           0       -6.726584   -7.018668   -1.227301
    151          1           0       -6.763736   -7.563008    0.500719
    152          1           0       -8.771644   -1.771998   -2.612847
    153          1           0       -7.515447   -2.193823   -3.747293
    154          1           0       -8.325127   -0.593504   -3.891579
    155          1           0       -7.142787    3.612060   -0.833150
    156          1           0       -4.433886    6.711704   -2.454942
    157          1           0       -6.137800    7.240142   -2.735412
    158          1           0       -5.241014    6.225702   -3.842620
 ---------------------------------------------------------------------

 SCF Done:  E(RCAM-B3LYP) =  -4069.84570611     A.U. after   19 cycles

 Excitation energies and oscillator strengths:

 Excited State   1:      Singlet-A      1.6652 eV  744.55 nm  f=0.5378  <S**2>=0.000
     310 -> 316        0.16696
     311 -> 313        0.13063
     312 -> 314        0.67225
     310 <- 316        0.10151
 This state for optimization and/or second-order correction.
 Total Energy, E(TD-HF/TD-DFT) =  -4069.78451025
 Copying the excited state density for this state as the 1-particle RhoCI density.

 Excited State   2:      Singlet-A      1.6808 eV  737.65 nm  f=0.2432  <S**2>=0.000
     309 -> 315        0.17590
     311 -> 313        0.67078
     312 -> 314       -0.12954
     309 <- 315        0.10488

 Excited State   3:      Singlet-A      2.1427 eV  578.63 nm  f=0.0034  <S**2>=0.000
     309 -> 313       -0.24866
     310 -> 314       -0.15829
     311 -> 315        0.11115
     312 -> 313        0.62425

 Excited State   4:      Singlet-A      2.1862 eV  567.12 nm  f=0.0455  <S**2>=0.000
     309 -> 313        0.13057
     310 -> 314        0.58878
     312 -> 313        0.23795
     312 -> 316       -0.24784

 Excited State   5:      Singlet-A      2.2265 eV  556.86 nm  f=0.1076  <S**2>=0.000
     309 -> 313        0.57182
     310 -> 314       -0.18576
     311 -> 315       -0.26202
     312 -> 313        0.21842

 The electronic state is 1-A.
 Alpha  occ. eigenvalues --  -46.88132 -46.87927 -19.26431 -19.26204 -19.20891
 Alpha  occ. eigenvalues --  -19.19530 -19.19490 -19.19158 -19.18894 -19.18302
 Alpha  occ. eigenvalues --  -14.43130 -14.42613 -14.41704 -14.41572 -14.40388
 Alpha  occ. eigenvalues --  -14.39883 -14.39515 -14.38721 -10.40154 -10.39220
 Alpha  occ. eigenvalues --  -10.36126 -10.35519 -10.35447 -10.34525 -10.31962
 Alpha  occ. eigenvalues --  -10.31874 -10.31822 -10.31579 -10.31435 -10.31130
 Alpha  occ. eigenvalues --  -10.31091 -10.31076 -10.30744 -10.30703 -10.30677
 Alpha  occ. eigenvalues --  -10.30604 -10.30322 -10.30113 -10.30028 -10.29733
 Alpha  occ. eigenvalues --  -10.29708 -10.29520 -10.29382 -10.29292 -10.29241
 Alpha  occ. eigenvalues --  -10.29201 -10.29128 -10.29017 -10.29006 -10.28937
 Alpha  occ. eigenvalues --  -10.28780 -10.28504 -10.28454 -10.27942 -10.27922
 Alpha  occ. eigenvalues --  -10.27871 -10.27844 -10.27835 -10.27831 -10.27680
 Alpha  occ. eigenvalues --  -10.27631 -10.27578 -10.27552 -10.27536 -10.27518
 Alpha  occ. eigenvalues --  -10.27457 -10.27311 -10.27158 -10.26919 -10.26750
 Alpha  occ. eigenvalues --  -10.26745 -10.26653 -10.26391 -10.26376 -10.26335
 Alpha  occ. eigenvalues --  -10.26245 -10.26161 -10.26140 -10.25990 -10.25953
 Alpha  occ. eigenvalues --  -10.25515 -10.25463 -10.25193 -10.24965 -10.24901
 Alpha  occ. eigenvalues --  -10.24738  -3.16945  -3.16669  -1.91865  -1.91551
 Alpha  occ. eigenvalues --   -1.91368  -1.91280  -1.91138  -1.90979  -1.16778
 Alpha  occ. eigenvalues --   -1.16757  -1.09666  -1.09202  -1.08761  -1.08636
 Alpha  occ. eigenvalues --   -1.07269  -1.06781  -1.05246  -1.04741  -1.04111
 Alpha  occ. eigenvalues --   -1.03884  -1.03573  -1.03351  -1.02538  -1.01812
 Alpha  occ. eigenvalues --   -0.93059  -0.92119  -0.89994  -0.89621  -0.89463
 Alpha  occ. eigenvalues --   -0.89310  -0.88524  -0.88379  -0.87998  -0.87838
 Alpha  occ. eigenvalues --   -0.87813  -0.87451  -0.87345  -0.86588  -0.85185
 Alpha  occ. eigenvalues --   -0.84928  -0.84017  -0.83727  -0.82959  -0.82738
 Alpha  occ. eigenvalues --   -0.82673  -0.82026  -0.81720  -0.81361  -0.80692
 Alpha  occ. eigenvalues --   -0.80480  -0.78930  -0.78871  -0.77930  -0.77602
 Alpha  occ. eigenvalues --   -0.77400  -0.77105  -0.76640  -0.76154  -0.75291
 Alpha  occ. eigenvalues --   -0.75010  -0.73112  -0.72917  -0.72034  -0.71837
 Alpha  occ. eigenvalues --   -0.70001  -0.69757  -0.69058  -0.68961  -0.68609
 Alpha  occ. eigenvalues --   -0.67747  -0.67687  -0.67349  -0.66302  -0.65731
 Alpha  occ. eigenvalues --   -0.65480  -0.64988  -0.64845  -0.64765  -0.64574
 Alpha  occ. eigenvalues --   -0.64376  -0.63008  -0.62428  -0.61011  -0.60557
 Alpha  occ. eigenvalues --   -0.60430  -0.60026  -0.59375  -0.59111  -0.58809
 Alpha  occ. eigenvalues --   -0.58634  -0.58207  -0.57847  -0.57728  -0.57421
 Alpha  occ. eigenvalues --   -0.56482  -0.56417  -0.56135  -0.55867  -0.55622
 Alpha  occ. eigenvalues --   -0.55462  -0.55441  -0.55123  -0.54638  -0.54345
 Alpha  occ. eigenvalues --   -0.54156  -0.53872  -0.53509  -0.53450  -0.53426
 Alpha  occ. eigenvalues --   -0.53276  -0.53051  -0.52920  -0.52823  -0.52517
 Alpha  occ. eigenvalues --   -0.52451  -0.52345  -0.52125  -0.52032  -0.51775
 Alpha  occ. eigenvalues --   -0.51622  -0.51320  -0.50833  -0.50639  -0.50538
 Alpha  occ. eigenvalues --   -0.50432  -0.50203  -0.50074  -0.49987  -0.49850
 Alpha  occ. eigenvalues --   -0.49519  -0.49500  -0.49334  -0.49289  -0.49021
 Alpha  occ. eigenvalues --   -0.48846  -0.48799  -0.48659  -0.48542  -0.48523
 Alpha  occ. eigenvalues --   -0.48482  -0.48077  -0.47828  -0.47758  -0.47490
 Alpha  occ. eigenvalues --   -0.47376  -0.47015  -0.46963  -0.46889  -0.46770
 Alpha  occ. eigenvalues --   -0.46606  -0.46467  -0.46277  -0.46228  -0.45973
 Alpha  occ. eigenvalues --   -0.45831  -0.45380  -0.45256  -0.45082  -0.45001
 Alpha  occ. eigenvalues --   -0.44740  -0.44699  -0.44678  -0.44621  -0.44288
 Alpha  occ. eigenvalues --   -0.44235  -0.44130  -0.43934  -0.43678  -0.43614
 Alpha  occ. eigenvalues --   -0.43572  -0.43511  -0.43422  -0.43193  -0.43047
 Alpha  occ. eigenvalues --   -0.42836  -0.42799  -0.42719  -0.42188  -0.42175
 Alpha  occ. eigenvalues --   -0.42123  -0.41975  -0.41826  -0.41701  -0.41545
 Alpha  occ. eigenvalues --   -0.41362  -0.41203  -0.41037  -0.40866  -0.40795
 Alpha  occ. eigenvalues --   -0.40679  -0.40552  -0.40353  -0.39710  -0.39514
 Alpha  occ. eigenvalues --   -0.38906  -0.38768  -0.38586  -0.38162  -0.37935
 Alpha  occ. eigenvalues --   -0.37700  -0.37452  -0.37423  -0.37319  -0.37019
 Alpha  occ. eigenvalues --   -0.36838  -0.36318  -0.35561  -0.35411  -0.34420
 Alpha  occ. eigenvalues --   -0.33904  -0.33345  -0.33297  -0.31810  -0.31426
 Alpha  occ. eigenvalues --   -0.31381  -0.31349  -0.31161  -0.30986  -0.30431
 Alpha  occ. eigenvalues --   -0.30163  -0.29563  -0.29448  -0.24397  -0.24207
 Alpha  occ. eigenvalues --   -0.21530  -0.21259
 Alpha virt. eigenvalues --   -0.09054  -0.08910  -0.02306  -0.01866  -0.00394
 Alpha virt. eigenvalues --   -0.00198   0.01324   0.02083   0.03007   0.03458
 Alpha virt. eigenvalues --    0.04305   0.04469   0.04832   0.04951   0.05217

 Mulliken charges:
               1
     1  Mg   0.838600
     2  C   -0.003613
     3  C   -0.102039
     4  C   -0.045480
     5  C   -0.063748
     6  N   -0.257116
     7  C   -0.051711
     8  C   -0.013577
     9  C   -0.090152
    10  C    0.048524
    11  C    0.098177
    12  C    0.053342
    13  C   -0.071830
    14  H    0.037607
    15  N   -0.434399
    16  C    0.173632
    17  C   -0.178326
    18  C    0.004491
    19  C    0.148088
    20  C    0.140971
    21  C    0.011158
    22  O   -0.254801
    23  C    0.048479
    24  N   -0.341353
    25  C    0.041458
    26  C   -0.028436
    27  C   -0.023897
    28  C    0.074966
    29  C    0.075144
    30  C    0.034996
    31  C   -0.004545
    32  N   -0.310497
    33  C    0.080350
    34  C   -0.169510
    35  C    0.008217
    36  C    0.083116
    37  C    0.127312
    38  C    0.046260
    39  O   -0.188183
    40  C   -0.005545
    41  C    0.212856
    42  O   -0.256544
    43  O   -0.305165
    44  C    0.157543
    45  H   -0.018744
    46  H   -0.016356
    47  H   -0.041072
    48  H    0.000393
    49  H   -0.005081
    50  H    0.024168
    51  H    0.025445
    52  H    0.017588
    53  H    0.012002
    54  H    0.045166
    55  H    0.016993
    56  H    0.016689
    57  H    0.016127
    58  H    0.025238
    59  H    0.060147
    60  H    0.072420
    61  H    0.031010
    62  H    0.035628
    63  H    0.016573
    64  H    0.009682
    65  H    0.022969
    66  H    0.014744
    67  H    0.005270
    68  H    0.006609
    69  H    0.004817
    70  H    0.008968
    71  H    0.018476
    72  H    0.028935
    73  H    0.047886
    74  H    0.009494
    75  H    0.045861
    76  H    0.034335
    77  H    0.043176
    78  H    0.045987
    79  H    0.054229
    80  Mg   0.746003
    81  C   -0.058957
    82  C   -0.118665
    83  C   -0.061587
    84  C   -0.088801
    85  N   -0.242846
    86  C   -0.014897
    87  C    0.016141
    88  C   -0.048668
    89  C   -0.013621
    90  C    0.052646
    91  C    0.064535
    92  C   -0.071053
    93  H    0.002521
    94  N   -0.338753
    95  C    0.213281
    96  C   -0.160253
    97  C   -0.003549
    98  C    0.107055
    99  C    0.112466
   100  C    0.006080
   101  O   -0.226372
   102  C    0.037336
   103  N   -0.378734
   104  C    0.086912
   105  C   -0.055345
   106  C    0.004527
   107  C    0.025200
   108  C    0.061990
   109  C    0.044726
   110  C   -0.000774
   111  N   -0.387759
   112  C    0.132297
   113  C   -0.159375
   114  C   -0.021724
   115  C    0.152912
   116  C    0.125310
   117  C    0.082493
   118  O   -0.170901
   119  C   -0.034372
   120  C    0.196771
   121  O   -0.193967
   122  O   -0.339293
   123  C    0.166594
   124  H   -0.034160
   125  H   -0.010173
   126  H   -0.035546
   127  H    0.007133
   128  H    0.015543
   129  H    0.014759
   130  H    0.011701
   131  H    0.014150
   132  H    0.017725
   133  H    0.013453
   134  H    0.026147
   135  H    0.028977
   136  H    0.016364
   137  H    0.005964
   138  H    0.033933
   139  H    0.041764
   140  H    0.038922
   141  H    0.041830
   142  H    0.016316
   143  H    0.023283
   144  H    0.027719
   145  H    0.024753
   146  H    0.016711
   147  H    0.011714
   148  H    0.003172
   149  H    0.007542
   150  H    0.019237
   151  H    0.017912
   152  H    0.029147
   153  H    0.027242
   154  H    0.042668
   155  H    0.043747
   156  H    0.025150
   157  H    0.038539
   158  H    0.048544
 Sum of Mulliken charges =  -0.00000

 Dipole moment (field-independent basis, Debye):
    X=             -1.7413    Y=              1.4321    Z=              4.7173  Tot=              5.2283
 Quadrupole moment (field-independent basis, Debye-Ang):
   XX=           -572.3364   YY=           -464.1788   ZZ=           -533.3359
   XY=            -11.9025   XZ=            -11.1794   YZ=             27.5325

 Normal termination of Gaussian 16 at Wed Sep  1 16:05:25 2021.
