 Gaussian 16, Revision A.03,
 Gaussian 16:  ES64L-G16RevA.03 25-Dec-2016

 ----------------------------------------------------------
 #p cam-b3lyp/Def2SVP td=(nstates=5) density=(transition=1)
 ----------------------------------------------------------

 --------------------------------
 TDDFT excited states in gaussian
 --------------------------------
 Symbolic Z-matrix:
 Charge =  0 Multiplicity = 1

                         Standard orientation:
 ---------------------------------------------------------------------
 Center     Atomic      Atomic             Coordinates (Angstroms)
 Number     Number       Type             X           Y           Z
 ---------------------------------------------------------------------
      1         12           0       20.593614    0.643524   -0.302851
      2          6           0       20.909803   -2.722818    0.423316
      3          6           0       17.513688    0.650810    1.459766
      4          6           0       20.479451    4.064154   -0.471437
      5          6           0       23.796964    0.728038   -1.591424
      6          7           0       19.333510   -0.917066    0.683567
      7          6           0       19.734130   -2.211403    0.940397
      8          6           0       18.782362   -2.991414    1.922925
      9          6           0       17.500732   -2.031427    1.919631
     10          6           0       18.081286   -0.651256    1.278720
     11          6           0       16.183695   -2.506146    1.195437
     12          6           0       19.322980   -3.209036    3.292335
     13          6           0       19.534324   -4.611456    3.829676
     14          1           0       19.423812   -4.773377    5.354250
     15          7           0       19.129195    2.152047    0.322395
     16          6           0       17.916693    1.881674    0.984301
     17          6           0       17.174352    3.092273    1.137985
     18          6           0       18.115222    4.159872    0.708199
     19          6           0       19.337296    3.495734    0.158078
     20          6           0       15.834877    3.191698    1.875310
     21          6           0       17.747860    5.648505    0.836640
     22          8           0       16.716284    6.122057    1.304320
     23          6           0       18.852798    6.632202    0.679290
     24          7           0       22.072406    2.272725   -0.801553
     25          6           0       21.674013    3.543507   -0.950008
     26          6           0       22.939041    4.372197   -1.168458
     27          6           0       24.059081    3.329315   -1.634633
     28          6           0       23.266492    1.974643   -1.357931
     29          6           0       22.700365    5.402571   -2.328515
     30          6           0       25.481990    3.337612   -0.939077
     31          6           0       26.726556    3.714945   -1.728567
     32          7           0       22.080103   -0.750249   -0.627587
     33          6           0       23.344217   -0.587186   -1.202828
     34          6           0       24.056977   -1.827679   -1.173289
     35          6           0       23.155707   -2.734291   -0.534277
     36          6           0       21.940525   -1.987199   -0.277676
     37          6           0       25.439236   -2.121124   -1.665203
     38          6           0       22.926186   -4.056962   -0.120680
     39          8           0       23.675520   -5.008942   -0.209197
     40          6           0       21.515230   -4.097754    0.584334
     41          6           0       20.783366   -5.278796    0.100417
     42          8           0       20.631913   -6.296358    0.766944
     43          8           0       20.335457   -5.066092   -1.194817
     44          6           0       19.626722   -6.235479   -1.761603
     45          1           0       16.539843    0.767951    1.938823
     46          1           0       20.322094    5.141230   -0.563131
     47          1           0       24.822156    0.783872   -1.963000
     48          1           0       18.517435   -3.952095    1.482699
     49          1           0       17.296437   -1.788149    2.962929
     50          1           0       16.297806   -3.570866    0.992086
     51          1           0       15.953202   -1.970505    0.274439
     52          1           0       15.357566   -2.298592    1.874511
     53          1           0       18.596084   -2.774801    3.980401
     54          1           0       20.301916   -2.739757    3.384038
     55          1           0       20.560663   -4.899779    3.604403
     56          1           0       18.819324   -5.335644    3.439922
     57          1           0       15.396832    2.328254    2.375493
     58          1           0       15.187216    3.613343    1.107037
     59          1           0       15.972749    4.059703    2.519235
     60          1           0       19.079738    7.035392   -0.306710
     61          1           0       19.770986    6.302191    1.165452
     62          1           0       18.534435    7.525306    1.218266
     63          1           0       23.257243    4.904145   -0.271575
     64          1           0       24.166122    3.353409   -2.718533
     65          1           0       23.022218    6.374605   -1.954830
     66          1           0       21.675958    5.466126   -2.697630
     67          1           0       23.266617    5.172360   -3.231284
     68          1           0       25.587282    2.324466   -0.551699
     69          1           0       25.408351    4.095226   -0.157652
     70          1           0       27.551687    3.240314   -1.196947
     71          1           0       26.870627    4.793728   -1.664893
     72          1           0       26.828071    3.405595   -2.768270
     73          1           0       25.607881   -3.179475   -1.464610
     74          1           0       26.117466   -1.450208   -1.138841
     75          1           0       25.591680   -1.979567   -2.735319
     76          1           0       21.760049   -4.274628    1.632199
     77          1           0       20.333356   -6.891221   -2.270188
     78          1           0       18.828971   -5.827017   -2.381930
     79          1           0       19.103568   -6.804014   -0.993247
     80         12           0      -21.353146    0.205993   -0.307679
     81          6           0      -18.167901   -1.302981   -0.290319
     82          6           0      -22.644591   -2.864339    0.079458
     83          6           0      -24.190885    1.755419    0.168904
     84          6           0      -19.630901    3.322516   -0.004983
     85          7           0      -20.473527   -1.837294   -0.082947
     86          6           0      -19.189937   -2.257770   -0.179583
     87          6           0      -19.035094   -3.763045   -0.101046
     88          6           0      -20.545380   -4.203608   -0.261883
     89          6           0      -21.317048   -2.914650   -0.068641
     90          6           0      -20.894518   -4.898813   -1.642149
     91          6           0      -18.341386   -4.471338    1.143132
     92          6           0      -18.105029   -3.716969    2.478488
     93          1           0      -18.190822   -4.541788    3.816801
     94          7           0      -23.211519   -0.534499   -0.055579
     95          6           0      -23.545354   -1.794769    0.187916
     96          6           0      -24.999047   -1.856576    0.501163
     97          6           0      -25.489605   -0.456808    0.355713
     98          6           0      -24.264768    0.318997    0.158658
     99          6           0      -25.766886   -3.137016    0.690350
    100          6           0      -26.914412   -0.000464    0.530967
    101          8           0      -27.782291   -0.844862    0.738544
    102          6           0      -27.399458    1.496147    0.535504
    103          7           0      -21.866960    2.318677    0.158875
    104          6           0      -23.124317    2.595743    0.121323
    105          6           0      -23.264577    4.181962    0.179397
    106          6           0      -21.802387    4.590605    0.369624
    107          6           0      -21.011481    3.310633    0.179721
    108          6           0      -23.965463    4.914920   -0.976588
    109          6           0      -21.456875    5.083336    1.869140
    110          6           0      -21.080039    6.567054    2.034158
    111          7           0      -19.364643    0.927408   -0.108413
    112          6           0      -18.816331    2.182681   -0.121351
    113          6           0      -17.349120    2.111088   -0.345448
    114          6           0      -17.007500    0.730041   -0.293426
    115          6           0      -18.317011    0.081275   -0.258586
    116          6           0      -16.352419    3.290978   -0.384989
    117          6           0      -15.978500   -0.255393   -0.310856
    118          8           0      -14.738115   -0.216328   -0.241309
    119          6           0      -16.686491   -1.632028   -0.387331
    120          6           0      -16.201423   -2.308427   -1.672830
    121          8           0      -15.443187   -3.218273   -1.879920
    122          8           0      -16.976287   -1.816575   -2.728853
    123          6           0      -16.766207   -2.418177   -4.082290
    124          1           0      -23.036678   -3.874887    0.213233
    125          1           0      -25.169177    2.226707    0.290711
    126          1           0      -19.145344    4.285446   -0.174493
    127          1           0      -18.515710   -4.032247   -1.020581
    128          1           0      -20.789105   -4.936163    0.507712
    129          1           0      -20.026888   -4.913977   -2.300909
    130          1           0      -21.568825   -4.167338   -2.086172
    131          1           0      -21.326731   -5.882623   -1.458443
    132          1           0      -17.382578   -4.851676    0.790569
    133          1           0      -18.902121   -5.373354    1.390505
    134          1           0      -18.863743   -2.934980    2.510080
    135          1           0      -17.086357   -3.350984    2.603062
    136          1           0      -26.847255   -3.002110    0.642760
    137          1           0      -25.379080   -3.593483    1.601805
    138          1           0      -25.382856   -3.784141   -0.098915
    139          1           0      -27.142250    2.174428   -0.278930
    140          1           0      -26.952791    1.990579    1.398138
    141          1           0      -28.484789    1.574536    0.591940
    142          1           0      -23.879237    4.496232    1.022242
    143          1           0      -21.392910    5.387390   -0.252290
    144          1           0      -24.328309    4.222010   -1.735913
    145          1           0      -23.325403    5.681137   -1.415291
    146          1           0      -24.869345    5.442330   -0.671719
    147          1           0      -20.610540    4.539982    2.287127
    148          1           0      -22.342205    4.850661    2.461274
    149          1           0      -20.355810    6.783367    2.819917
    150          1           0      -22.003956    7.062753    2.331956
    151          1           0      -20.683188    6.833184    1.054396
    152          1           0      -16.746994    4.240962   -0.026003
    153          1           0      -16.105525    3.389847   -1.441761
    154          1           0      -15.439396    2.980214    0.122264
    155          1           0      -16.397211   -2.234345    0.473216
    156          1           0      -15.776391   -2.796536   -4.336708
    157          1           0      -16.931413   -1.576059   -4.754072
    158          1           0      -17.467686   -3.177349   -4.428844
 ---------------------------------------------------------------------

 SCF Done:  E(RCAM-B3LYP) =  -4069.77950850     A.U. after   19 cycles

 Excitation energies and oscillator strengths:

 Excited State   1:      Singlet-A      1.7132 eV  723.69 nm  f=0.3882  <S**2>=0.000
     309 -> 315        0.17419
     311 -> 313        0.68629
     309 <- 315        0.10488
 This state for optimization and/or second-order correction.
 Total Energy, E(TD-HF/TD-DFT) =  -4069.71654849
 Copying the excited state density for this state as the 1-particle RhoCI density.

 Excited State   2:      Singlet-A      1.7690 eV  700.88 nm  f=0.4044  <S**2>=0.000
     310 -> 316       -0.18507
     312 -> 314        0.68372
     310 <- 316       -0.10632

 Excited State   3:      Singlet-A      2.1719 eV  570.85 nm  f=0.1588  <S**2>=0.000
     309 -> 313        0.65197
     311 -> 315       -0.25355

 Excited State   4:      Singlet-A      2.2833 eV  542.99 nm  f=0.0990  <S**2>=0.000
     310 -> 314        0.63711
     312 -> 316        0.29627

 Excited State   5:      Singlet-A      2.9950 eV  413.97 nm  f=0.0000  <S**2>=0.000
     312 -> 313        0.70710

 The electronic state is 1-A.
 Alpha  occ. eigenvalues --  -46.90484 -46.90092 -19.25123 -19.24623 -19.20440
 Alpha  occ. eigenvalues --  -19.19828 -19.19490 -19.19111 -19.18622 -19.18303
 Alpha  occ. eigenvalues --  -14.43488 -14.42339 -14.41994 -14.41864 -14.40460
 Alpha  occ. eigenvalues --  -14.40187 -14.40050 -14.39874 -10.39904 -10.39126
 Alpha  occ. eigenvalues --  -10.35714 -10.35628 -10.35275 -10.34191 -10.33109
 Alpha  occ. eigenvalues --  -10.32075 -10.31892 -10.31686 -10.31671 -10.31546
 Alpha  occ. eigenvalues --  -10.31512 -10.31146 -10.31050 -10.30827 -10.30794
 Alpha  occ. eigenvalues --  -10.30753 -10.30420 -10.30199 -10.30132 -10.30128
 Alpha  occ. eigenvalues --  -10.30124 -10.29890 -10.29834 -10.29428 -10.29421
 Alpha  occ. eigenvalues --  -10.29094 -10.28993 -10.28821 -10.28778 -10.28707
 Alpha  occ. eigenvalues --  -10.28676 -10.28517 -10.28437 -10.28292 -10.28270
 Alpha  occ. eigenvalues --  -10.28261 -10.28197 -10.28043 -10.27933 -10.27896
 Alpha  occ. eigenvalues --  -10.27845 -10.27646 -10.27587 -10.27463 -10.27397
 Alpha  occ. eigenvalues --  -10.27336 -10.27269 -10.27207 -10.27112 -10.27034
 Alpha  occ. eigenvalues --  -10.26980 -10.26858 -10.26829 -10.26608 -10.26590
 Alpha  occ. eigenvalues --  -10.26401 -10.26367 -10.26246 -10.26200 -10.26181
 Alpha  occ. eigenvalues --  -10.26054 -10.25904 -10.25811 -10.25416 -10.25402
 Alpha  occ. eigenvalues --  -10.24911  -3.18695  -3.18570  -1.93623  -1.93458
 Alpha  occ. eigenvalues --   -1.93126  -1.93024  -1.92997  -1.92873  -1.16083
 Alpha  occ. eigenvalues --   -1.15537  -1.10059  -1.09770  -1.09592  -1.09353
 Alpha  occ. eigenvalues --   -1.07480  -1.07304  -1.06769  -1.04849  -1.04820
 Alpha  occ. eigenvalues --   -1.04058  -1.04036  -1.03327  -1.02571  -1.01738
 Alpha  occ. eigenvalues --   -0.93609  -0.92588  -0.89831  -0.89504  -0.89379
 Alpha  occ. eigenvalues --   -0.88848  -0.88639  -0.88326  -0.88197  -0.87696
 Alpha  occ. eigenvalues --   -0.87176  -0.86928  -0.85818  -0.85435  -0.84916
 Alpha  occ. eigenvalues --   -0.84516  -0.83982  -0.83847  -0.82927  -0.82896
 Alpha  occ. eigenvalues --   -0.82230  -0.81819  -0.80889  -0.80834  -0.80753
 Alpha  occ. eigenvalues --   -0.80570  -0.78543  -0.77838  -0.77736  -0.77188
 Alpha  occ. eigenvalues --   -0.77054  -0.76987  -0.76716  -0.76220  -0.75529
 Alpha  occ. eigenvalues --   -0.75395  -0.73505  -0.73345  -0.72423  -0.72285
 Alpha  occ. eigenvalues --   -0.69592  -0.69398  -0.69294  -0.68996  -0.68716
 Alpha  occ. eigenvalues --   -0.67993  -0.67553  -0.67132  -0.66882  -0.65722
 Alpha  occ. eigenvalues --   -0.65637  -0.65539  -0.65473  -0.65251  -0.64901
 Alpha  occ. eigenvalues --   -0.64810  -0.63190  -0.63007  -0.60629  -0.60253
 Alpha  occ. eigenvalues --   -0.60226  -0.59751  -0.59491  -0.59460  -0.59068
 Alpha  occ. eigenvalues --   -0.58579  -0.58113  -0.57795  -0.57339  -0.56988
 Alpha  occ. eigenvalues --   -0.56554  -0.56397  -0.55976  -0.55902  -0.55721
 Alpha  occ. eigenvalues --   -0.55448  -0.55100  -0.54811  -0.54557  -0.53973
 Alpha  occ. eigenvalues --   -0.53849  -0.53638  -0.53523  -0.53234  -0.53035
 Alpha  occ. eigenvalues --   -0.52851  -0.52827  -0.52787  -0.52481  -0.52094
 Alpha  occ. eigenvalues --   -0.52044  -0.51847  -0.51793  -0.51562  -0.51328
 Alpha  occ. eigenvalues --   -0.51273  -0.51136  -0.50936  -0.50643  -0.50377
 Alpha  occ. eigenvalues --   -0.50210  -0.50042  -0.49825  -0.49713  -0.49514
 Alpha  occ. eigenvalues --   -0.49495  -0.49144  -0.49054  -0.48902  -0.48872
 Alpha  occ. eigenvalues --   -0.48649  -0.48580  -0.48540  -0.48319  -0.48309
 Alpha  occ. eigenvalues --   -0.47948  -0.47925  -0.47797  -0.47658  -0.47460
 Alpha  occ. eigenvalues --   -0.47262  -0.47173  -0.47013  -0.46960  -0.46707
 Alpha  occ. eigenvalues --   -0.46672  -0.46582  -0.46303  -0.46127  -0.46114
 Alpha  occ. eigenvalues --   -0.45990  -0.45928  -0.45837  -0.45685  -0.45555
 Alpha  occ. eigenvalues --   -0.45385  -0.45310  -0.45187  -0.44896  -0.44671
 Alpha  occ. eigenvalues --   -0.44523  -0.44234  -0.44120  -0.43944  -0.43725
 Alpha  occ. eigenvalues --   -0.43633  -0.43606  -0.43320  -0.43150  -0.42979
 Alpha  occ. eigenvalues --   -0.42756  -0.42703  -0.42427  -0.42280  -0.42228
 Alpha  occ. eigenvalues --   -0.42097  -0.42037  -0.41594  -0.41500  -0.41491
 Alpha  occ. eigenvalues --   -0.41275  -0.41272  -0.40948  -0.40709  -0.40483
 Alpha  occ. eigenvalues --   -0.39994  -0.39967  -0.39710  -0.39461  -0.39261
 Alpha  occ. eigenvalues --   -0.38878  -0.38350  -0.38233  -0.37814  -0.37684
 Alpha  occ. eigenvalues --   -0.37409  -0.37212  -0.36920  -0.36781  -0.36689
 Alpha  occ. eigenvalues --   -0.36346  -0.35892  -0.35039  -0.34487  -0.34316
 Alpha  occ. eigenvalues --   -0.34289  -0.33671  -0.33332  -0.31935  -0.31760
 Alpha  occ. eigenvalues --   -0.31439  -0.31221  -0.31072  -0.30988  -0.30526
 Alpha  occ. eigenvalues --   -0.30189  -0.29579  -0.29294  -0.24613  -0.24517
 Alpha  occ. eigenvalues --   -0.22152  -0.21557
 Alpha virt. eigenvalues --   -0.09724  -0.08937  -0.02336  -0.02056  -0.00643
 Alpha virt. eigenvalues --    0.00024   0.01163   0.01845   0.02217   0.02340
 Alpha virt. eigenvalues --    0.04281   0.04511   0.04943   0.05272   0.05416

 Mulliken charges:
               1
     1  Mg  11.998571
     2  C    5.975424
     3  C    6.007257
     4  C    6.037094
     5  C    5.996413
     6  N    6.986139
     7  C    6.031461
     8  C    5.989598
     9  C    6.004582
    10  C    5.968284
    11  C    6.005155
    12  C    6.000792
    13  C    5.998447
    14  H    1.004049
    15  N    7.014916
    16  C    5.954515
    17  C    5.981325
    18  C    5.988449
    19  C    5.952024
    20  C    6.003365
    21  C    5.989517
    22  O    7.980110
    23  C    6.006517
    24  N    7.008017
    25  C    5.961694
    26  C    6.009839
    27  C    5.996040
    28  C    6.024594
    29  C    6.002478
    30  C    5.995799
    31  C    5.999023
    32  N    6.994566
    33  C    6.042545
    34  C    6.024509
    35  C    6.004494
    36  C    6.034606
    37  C    5.999048
    38  C    6.015716
    39  O    8.033389
    40  C    6.004223
    41  C    6.005195
    42  O    8.007315
    43  O    7.997451
    44  C    5.996788
    45  H    0.986869
    46  H    1.001117
    47  H    1.013697
    48  H    0.997382
    49  H    0.997407
    50  H    0.984576
    51  H    0.999499
    52  H    0.997458
    53  H    1.009300
    54  H    0.994675
    55  H    0.992857
    56  H    1.001384
    57  H    0.982135
    58  H    0.982313
    59  H    0.984484
    60  H    0.986113
    61  H    0.989697
    62  H    0.988937
    63  H    0.998115
    64  H    1.000767
    65  H    0.999693
    66  H    1.005287
    67  H    0.992564
    68  H    0.992621
    69  H    1.011481
    70  H    1.000586
    71  H    1.007681
    72  H    1.000369
    73  H    1.012711
    74  H    1.018396
    75  H    1.020320
    76  H    1.005739
    77  H    0.999945
    78  H    1.006762
    79  H    1.005733
    80  Mg  11.999910
    81  C    5.999637
    82  C    6.000349
    83  C    6.000419
    84  C    5.999666
    85  N    7.000005
    86  C    6.000580
    87  C    5.999801
    88  C    6.000178
    89  C    5.999553
    90  C    6.000031
    91  C    6.000031
    92  C    5.999852
    93  H    1.000145
    94  N    7.000165
    95  C    5.999272
    96  C    5.999495
    97  C    5.999926
    98  C    5.999296
    99  C    6.000072
   100  C    5.999813
   101  O    7.999666
   102  C    6.000060
   103  N    6.999959
   104  C    5.999540
   105  C    6.000128
   106  C    5.999915
   107  C    6.000494
   108  C    6.000028
   109  C    5.999874
   110  C    6.000000
   111  N    6.999954
   112  C    6.000611
   113  C    6.000440
   114  C    6.000190
   115  C    6.000407
   116  C    5.999951
   117  C    6.000298
   118  O    8.000635
   119  C    5.999993
   120  C    6.000041
   121  O    8.000167
   122  O    7.999945
   123  C    5.999947
   124  H    0.999801
   125  H    0.999814
   126  H    1.000157
   127  H    1.000028
   128  H    0.999938
   129  H    0.999789
   130  H    1.000056
   131  H    0.999916
   132  H    1.000004
   133  H    1.000100
   134  H    1.000049
   135  H    1.000003
   136  H    0.999693
   137  H    0.999631
   138  H    0.999628
   139  H    0.999823
   140  H    0.999859
   141  H    0.999755
   142  H    0.999972
   143  H    1.000011
   144  H    1.000018
   145  H    0.999858
   146  H    0.999955
   147  H    0.999983
   148  H    1.000184
   149  H    1.000062
   150  H    1.000059
   151  H    1.000011
   152  H    1.000332
   153  H    1.000336
   154  H    1.000341
   155  H    1.000182
   156  H    1.000090
   157  H    1.000041
   158  H    1.000083
 Sum of Mulliken charges = 624.00000

 Dipole moment (field-independent basis, Debye):
    X=              8.5093    Y=             -6.3093    Z=             -2.7002  Tot=             10.9319
 Quadrupole moment (field-independent basis, Debye-Ang):
   XX=            336.0876   YY=             -6.3744   ZZ=              0.4069
   XY=           -127.1526   XZ=            -55.0369   YZ=             -2.1760

 Normal termination of Gaussian 16 at Thu Sep 23 04:19:28 2021.
