 Gaussian 16, Revision A.03,
 Gaussian 16:  ES64L-G16RevA.03 25-Dec-2016

 ----------------------------------------------------------
 #p cam-b3lyp/Def2SVP td=(nstates=5) density=(transition=1)
 ----------------------------------------------------------

 --------------------------------
 TDDFT excited states in gaussian
 --------------------------------
 Symbolic Z-matrix:
 Charge =  0 Multiplicity = 1

                         Standard orientation:
 ---------------------------------------------------------------------
 Center     Atomic      Atomic             Coordinates (Angstroms)
 Number     Number       Type             X           Y           Z
 ---------------------------------------------------------------------
      1         12           0      -13.177112   -0.253656   -0.332872
      2          6           0       -9.892359   -0.066963    0.673683
      3          6           0      -13.801878    2.654885    1.513380
      4          6           0      -16.436507   -0.412910   -1.196216
      5          6           0      -12.583340   -3.261928   -1.787171
      6          7           0      -11.994392    0.984647    1.174356
      7          6           0      -10.594399    0.979238    1.209758
      8          6           0      -10.027074    2.247666    1.877171
      9          6           0      -11.356841    3.017296    2.214870
     10          6           0      -12.482220    2.233642    1.574250
     11          6           0      -11.568993    3.216263    3.710312
     12          6           0       -9.005430    3.145006    1.092897
     13          6           0       -7.484959    3.204824    1.660589
     14          1           0       -7.084516    4.637949    2.024313
     15          7           0      -14.876437    0.858206    0.162096
     16          6           0      -14.894072    2.094023    0.828721
     17          6           0      -16.199432    2.750488    0.701957
     18          6           0      -17.088181    1.813128   -0.056943
     19          6           0      -16.144222    0.700253   -0.472747
     20          6           0      -16.507385    4.103068    1.305492
     21          6           0      -18.498694    1.892709   -0.407962
     22          8           0      -19.048580    0.932253   -0.966910
     23          6           0      -19.373142    3.084853   -0.060908
     24          7           0      -14.287857   -1.653199   -1.243701
     25          6           0      -15.627086   -1.472351   -1.636066
     26          6           0      -16.202925   -2.597333   -2.587840
     27          6           0      -14.884077   -3.520987   -2.714448
     28          6           0      -13.846339   -2.746416   -1.870891
     29          6           0      -17.479731   -3.379378   -2.001822
     30          6           0      -14.450569   -3.711359   -4.208668
     31          6           0      -13.916773   -5.047791   -4.619730
     32          7           0      -11.549165   -1.490365   -0.426068
     33          6           0      -11.438262   -2.698105   -1.121046
     34          6           0      -10.087981   -3.146358   -1.149768
     35          6           0       -9.400195   -2.049943   -0.509599
     36          6           0      -10.362911   -1.145552   -0.043748
     37          6           0       -9.468804   -4.326076   -1.773387
     38          6           0       -8.121550   -1.634060   -0.024416
     39          8           0       -6.968342   -2.069792   -0.113024
     40          6           0       -8.432114   -0.375186    0.906048
     41          6           0       -8.058570   -0.711496    2.305434
     42          8           0       -8.750400   -1.051733    3.182768
     43          8           0       -6.707626   -0.447654    2.518915
     44          6           0       -6.347389   -0.167607    3.893302
     45          1           0      -13.968993    3.609069    2.017483
     46          1           0      -17.443397   -0.545929   -1.597220
     47          1           0      -12.357392   -4.150665   -2.380023
     48          1           0       -9.558022    1.963195    2.818451
     49          1           0      -11.334682    4.042886    1.845347
     50          1           0      -12.443365    2.643556    4.018319
     51          1           0      -11.775842    4.283478    3.780382
     52          1           0      -10.704213    3.018886    4.343439
     53          1           0       -9.403099    4.159936    1.070476
     54          1           0       -8.882118    2.799235    0.066479
     55          1           0       -6.905120    2.911656    0.785230
     56          1           0       -7.373300    2.543728    2.519709
     57          1           0      -16.591851    3.950440    2.382155
     58          1           0      -17.461189    4.440529    0.902856
     59          1           0      -15.694811    4.821980    1.198458
     60          1           0      -20.399119    2.726358   -0.146774
     61          1           0      -19.198059    3.957935   -0.690407
     62          1           0      -19.386658    3.409340    0.979397
     63          1           0      -16.382003   -2.184564   -3.580111
     64          1           0      -15.004250   -4.544918   -2.359841
     65          1           0      -17.385860   -4.433488   -2.263692
     66          1           0      -18.446375   -3.139477   -2.443033
     67          1           0      -17.586243   -3.273249   -0.922059
     68          1           0      -13.748869   -2.957385   -4.565004
     69          1           0      -15.289188   -3.627679   -4.899645
     70          1           0      -12.867077   -4.863401   -4.847734
     71          1           0      -14.219368   -5.497508   -5.565405
     72          1           0      -14.011487   -5.752563   -3.792992
     73          1           0      -10.079248   -4.622509   -2.626817
     74          1           0       -9.536586   -5.095622   -1.004519
     75          1           0       -8.408245   -4.123673   -1.924082
     76          1           0       -7.841461    0.481915    0.583586
     77          1           0       -6.341470   -1.149506    4.365298
     78          1           0       -7.161091    0.438901    4.290646
     79          1           0       -5.356488    0.281700    3.965137
     80         12           0       13.079694   -0.211362    0.278818
     81          6           0       11.568501    2.464095   -1.342097
     82          6           0       10.428319    0.039506    2.670224
     83          6           0       14.100019   -3.022628    1.643003
     84          6           0       15.111803   -0.681147   -2.550944
     85          7           0       11.164828    1.027050    0.533643
     86          6           0       10.850347    2.122466   -0.238977
     87          6           0        9.551150    2.762170    0.258151
     88          6           0        9.407388    2.128628    1.669599
     89          6           0       10.356305    0.959601    1.634384
     90          6           0        9.702842    3.027954    2.933598
     91          6           0        8.351388    2.485105   -0.662619
     92          6           0        7.106067    3.214341   -0.330143
     93          1           0        6.048279    3.393260   -1.485206
     94          7           0       12.362748   -1.374239    1.942184
     95          6           0       11.290241   -1.089019    2.801532
     96          6           0       11.224301   -2.128562    3.790523
     97          6           0       12.212082   -3.115906    3.425074
     98          6           0       12.974293   -2.497077    2.286011
     99          6           0       10.133486   -2.175253    4.895891
    100          6           0       12.389631   -4.431461    4.189788
    101          8           0       11.806063   -4.651913    5.238053
    102          6           0       13.303321   -5.461375    3.643952
    103          7           0       14.579052   -1.518967   -0.277914
    104          6           0       14.827394   -2.585688    0.489488
    105          6           0       15.885343   -3.521607   -0.223642
    106          6           0       16.203056   -2.837504   -1.608655
    107          6           0       15.173361   -1.583416   -1.514141
    108          6           0       17.141283   -3.933438    0.588555
    109          6           0       15.842272   -3.788680   -2.769733
    110          6           0       16.679535   -3.612726   -4.042418
    111          7           0       13.356651    0.666397   -1.608607
    112          6           0       14.285265    0.461822   -2.590419
    113          6           0       14.160247    1.539570   -3.579005
    114          6           0       13.191957    2.368025   -3.078548
    115          6           0       12.679516    1.793709   -1.937404
    116          6           0       15.049294    1.742198   -4.810220
    117          6           0       12.446892    3.561433   -3.345548
    118          8           0       12.519111    4.380042   -4.228750
    119          6           0       11.368404    3.681414   -2.217492
    120          6           0       11.669374    4.914040   -1.438714
    121          8           0       12.728577    5.243101   -0.981267
    122          8           0       10.462550    5.590756   -1.190605
    123          6           0       10.567334    6.768108   -0.376476
    124          1           0        9.641387    0.256031    3.395059
    125          1           0       14.559370   -3.950458    1.991575
    126          1           0       15.777314   -0.756005   -3.413614
    127          1           0        9.773290    3.820509    0.387912
    128          1           0        8.446281    1.664193    1.887434
    129          1           0        8.821981    2.894177    3.561162
    130          1           0       10.157344    4.005247    2.768831
    131          1           0       10.495765    2.524822    3.486785
    132          1           0        7.979727    1.460082   -0.656661
    133          1           0        8.624043    2.693779   -1.697190
    134          1           0        7.408786    4.193327    0.041403
    135          1           0        6.626864    2.723450    0.516726
    136          1           0        9.529321   -2.966969    4.451720
    137          1           0        9.454832   -1.322914    4.934112
    138          1           0       10.345686   -2.395480    5.942271
    139          1           0       13.008422   -5.561721    2.599418
    140          1           0       13.089031   -6.408032    4.140220
    141          1           0       14.291655   -5.026221    3.794095
    142          1           0       15.364469   -4.463350   -0.398882
    143          1           0       17.220079   -2.462454   -1.718616
    144          1           0       17.028259   -4.979647    0.874535
    145          1           0       17.263234   -3.234660    1.415500
    146          1           0       18.016141   -3.931663   -0.061582
    147          1           0       14.788432   -3.595626   -2.968744
    148          1           0       15.842070   -4.844090   -2.496583
    149          1           0       17.105663   -4.605547   -4.190735
    150          1           0       17.418610   -2.812996   -3.992849
    151          1           0       16.031290   -3.420629   -4.897478
    152          1           0       14.540124    2.001062   -5.737981
    153          1           0       15.565887    0.783985   -4.870397
    154          1           0       15.848223    2.413058   -4.493977
    155          1           0       10.405613    3.755291   -2.723282
    156          1           0       10.388142    7.615234   -1.038634
    157          1           0       11.483430    6.951252    0.185577
    158          1           0        9.786562    6.706763    0.381152
 ---------------------------------------------------------------------

 SCF Done:  E(RCAM-B3LYP) =  -4069.80236048     A.U. after   18 cycles

 Excitation energies and oscillator strengths:

 Excited State   1:      Singlet-A      1.6721 eV  741.49 nm  f=0.4133  <S**2>=0.000
     310 -> 315        0.15727
     312 -> 313        0.68845
 This state for optimization and/or second-order correction.
 Total Energy, E(TD-HF/TD-DFT) =  -4069.74091178
 Copying the excited state density for this state as the 1-particle RhoCI density.

 Excited State   2:      Singlet-A      1.7659 eV  702.10 nm  f=0.3937  <S**2>=0.000
     309 -> 316       -0.17233
     311 -> 314        0.68742
     309 <- 316       -0.10339

 Excited State   3:      Singlet-A      2.1914 eV  565.79 nm  f=0.1269  <S**2>=0.000
     310 -> 313        0.64542
     312 -> 315       -0.25765

 Excited State   4:      Singlet-A      2.2944 eV  540.38 nm  f=0.1180  <S**2>=0.000
     309 -> 314        0.63737
     311 -> 316        0.29058

 Excited State   5:      Singlet-A      2.9818 eV  415.80 nm  f=0.0000  <S**2>=0.000
     311 -> 313        0.70705

 The electronic state is 1-A.
 Alpha  occ. eigenvalues --  -46.89577 -46.87956 -19.24876 -19.22214 -19.20427
 Alpha  occ. eigenvalues --  -19.19626 -19.18883 -19.18603 -19.18450 -19.17984
 Alpha  occ. eigenvalues --  -14.42588 -14.42575 -14.42259 -14.42025 -14.40299
 Alpha  occ. eigenvalues --  -14.40142 -14.39012 -14.38612 -10.39435 -10.38148
 Alpha  occ. eigenvalues --  -10.35359 -10.34771 -10.34237 -10.34076 -10.32281
 Alpha  occ. eigenvalues --  -10.31857 -10.31511 -10.31317 -10.31163 -10.31094
 Alpha  occ. eigenvalues --  -10.31077 -10.31061 -10.31034 -10.30995 -10.30790
 Alpha  occ. eigenvalues --  -10.30669 -10.30496 -10.30475 -10.30306 -10.29571
 Alpha  occ. eigenvalues --  -10.29456 -10.29316 -10.29263 -10.29149 -10.28586
 Alpha  occ. eigenvalues --  -10.28472 -10.28288 -10.28275 -10.28264 -10.28155
 Alpha  occ. eigenvalues --  -10.28154 -10.28111 -10.28077 -10.27887 -10.27819
 Alpha  occ. eigenvalues --  -10.27780 -10.27742 -10.27701 -10.27664 -10.27660
 Alpha  occ. eigenvalues --  -10.27643 -10.27505 -10.27442 -10.27339 -10.27330
 Alpha  occ. eigenvalues --  -10.27197 -10.26840 -10.26715 -10.26568 -10.26518
 Alpha  occ. eigenvalues --  -10.26506 -10.26483 -10.26465 -10.26401 -10.26297
 Alpha  occ. eigenvalues --  -10.26210 -10.26165 -10.26009 -10.25989 -10.25987
 Alpha  occ. eigenvalues --  -10.25912 -10.25851 -10.25556 -10.25347 -10.24517
 Alpha  occ. eigenvalues --  -10.23902  -3.17999  -3.16718  -1.92905  -1.92457
 Alpha  occ. eigenvalues --   -1.92286  -1.91587  -1.91183  -1.91035  -1.16819
 Alpha  occ. eigenvalues --   -1.16550  -1.10261  -1.10029  -1.09588  -1.08760
 Alpha  occ. eigenvalues --   -1.08151  -1.07760  -1.04663  -1.04511  -1.03707
 Alpha  occ. eigenvalues --   -1.03638  -1.03462  -1.02740  -1.02096  -1.00656
 Alpha  occ. eigenvalues --   -0.93184  -0.92622  -0.89319  -0.89215  -0.89151
 Alpha  occ. eigenvalues --   -0.88760  -0.88649  -0.88532  -0.88011  -0.87380
 Alpha  occ. eigenvalues --   -0.87231  -0.86705  -0.86376  -0.85865  -0.85127
 Alpha  occ. eigenvalues --   -0.84257  -0.83973  -0.83492  -0.83072  -0.82506
 Alpha  occ. eigenvalues --   -0.82438  -0.81923  -0.81222  -0.80902  -0.80771
 Alpha  occ. eigenvalues --   -0.80260  -0.78806  -0.77676  -0.77434  -0.77275
 Alpha  occ. eigenvalues --   -0.77024  -0.76728  -0.76129  -0.75446  -0.75297
 Alpha  occ. eigenvalues --   -0.75269  -0.73166  -0.73098  -0.71965  -0.71721
 Alpha  occ. eigenvalues --   -0.69360  -0.69250  -0.68996  -0.68719  -0.67981
 Alpha  occ. eigenvalues --   -0.67702  -0.67583  -0.66674  -0.66020  -0.65700
 Alpha  occ. eigenvalues --   -0.65495  -0.65338  -0.65028  -0.64895  -0.64533
 Alpha  occ. eigenvalues --   -0.63920  -0.62626  -0.60898  -0.60217  -0.60156
 Alpha  occ. eigenvalues --   -0.59817  -0.59436  -0.59229  -0.59032  -0.58778
 Alpha  occ. eigenvalues --   -0.58492  -0.58377  -0.58330  -0.57729  -0.57493
 Alpha  occ. eigenvalues --   -0.56536  -0.56422  -0.55825  -0.55611  -0.55395
 Alpha  occ. eigenvalues --   -0.55320  -0.54857  -0.54301  -0.53960  -0.53951
 Alpha  occ. eigenvalues --   -0.53665  -0.53488  -0.53296  -0.53233  -0.53064
 Alpha  occ. eigenvalues --   -0.53029  -0.52709  -0.52565  -0.52308  -0.52185
 Alpha  occ. eigenvalues --   -0.51829  -0.51648  -0.51634  -0.51572  -0.51397
 Alpha  occ. eigenvalues --   -0.51220  -0.50790  -0.50758  -0.50659  -0.50592
 Alpha  occ. eigenvalues --   -0.50287  -0.50203  -0.50156  -0.50036  -0.49827
 Alpha  occ. eigenvalues --   -0.49801  -0.49654  -0.49240  -0.48997  -0.48974
 Alpha  occ. eigenvalues --   -0.48776  -0.48620  -0.48572  -0.48211  -0.48111
 Alpha  occ. eigenvalues --   -0.48050  -0.48022  -0.47460  -0.47307  -0.47296
 Alpha  occ. eigenvalues --   -0.47078  -0.47021  -0.46981  -0.46863  -0.46524
 Alpha  occ. eigenvalues --   -0.46382  -0.46326  -0.46173  -0.46059  -0.46025
 Alpha  occ. eigenvalues --   -0.45725  -0.45432  -0.45308  -0.45245  -0.45053
 Alpha  occ. eigenvalues --   -0.45012  -0.44666  -0.44584  -0.44192  -0.44087
 Alpha  occ. eigenvalues --   -0.43829  -0.43694  -0.43611  -0.43542  -0.43365
 Alpha  occ. eigenvalues --   -0.43239  -0.43157  -0.43089  -0.42942  -0.42875
 Alpha  occ. eigenvalues --   -0.42638  -0.42539  -0.42310  -0.42212  -0.42014
 Alpha  occ. eigenvalues --   -0.41946  -0.41779  -0.41682  -0.41460  -0.41448
 Alpha  occ. eigenvalues --   -0.41204  -0.41058  -0.40678  -0.40533  -0.40176
 Alpha  occ. eigenvalues --   -0.40160  -0.39924  -0.39813  -0.39639  -0.39095
 Alpha  occ. eigenvalues --   -0.38745  -0.38739  -0.37962  -0.37857  -0.37715
 Alpha  occ. eigenvalues --   -0.37592  -0.37103  -0.36804  -0.36450  -0.36148
 Alpha  occ. eigenvalues --   -0.36007  -0.35177  -0.34964  -0.34488  -0.34165
 Alpha  occ. eigenvalues --   -0.34123  -0.33642  -0.33215  -0.31681  -0.31573
 Alpha  occ. eigenvalues --   -0.31463  -0.30948  -0.30579  -0.30061  -0.30042
 Alpha  occ. eigenvalues --   -0.29863  -0.29809  -0.29304  -0.24585  -0.24408
 Alpha  occ. eigenvalues --   -0.21580  -0.21493
 Alpha virt. eigenvalues --   -0.09313  -0.08948  -0.02202  -0.01857  -0.00267
 Alpha virt. eigenvalues --    0.01002   0.01911   0.02108   0.02385   0.02812
 Alpha virt. eigenvalues --    0.04522   0.05082   0.05319   0.05474   0.05915

 Mulliken charges:
               1
     1  Mg  12.003365
     2  C    5.985771
     3  C    6.017468
     4  C    6.021932
     5  C    5.988355
     6  N    6.994933
     7  C    6.027341
     8  C    5.986791
     9  C    6.009582
    10  C    5.971965
    11  C    6.001549
    12  C    5.998720
    13  C    5.996311
    14  H    1.009040
    15  N    7.005324
    16  C    5.958109
    17  C    5.971497
    18  C    5.985908
    19  C    5.963841
    20  C    6.003875
    21  C    5.989043
    22  O    7.970044
    23  C    6.007331
    24  N    7.001978
    25  C    5.960765
    26  C    6.016043
    27  C    5.986340
    28  C    6.032376
    29  C    6.003010
    30  C    5.993625
    31  C    6.000670
    32  N    6.998019
    33  C    6.042256
    34  C    6.028351
    35  C    6.006488
    36  C    6.029101
    37  C    5.997879
    38  C    6.015721
    39  O    8.034491
    40  C    5.999907
    41  C    6.000724
    42  O    8.008135
    43  O    7.999506
    44  C    5.997418
    45  H    0.991750
    46  H    0.993301
    47  H    1.010244
    48  H    1.003068
    49  H    0.999707
    50  H    1.002899
    51  H    0.999664
    52  H    0.986205
    53  H    1.010106
    54  H    0.997007
    55  H    0.996860
    56  H    0.997833
    57  H    0.978675
    58  H    0.984294
    59  H    0.978894
    60  H    0.985551
    61  H    0.989565
    62  H    0.991926
    63  H    0.995924
    64  H    1.003317
    65  H    0.987853
    66  H    1.001071
    67  H    1.001153
    68  H    1.000462
    69  H    1.012286
    70  H    0.994375
    71  H    1.005335
    72  H    1.000037
    73  H    1.019711
    74  H    1.020079
    75  H    1.014631
    76  H    1.011635
    77  H    1.002249
    78  H    1.006463
    79  H    1.004973
    80  Mg  12.000078
    81  C    5.999630
    82  C    6.000077
    83  C    6.000552
    84  C    5.999818
    85  N    6.999886
    86  C    6.000363
    87  C    5.999932
    88  C    6.000108
    89  C    5.999482
    90  C    6.000055
    91  C    6.000114
    92  C    6.000252
    93  H    0.999309
    94  N    7.000186
    95  C    5.999319
    96  C    5.999756
    97  C    5.999809
    98  C    5.999376
    99  C    6.000189
   100  C    5.999807
   101  O    7.999702
   102  C    6.000058
   103  N    7.000039
   104  C    5.999476
   105  C    6.000110
   106  C    5.999936
   107  C    6.000365
   108  C    5.999983
   109  C    5.999945
   110  C    5.999957
   111  N    6.999925
   112  C    6.000591
   113  C    6.000382
   114  C    6.000094
   115  C    6.000457
   116  C    5.999959
   117  C    6.000236
   118  O    8.000561
   119  C    5.999968
   120  C    6.000111
   121  O    8.000225
   122  O    7.999900
   123  C    5.999873
   124  H    0.999566
   125  H    1.000040
   126  H    1.000335
   127  H    1.000157
   128  H    0.999547
   129  H    0.999733
   130  H    1.000028
   131  H    1.000246
   132  H    0.999670
   133  H    0.999966
   134  H    1.000342
   135  H    0.999725
   136  H    0.999380
   137  H    0.999586
   138  H    0.999873
   139  H    0.999748
   140  H    0.999846
   141  H    1.000095
   142  H    0.999934
   143  H    1.000241
   144  H    1.000061
   145  H    1.000131
   146  H    1.000062
   147  H    0.999813
   148  H    1.000174
   149  H    1.000195
   150  H    1.000130
   151  H    0.999929
   152  H    1.000310
   153  H    1.000294
   154  H    1.000517
   155  H    0.999949
   156  H    1.000196
   157  H    1.000243
   158  H    0.999995
 Sum of Mulliken charges = 624.00000

 Dipole moment (field-independent basis, Debye):
    X=              9.4513    Y=             -6.2126    Z=             -1.5629  Tot=             11.4178
 Quadrupole moment (field-independent basis, Debye-Ang):
   XX=           -242.8019   YY=              2.5398   ZZ=              1.5221
   XY=             83.3332   XZ=             16.2837   YZ=              1.8003

 Normal termination of Gaussian 16 at Thu Sep 23 10:02:37 2021.
