 Gaussian 16, Revision A.03,
 Gaussian 16:  ES64L-G16RevA.03 25-Dec-2016

 -----------------------------------
 #p cam-b3lyp/Def2SVP td=(nstates=5)
 -----------------------------------

 --------------------------------
 TDDFT excited states in gaussian
 --------------------------------
 Symbolic Z-matrix:
 Charge =  0 Multiplicity = 1

                         Standard orientation:
 ---------------------------------------------------------------------
 Center     Atomic      Atomic             Coordinates (Angstroms)
 Number     Number       Type             X           Y           Z
 ---------------------------------------------------------------------
      1         12           0       25.560908   -0.913109    0.026711
      2          6           0       26.291379    2.577484   -0.421306
      3          6           0       24.980173   -0.125700    3.434587
      4          6           0       24.943010   -4.280680    0.715174
      5          6           0       26.512192   -1.600747   -3.100991
      6          7           0       25.850788    1.068493    1.386715
      7          6           0       26.030466    2.327013    0.931577
      8          6           0       26.065716    3.332552    2.138156
      9          6           0       25.851164    2.343974    3.339542
     10          6           0       25.451546    0.995069    2.698685
     11          6           0       27.112183    2.250949    4.267845
     12          6           0       24.986865    4.412460    2.059756
     13          6           0       25.419977    5.803494    2.388452
     14          1           0       24.409107    6.948740    2.232081
     15          7           0       24.849711   -2.019328    1.716275
     16          6           0       24.694497   -1.500174    2.997299
     17          6           0       24.202635   -2.559774    3.855383
     18          6           0       24.081304   -3.720784    3.109926
     19          6           0       24.713244   -3.396025    1.786835
     20          6           0       24.012109   -2.439048    5.340049
     21          6           0       23.619589   -5.179223    3.518806
     22          8           0       23.540145   -6.153033    2.810642
     23          6           0       23.048263   -5.394644    4.903518
     24          7           0       25.832685   -2.675293   -0.932931
     25          6           0       25.532360   -3.949300   -0.526602
     26          6           0       26.037165   -5.015937   -1.526256
     27          6           0       26.305191   -4.161076   -2.837265
     28          6           0       26.176336   -2.703096   -2.252161
     29          6           0       27.260480   -5.825909   -0.989597
     30          6           0       25.307194   -4.434101   -4.003492
     31          6           0       23.868975   -3.980280   -3.763946
     32          7           0       26.278631    0.163669   -1.464049
     33          6           0       26.587233   -0.237245   -2.793833
     34          6           0       27.039258    0.906395   -3.583125
     35          6           0       26.884420    2.003065   -2.716268
     36          6           0       26.416731    1.532357   -1.460790
     37          6           0       27.471753    0.873336   -4.975199
     38          6           0       27.063881    3.450672   -2.672388
     39          8           0       27.389536    4.219344   -3.561531
     40          6           0       26.770710    3.893317   -1.139199
     41          6           0       25.721432    4.980418   -1.383989
     42          8           0       24.538026    4.845468   -1.743798
     43          8           0       26.286777    6.162783   -1.213128
     44          6           0       25.408984    7.398750   -1.114206
     45          1           0       24.732268    0.141647    4.463622
     46          1           0       24.780080   -5.354308    0.837571
     47          1           0       26.736739   -1.885585   -4.130704
     48          1           0       27.026972    3.835281    2.037056
     49          1           0       24.996997    2.634567    3.952612
     50          1           0       26.944254    2.460749    5.324197
     51          1           0       27.988531    2.770891    3.880374
     52          1           0       27.521734    1.252455    4.422388
     53          1           0       24.438919    4.223121    2.982968
     54          1           0       24.341505    4.313063    1.186286
     55          1           0       26.332889    6.208257    1.948580
     56          1           0       25.626447    5.746324    3.457248
     57          1           0       24.115225   -1.405995    5.671125
     58          1           0       24.691691   -3.040581    5.945732
     59          1           0       23.025961   -2.716540    5.712715
     60          1           0       22.161287   -4.788019    5.085894
     61          1           0       23.906590   -5.152406    5.530253
     62          1           0       22.936693   -6.477538    4.958532
     63          1           0       25.222380   -5.740003   -1.560838
     64          1           0       27.337808   -4.071272   -3.175239
     65          1           0       27.014757   -6.866136   -0.776102
     66          1           0       27.823115   -5.414424   -0.152341
     67          1           0       27.942129   -5.751386   -1.837081
     68          1           0       25.491382   -5.448088   -4.358740
     69          1           0       25.635532   -3.837768   -4.854605
     70          1           0       23.646400   -3.610724   -2.763612
     71          1           0       23.255732   -4.867931   -3.917214
     72          1           0       23.543558   -3.113580   -4.338152
     73          1           0       27.780060    1.835198   -5.385416
     74          1           0       26.615259    0.484844   -5.526050
     75          1           0       28.278278    0.142556   -5.049974
     76          1           0       27.610136    4.427977   -0.694710
     77          1           0       26.035814    8.168474   -0.663434
     78          1           0       24.570298    7.269860   -0.430706
     79          1           0       24.978480    7.703909   -2.068668
     80         12           0      -26.282249   -0.391586   -0.169590
     81          6           0      -24.088720    2.371837   -0.427123
     82          6           0      -27.056598    0.681680    2.834020
     83          6           0      -27.423055   -3.449696    0.358187
     84          6           0      -24.700514   -1.605200   -3.111295
     85          7           0      -25.701708    1.494932    0.941940
     86          6           0      -24.919822    2.472417    0.660036
     87          6           0      -25.105304    3.631586    1.660743
     88          6           0      -25.696701    2.891140    2.965932
     89          6           0      -26.131902    1.548524    2.244018
     90          6           0      -24.690675    2.653685    4.160801
     91          6           0      -26.188497    4.697771    1.108630
     92          6           0      -26.049531    6.217181    1.448061
     93          1           0      -25.339607    6.563002    2.808675
     94          7           0      -27.313266   -1.208743    1.307635
     95          6           0      -27.584463   -0.534614    2.488800
     96          6           0      -28.399735   -1.440927    3.372078
     97          6           0      -28.532058   -2.667253    2.595881
     98          6           0      -27.763492   -2.561538    1.352669
     99          6           0      -28.838161   -1.003702    4.757008
    100          6           0      -29.329113   -3.897953    2.968476
    101          8           0      -29.377484   -4.936182    2.294278
    102          6           0      -30.142469   -3.868908    4.198554
    103          7           0      -26.169341   -2.302702   -1.321559
    104          6           0      -26.703010   -3.398707   -0.813269
    105          6           0      -26.779674   -4.535723   -1.926720
    106          6           0      -25.827610   -3.878212   -3.066166
    107          6           0      -25.576971   -2.490402   -2.482357
    108          6           0      -26.351652   -5.951659   -1.417300
    109          6           0      -26.379083   -3.797589   -4.527476
    110          6           0      -25.717754   -4.676315   -5.557970
    111          7           0      -24.855206    0.305894   -1.669127
    112          6           0      -24.349434   -0.335371   -2.782393
    113          6           0      -23.332778    0.438260   -3.362976
    114          6           0      -23.172115    1.491267   -2.442566
    115          6           0      -24.071197    1.385764   -1.407854
    116          6           0      -22.572715    0.165993   -4.561883
    117          6           0      -22.441059    2.687793   -2.281149
    118          8           0      -21.606130    3.337715   -2.967208
    119          6           0      -22.821692    3.171311   -0.809975
    120          6           0      -23.002454    4.644713   -0.782477
    121          8           0      -23.844765    5.313481   -1.377780
    122          8           0      -22.073051    5.163962    0.173126
    123          6           0      -22.058203    6.619086    0.370042
    124          1           0      -27.387391    1.148600    3.764540
    125          1           0      -27.859406   -4.436798    0.520647
    126          1           0      -24.277111   -1.950609   -4.057448
    127          1           0      -24.109687    3.934461    1.983916
    128          1           0      -26.452894    3.537923    3.409517
    129          1           0      -23.656547    2.825337    3.862886
    130          1           0      -24.709877    1.618956    4.502504
    131          1           0      -24.983527    3.360149    4.937412
    132          1           0      -27.201944    4.391470    1.368341
    133          1           0      -26.221128    4.609107    0.022551
    134          1           0      -27.001673    6.747454    1.485066
    135          1           0      -25.317855    6.624715    0.749340
    136          1           0      -29.882154   -1.249652    4.954448
    137          1           0      -28.698001    0.062532    4.934914
    138          1           0      -28.139800   -1.396590    5.495535
    139          1           0      -29.525197   -3.663802    5.073657
    140          1           0      -30.653147   -4.823437    4.326121
    141          1           0      -30.955635   -3.143131    4.209236
    142          1           0      -27.768783   -4.616412   -2.377409
    143          1           0      -24.818500   -4.292464   -3.047030
    144          1           0      -25.973783   -5.889512   -0.396625
    145          1           0      -25.665537   -6.250776   -2.209944
    146          1           0      -27.215456   -6.603200   -1.542850
    147          1           0      -26.250546   -2.768750   -4.864461
    148          1           0      -27.451057   -3.995917   -4.521220
    149          1           0      -25.070459   -5.316420   -4.959958
    150          1           0      -25.084690   -4.040543   -6.178026
    151          1           0      -26.417727   -5.310030   -6.101121
    152          1           0      -23.295992   -0.040057   -5.350428
    153          1           0      -22.036593   -0.782858   -4.582864
    154          1           0      -21.979393    1.041518   -4.826213
    155          1           0      -22.012382    2.881344   -0.139112
    156          1           0      -21.256259    6.908386    1.049731
    157          1           0      -22.949427    6.899870    0.931580
    158          1           0      -21.871462    7.107272   -0.585882
 ---------------------------------------------------------------------

 SCF Done:  E(RCAM-B3LYP) =  -4069.76370454     A.U. after   19 cycles

 Excitation energies and oscillator strengths:

 Excited State   1:      Singlet-A      1.6510 eV  750.98 nm  f=0.3682  <S**2>=0.000
     310 -> 316       -0.18397
     312 -> 313        0.68517
     310 <- 316       -0.11254
 This state for optimization and/or second-order correction.
 Total Energy, E(TD-HF/TD-DFT) =  -4069.70303280
 Copying the excited state density for this state as the 1-particle RhoCI density.

 Excited State   2:      Singlet-A      1.7997 eV  688.92 nm  f=0.3656  <S**2>=0.000
     309 -> 315        0.21222
     311 -> 314        0.67496
     309 <- 315        0.10955

 Excited State   3:      Singlet-A      2.2173 eV  559.17 nm  f=0.0902  <S**2>=0.000
     310 -> 313        0.62582
     312 -> 316        0.32030

 Excited State   4:      Singlet-A      2.2245 eV  557.36 nm  f=0.0817  <S**2>=0.000
     309 -> 314        0.62927
     311 -> 315       -0.30801

 Excited State   5:      Singlet-A      3.1707 eV  391.03 nm  f=0.0000  <S**2>=0.000
     312 -> 314        0.70710

 The electronic state is 1-A.
 Alpha  occ. eigenvalues --  -46.89404 -46.88279 -19.24925 -19.23954 -19.20231
 Alpha  occ. eigenvalues --  -19.19502 -19.19349 -19.19009 -19.18464 -19.17984
 Alpha  occ. eigenvalues --  -14.42444 -14.42164 -14.41734 -14.41535 -14.40089
 Alpha  occ. eigenvalues --  -14.39985 -14.39664 -14.38579 -10.39305 -10.38449
 Alpha  occ. eigenvalues --  -10.35577 -10.35377 -10.35137 -10.34500 -10.32188
 Alpha  occ. eigenvalues --  -10.31535 -10.31389 -10.31356 -10.31224 -10.31100
 Alpha  occ. eigenvalues --  -10.31073 -10.31024 -10.30977 -10.30763 -10.30720
 Alpha  occ. eigenvalues --  -10.30631 -10.30613 -10.30321 -10.30260 -10.29987
 Alpha  occ. eigenvalues --  -10.29898 -10.29343 -10.28853 -10.28761 -10.28727
 Alpha  occ. eigenvalues --  -10.28674 -10.28657 -10.28583 -10.28583 -10.28404
 Alpha  occ. eigenvalues --  -10.28400 -10.28397 -10.28397 -10.28353 -10.28344
 Alpha  occ. eigenvalues --  -10.28318 -10.28274 -10.28124 -10.28024 -10.27849
 Alpha  occ. eigenvalues --  -10.27607 -10.27552 -10.27519 -10.27502 -10.27480
 Alpha  occ. eigenvalues --  -10.27271 -10.26987 -10.26876 -10.26819 -10.26600
 Alpha  occ. eigenvalues --  -10.26394 -10.26388 -10.26240 -10.26208 -10.26080
 Alpha  occ. eigenvalues --  -10.26056 -10.26039 -10.26003 -10.25920 -10.25839
 Alpha  occ. eigenvalues --  -10.25823 -10.25696 -10.25416 -10.25406 -10.25386
 Alpha  occ. eigenvalues --  -10.24653  -3.17858  -3.16969  -1.92761  -1.92324
 Alpha  occ. eigenvalues --   -1.92144  -1.91855  -1.91442  -1.91275  -1.15927
 Alpha  occ. eigenvalues --   -1.13978  -1.11440  -1.10020  -1.09433  -1.07299
 Alpha  occ. eigenvalues --   -1.06738  -1.05794  -1.05268  -1.05223  -1.03774
 Alpha  occ. eigenvalues --   -1.03500  -1.03112  -1.02202  -1.01687  -1.01481
 Alpha  occ. eigenvalues --   -0.92969  -0.90849  -0.89510  -0.89240  -0.88735
 Alpha  occ. eigenvalues --   -0.88622  -0.87982  -0.87910  -0.87564  -0.87388
 Alpha  occ. eigenvalues --   -0.87340  -0.86940  -0.86921  -0.86434  -0.84286
 Alpha  occ. eigenvalues --   -0.84106  -0.83985  -0.83567  -0.82736  -0.82351
 Alpha  occ. eigenvalues --   -0.82071  -0.81522  -0.81494  -0.81014  -0.80681
 Alpha  occ. eigenvalues --   -0.80151  -0.78981  -0.78120  -0.77725  -0.77289
 Alpha  occ. eigenvalues --   -0.76981  -0.76940  -0.75963  -0.75901  -0.75248
 Alpha  occ. eigenvalues --   -0.75111  -0.73235  -0.72579  -0.72267  -0.71633
 Alpha  occ. eigenvalues --   -0.70052  -0.68943  -0.68737  -0.68607  -0.67938
 Alpha  occ. eigenvalues --   -0.67522  -0.67239  -0.66263  -0.65936  -0.65673
 Alpha  occ. eigenvalues --   -0.65607  -0.65466  -0.65105  -0.64612  -0.64554
 Alpha  occ. eigenvalues --   -0.64042  -0.61763  -0.61268  -0.60548  -0.60158
 Alpha  occ. eigenvalues --   -0.59580  -0.59300  -0.59264  -0.58926  -0.58359
 Alpha  occ. eigenvalues --   -0.57753  -0.57690  -0.57350  -0.57349  -0.57007
 Alpha  occ. eigenvalues --   -0.56225  -0.55779  -0.55629  -0.55492  -0.55476
 Alpha  occ. eigenvalues --   -0.55011  -0.54652  -0.54459  -0.53950  -0.53806
 Alpha  occ. eigenvalues --   -0.53543  -0.53317  -0.53232  -0.53200  -0.52977
 Alpha  occ. eigenvalues --   -0.52879  -0.52704  -0.52618  -0.52485  -0.52411
 Alpha  occ. eigenvalues --   -0.52253  -0.52106  -0.51566  -0.51505  -0.51122
 Alpha  occ. eigenvalues --   -0.50952  -0.50929  -0.50878  -0.50561  -0.50359
 Alpha  occ. eigenvalues --   -0.50098  -0.49878  -0.49786  -0.49592  -0.49572
 Alpha  occ. eigenvalues --   -0.49274  -0.49213  -0.49213  -0.48938  -0.48799
 Alpha  occ. eigenvalues --   -0.48678  -0.48638  -0.48424  -0.48393  -0.48118
 Alpha  occ. eigenvalues --   -0.48056  -0.47821  -0.47627  -0.47508  -0.47437
 Alpha  occ. eigenvalues --   -0.47325  -0.47043  -0.46804  -0.46711  -0.46640
 Alpha  occ. eigenvalues --   -0.46326  -0.46313  -0.46170  -0.46116  -0.45816
 Alpha  occ. eigenvalues --   -0.45598  -0.45488  -0.45352  -0.45223  -0.44924
 Alpha  occ. eigenvalues --   -0.44897  -0.44398  -0.44239  -0.44146  -0.43952
 Alpha  occ. eigenvalues --   -0.43941  -0.43924  -0.43627  -0.43570  -0.43515
 Alpha  occ. eigenvalues --   -0.43348  -0.43142  -0.43000  -0.42976  -0.42953
 Alpha  occ. eigenvalues --   -0.42618  -0.42484  -0.42132  -0.41948  -0.41800
 Alpha  occ. eigenvalues --   -0.41700  -0.41592  -0.41393  -0.41184  -0.41070
 Alpha  occ. eigenvalues --   -0.40896  -0.40766  -0.40659  -0.40351  -0.40301
 Alpha  occ. eigenvalues --   -0.40173  -0.40066  -0.39566  -0.39186  -0.39042
 Alpha  occ. eigenvalues --   -0.38618  -0.38500  -0.38034  -0.37842  -0.37505
 Alpha  occ. eigenvalues --   -0.37411  -0.36608  -0.36459  -0.36119  -0.36041
 Alpha  occ. eigenvalues --   -0.35650  -0.35621  -0.34488  -0.33914  -0.33891
 Alpha  occ. eigenvalues --   -0.33561  -0.33111  -0.32712  -0.31806  -0.31425
 Alpha  occ. eigenvalues --   -0.31306  -0.30971  -0.30784  -0.30515  -0.30341
 Alpha  occ. eigenvalues --   -0.30258  -0.29967  -0.29305  -0.24172  -0.24093
 Alpha  occ. eigenvalues --   -0.21683  -0.20942
 Alpha virt. eigenvalues --   -0.08684  -0.08624  -0.02660  -0.02018  -0.00247
 Alpha virt. eigenvalues --    0.00670   0.02247   0.02314   0.02406   0.03426
 Alpha virt. eigenvalues --    0.04569   0.05170   0.05281   0.05497   0.05596

 Mulliken charges:
               1
     1  Mg   0.847248
     2  C    0.045347
     3  C   -0.060551
     4  C   -0.047678
     5  C   -0.098770
     6  N   -0.248864
     7  C   -0.052970
     8  C   -0.041244
     9  C   -0.032698
    10  C    0.025047
    11  C    0.061900
    12  C    0.091694
    13  C   -0.097208
    14  H    0.015913
    15  N   -0.370673
    16  C    0.163348
    17  C   -0.136138
    18  C   -0.047595
    19  C    0.113901
    20  C    0.100994
    21  C    0.008291
    22  O   -0.184752
    23  C    0.055714
    24  N   -0.324663
    25  C    0.018126
    26  C   -0.032840
    27  C   -0.028950
    28  C    0.038279
    29  C    0.074275
    30  C    0.042212
    31  C    0.003856
    32  N   -0.436327
    33  C    0.150818
    34  C   -0.152943
    35  C    0.006757
    36  C    0.125969
    37  C    0.128413
    38  C    0.055367
    39  O   -0.163311
    40  C   -0.066574
    41  C    0.185881
    42  O   -0.258955
    43  O   -0.310139
    44  C    0.186773
    45  H   -0.026645
    46  H   -0.004538
    47  H   -0.031259
    48  H    0.015137
    49  H    0.010156
    50  H    0.011115
    51  H    0.016488
    52  H    0.004588
    53  H   -0.000457
    54  H    0.045822
    55  H    0.026993
    56  H    0.015929
    57  H   -0.001700
    58  H    0.033542
    59  H    0.015867
    60  H    0.054930
    61  H    0.014222
    62  H    0.026502
    63  H    0.013908
    64  H    0.017081
    65  H    0.026033
    66  H    0.025170
    67  H    0.002872
    68  H    0.013553
    69  H   -0.002116
    70  H    0.021592
    71  H    0.022768
    72  H    0.019902
    73  H    0.040186
    74  H    0.029359
    75  H    0.021988
    76  H    0.037310
    77  H    0.039485
    78  H    0.037719
    79  H    0.054216
    80  Mg   0.815670
    81  C    0.016271
    82  C   -0.078630
    83  C   -0.039493
    84  C   -0.091655
    85  N   -0.224069
    86  C   -0.122447
    87  C    0.024876
    88  C   -0.108514
    89  C    0.025571
    90  C    0.065582
    91  C    0.060408
    92  C   -0.072470
    93  H   -0.016581
    94  N   -0.489172
    95  C    0.213708
    96  C   -0.139448
    97  C   -0.019703
    98  C    0.151508
    99  C    0.115731
   100  C    0.006977
   101  O   -0.211184
   102  C    0.033118
   103  N   -0.209862
   104  C    0.015554
   105  C   -0.071797
   106  C   -0.031124
   107  C   -0.009417
   108  C    0.089618
   109  C    0.026588
   110  C    0.020969
   111  N   -0.334515
   112  C    0.141011
   113  C   -0.143468
   114  C    0.021176
   115  C    0.107365
   116  C    0.141234
   117  C    0.060026
   118  O   -0.216304
   119  C   -0.028729
   120  C    0.225835
   121  O   -0.218480
   122  O   -0.379514
   123  C    0.184892
   124  H   -0.030787
   125  H   -0.007166
   126  H   -0.039811
   127  H    0.000439
   128  H    0.019261
   129  H    0.015689
   130  H    0.018139
   131  H    0.022277
   132  H    0.004572
   133  H    0.033042
   134  H    0.042181
   135  H    0.060416
   136  H    0.034361
   137  H    0.008027
   138  H    0.037092
   139  H    0.032535
   140  H    0.024250
   141  H    0.038681
   142  H    0.021653
   143  H    0.009464
   144  H    0.040267
   145  H    0.007218
   146  H    0.016222
   147  H    0.010559
   148  H   -0.000259
   149  H    0.002909
   150  H    0.018930
   151  H    0.023642
   152  H    0.007327
   153  H    0.021801
   154  H    0.047026
   155  H    0.051793
   156  H    0.025056
   157  H    0.027283
   158  H    0.048802
 Sum of Mulliken charges =  -0.00000

 Dipole moment (field-independent basis, Debye):
    X=             -1.4610    Y=             -2.4655    Z=              7.2739  Tot=              7.8181
 Quadrupole moment (field-independent basis, Debye-Ang):
   XX=           -331.8284   YY=           -526.3523   ZZ=           -473.6254
   XY=            -24.5954   XZ=              6.8724   YZ=             61.8291

 Normal termination of Gaussian 16 at Wed Sep 15 08:58:50 2021.
