 Gaussian 16, Revision A.03,
 Gaussian 16:  ES64L-G16RevA.03 25-Dec-2016

 -----------------------------------
 #p cam-b3lyp/Def2SVP td=(nstates=5)
 -----------------------------------

 --------------------------------
 TDDFT excited states in gaussian
 --------------------------------
 Symbolic Z-matrix:
 Charge =  0 Multiplicity = 1

                         Standard orientation:
 ---------------------------------------------------------------------
 Center     Atomic      Atomic             Coordinates (Angstroms)
 Number     Number       Type             X           Y           Z
 ---------------------------------------------------------------------
      1         12           0       12.651091   -0.073555    0.326798
      2          6           0        9.253565   -0.498264   -0.716589
      3          6           0       13.247260    1.365662   -2.709039
      4          6           0       15.740278   -0.099276    1.042958
      5          6           0       12.057827   -2.510761    2.746245
      6          7           0       11.335523    0.328251   -1.407699
      7          6           0       10.039355    0.170991   -1.657480
      8          6           0        9.578167    0.851654   -2.980877
      9          6           0       10.975219    0.881845   -3.748557
     10          6           0       11.909780    0.895086   -2.551751
     11          6           0       11.246475   -0.374604   -4.569690
     12          6           0        9.023165    2.296545   -2.744246
     13          6           0        8.255798    2.902866   -3.922751
     14          1           0        7.113149    3.760704   -3.647402
     15          7           0       14.153731    0.950822   -0.444936
     16          6           0       14.219601    1.476790   -1.691654
     17          6           0       15.536762    2.142540   -1.784081
     18          6           0       16.307590    1.798507   -0.557068
     19          6           0       15.430098    0.835949    0.058455
     20          6           0       15.929195    3.035965   -2.920539
     21          6           0       17.630636    2.255630   -0.029130
     22          8           0       18.220553    1.659651    0.935951
     23          6           0       18.267969    3.379913   -0.738240
     24          7           0       13.814970   -1.300768    1.550305
     25          6           0       15.117854   -1.058452    1.731302
     26          6           0       15.675585   -1.882033    2.854062
     27          6           0       14.420607   -2.564840    3.567195
     28          6           0       13.304656   -2.049408    2.625254
     29          6           0       16.685717   -2.965422    2.451682
     30          6           0       14.265302   -2.332295    5.091079
     31          6           0       13.951210   -0.877385    5.358811
     32          7           0       10.926901   -1.175895    1.050027
     33          6           0       10.913464   -2.158774    2.050248
     34          6           0        9.540365   -2.692358    2.113147
     35          6           0        8.849929   -1.989900    1.127401
     36          6           0        9.741895   -1.094132    0.471437
     37          6           0        9.092042   -3.741281    2.963559
     38          6           0        7.571997   -1.805264    0.459078
     39          8           0        6.427742   -2.221679    0.645552
     40          6           0        7.810723   -0.919935   -0.842855
     41          6           0        6.761751    0.158370   -0.857857
     42          8           0        6.757064    1.058383    0.006620
     43          8           0        6.079691    0.099035   -2.011900
     44          6           0        5.042490    1.161077   -2.103739
     45          1           0       13.604246    1.616604   -3.709803
     46          1           0       16.772975   -0.063591    1.396087
     47          1           0       11.777821   -3.212974    3.533612
     48          1           0        8.849597    0.280012   -3.556058
     49          1           0       11.097686    1.792195   -4.335061
     50          1           0       10.491645   -1.139655   -4.388451
     51          1           0       12.228057   -0.724978   -4.249959
     52          1           0       11.345074   -0.131873   -5.628055
     53          1           0        9.856585    2.996574   -2.685673
     54          1           0        8.397046    2.327984   -1.851883
     55          1           0        7.994689    2.144132   -4.661030
     56          1           0        8.925167    3.579193   -4.454472
     57          1           0       15.224888    2.963785   -3.748360
     58          1           0       16.863506    2.646143   -3.324038
     59          1           0       16.069248    4.068776   -2.601136
     60          1           0       18.421735    3.106130   -1.782246
     61          1           0       19.162052    3.627544   -0.167151
     62          1           0       17.583583    4.228768   -0.741515
     63          1           0       16.199434   -1.256161    3.575375
     64          1           0       14.431814   -3.650115    3.463620
     65          1           0       17.649731   -2.872972    2.952517
     66          1           0       16.802738   -2.931617    1.368882
     67          1           0       16.342109   -3.988726    2.600676
     68          1           0       15.198088   -2.559125    5.606254
     69          1           0       13.481135   -2.940878    5.541589
     70          1           0       14.936112   -0.411767    5.359031
     71          1           0       13.466138   -0.765252    6.329039
     72          1           0       13.382217   -0.435824    4.540424
     73          1           0        8.128380   -3.421710    3.360043
     74          1           0        9.805585   -3.934140    3.764349
     75          1           0        9.029620   -4.564952    2.252557
     76          1           0        7.721852   -1.589443   -1.697830
     77          1           0        4.090070    0.664398   -2.289318
     78          1           0        5.394704    1.874573   -2.848906
     79          1           0        4.818579    1.697268   -1.180861
     80         12           0      -12.141008   -0.392233   -0.332098
     81          6           0      -11.250321    2.736879    0.958875
     82          6           0       -8.782927   -0.794060   -1.054944
     83          6           0      -12.829559   -3.522569   -1.264245
     84          6           0      -15.257693   -0.124608    1.228362
     85          7           0      -10.128529    0.874470    0.150929
     86          6           0      -10.077594    2.154083    0.567906
     87          6           0       -8.677748    2.717500    0.619062
     88          6           0       -8.013988    1.635907   -0.315877
     89          6           0       -8.973624    0.453620   -0.403249
     90          6           0       -7.819508    2.216312   -1.742097
     91          6           0       -8.197045    2.888964    2.065610
     92          6           0       -8.536453    1.814639    3.119701
     93          1           0       -7.371923    1.327296    3.973664
     94          7           0      -10.995071   -1.922889   -1.059199
     95          6           0       -9.668957   -1.830092   -1.389241
     96          6           0       -9.333986   -2.915421   -2.320359
     97          6           0      -10.451229   -3.842695   -2.292271
     98          6           0      -11.487238   -3.085313   -1.525794
     99          6           0       -7.874810   -3.149143   -2.869795
    100          6           0      -10.502612   -5.239661   -2.915903
    101          8           0       -9.612085   -5.627378   -3.619745
    102          6           0      -11.696712   -6.120819   -2.687517
    103          7           0      -13.792833   -1.715077    0.165002
    104          6           0      -13.925932   -2.977093   -0.443228
    105          6           0      -15.309701   -3.680940   -0.112966
    106          6           0      -16.084845   -2.502683    0.648253
    107          6           0      -14.991582   -1.338349    0.653957
    108          6           0      -16.171813   -4.370885   -1.284525
    109          6           0      -16.678762   -2.826021    2.094523
    110          6           0      -18.043305   -2.011439    2.340454
    111          7           0      -13.152141    1.022362    0.827205
    112          6           0      -14.445768    1.022306    1.307958
    113          6           0      -14.727938    2.314671    1.920695
    114          6           0      -13.551008    3.094113    1.778363
    115          6           0      -12.579227    2.222612    1.166587
    116          6           0      -16.062574    2.795750    2.426848
    117          6           0      -12.823603    4.370561    2.077339
    118          8           0      -13.165635    5.331358    2.730012
    119          6           0      -11.360088    4.158368    1.499413
    120          6           0      -11.164236    5.202030    0.434297
    121          8           0      -10.922810    6.411949    0.672229
    122          8           0      -11.143880    4.595468   -0.813274
    123          6           0      -10.738326    5.430118   -1.894430
    124          1           0       -7.740592   -0.886398   -1.367411
    125          1           0      -13.233083   -4.442264   -1.693476
    126          1           0      -16.296739    0.017662    1.533081
    127          1           0       -8.600275    3.656550    0.071401
    128          1           0       -7.046712    1.231254   -0.021091
    129          1           0       -7.951881    1.376508   -2.424664
    130          1           0       -6.867788    2.740666   -1.815498
    131          1           0       -8.570685    2.895335   -2.146756
    132          1           0       -8.703018    3.779473    2.437279
    133          1           0       -7.119465    3.052312    2.045979
    134          1           0       -8.911638    0.927569    2.609962
    135          1           0       -9.257596    2.241476    3.816146
    136          1           0       -7.182536   -3.607051   -2.162748
    137          1           0       -7.458769   -2.201404   -3.211723
    138          1           0       -7.796190   -3.732660   -3.786368
    139          1           0      -11.533111   -7.133697   -3.056947
    140          1           0      -12.607787   -5.736785   -3.146821
    141          1           0      -11.701600   -6.208095   -1.600703
    142          1           0      -14.958671   -4.438455    0.586776
    143          1           0      -16.912799   -2.128077    0.047061
    144          1           0      -15.848612   -5.409202   -1.349215
    145          1           0      -16.030919   -3.861773   -2.237568
    146          1           0      -17.227999   -4.291267   -1.026357
    147          1           0      -16.029066   -2.439841    2.879847
    148          1           0      -16.798678   -3.899997    2.239120
    149          1           0      -17.945193   -1.331571    3.186870
    150          1           0      -18.849712   -2.712811    2.552658
    151          1           0      -18.386361   -1.311756    1.579093
    152          1           0      -16.398280    2.115246    3.208622
    153          1           0      -16.789446    2.777728    1.614510
    154          1           0      -16.003740    3.787420    2.875135
    155          1           0      -10.710484    4.450424    2.324231
    156          1           0      -10.665284    4.830940   -2.801749
    157          1           0       -9.843013    5.998086   -1.641000
    158          1           0      -11.513082    6.144472   -2.172785
 ---------------------------------------------------------------------

 SCF Done:  E(RCAM-B3LYP) =  -4069.80698650     A.U. after   18 cycles

 Excitation energies and oscillator strengths:

 Excited State   1:      Singlet-A      1.6797 eV  738.13 nm  f=0.4009  <S**2>=0.000
     309 -> 316       -0.17543
     312 -> 313        0.68529
     309 <- 316       -0.10509
 This state for optimization and/or second-order correction.
 Total Energy, E(TD-HF/TD-DFT) =  -4069.74525814
 Copying the excited state density for this state as the 1-particle RhoCI density.

 Excited State   2:      Singlet-A      1.7471 eV  709.66 nm  f=0.3523  <S**2>=0.000
     310 -> 315        0.19396
     311 -> 314        0.68027
     310 <- 315        0.10937

 Excited State   3:      Singlet-A      2.1926 eV  565.46 nm  f=0.1003  <S**2>=0.000
     309 -> 313        0.64064
     312 -> 316        0.27827

 Excited State   4:      Singlet-A      2.2375 eV  554.11 nm  f=0.1042  <S**2>=0.000
     310 -> 314        0.63519
     311 -> 315       -0.29895

 Excited State   5:      Singlet-A      3.0283 eV  409.41 nm  f=0.0000  <S**2>=0.000
     312 -> 314        0.70706

 The electronic state is 1-A.
 Alpha  occ. eigenvalues --  -46.90322 -46.87786 -19.26301 -19.25979 -19.19949
 Alpha  occ. eigenvalues --  -19.19475 -19.19029 -19.18965 -19.18801 -19.18166
 Alpha  occ. eigenvalues --  -14.42440 -14.42187 -14.41736 -14.41439 -14.40449
 Alpha  occ. eigenvalues --  -14.39402 -14.39392 -14.38577 -10.39911 -10.39088
 Alpha  occ. eigenvalues --  -10.35717 -10.35434 -10.35231 -10.34386 -10.32761
 Alpha  occ. eigenvalues --  -10.31927 -10.31759 -10.31709 -10.31397 -10.31052
 Alpha  occ. eigenvalues --  -10.30901 -10.30775 -10.30560 -10.30515 -10.30497
 Alpha  occ. eigenvalues --  -10.30194 -10.30132 -10.29910 -10.29821 -10.29620
 Alpha  occ. eigenvalues --  -10.29508 -10.29474 -10.29243 -10.29191 -10.28892
 Alpha  occ. eigenvalues --  -10.28746 -10.28544 -10.28453 -10.28425 -10.28356
 Alpha  occ. eigenvalues --  -10.28356 -10.28308 -10.28111 -10.27993 -10.27919
 Alpha  occ. eigenvalues --  -10.27834 -10.27783 -10.27725 -10.27717 -10.27716
 Alpha  occ. eigenvalues --  -10.27687 -10.27649 -10.27573 -10.27486 -10.27468
 Alpha  occ. eigenvalues --  -10.27435 -10.27396 -10.27158 -10.26775 -10.26704
 Alpha  occ. eigenvalues --  -10.26394 -10.26357 -10.26229 -10.26207 -10.26203
 Alpha  occ. eigenvalues --  -10.26166 -10.26149 -10.26105 -10.26008 -10.25882
 Alpha  occ. eigenvalues --  -10.25832 -10.25814 -10.25421 -10.24824 -10.24777
 Alpha  occ. eigenvalues --  -10.24668  -3.18685  -3.16529  -1.93548  -1.93160
 Alpha  occ. eigenvalues --   -1.92975  -1.91410  -1.90997  -1.90839  -1.16648
 Alpha  occ. eigenvalues --   -1.16396  -1.11430  -1.10588  -1.08625  -1.07202
 Alpha  occ. eigenvalues --   -1.06987  -1.06652  -1.04709  -1.04572  -1.03813
 Alpha  occ. eigenvalues --   -1.03750  -1.03223  -1.02891  -1.02401  -1.01825
 Alpha  occ. eigenvalues --   -0.92440  -0.91965  -0.89507  -0.89183  -0.88932
 Alpha  occ. eigenvalues --   -0.88274  -0.88263  -0.87860  -0.87676  -0.87664
 Alpha  occ. eigenvalues --   -0.87273  -0.87262  -0.85977  -0.85590  -0.84976
 Alpha  occ. eigenvalues --   -0.84774  -0.83925  -0.83284  -0.82954  -0.82643
 Alpha  occ. eigenvalues --   -0.82634  -0.81814  -0.81589  -0.80737  -0.80592
 Alpha  occ. eigenvalues --   -0.80295  -0.78786  -0.77464  -0.77222  -0.77210
 Alpha  occ. eigenvalues --   -0.76932  -0.76625  -0.76354  -0.75921  -0.75248
 Alpha  occ. eigenvalues --   -0.74888  -0.72764  -0.72742  -0.71988  -0.71664
 Alpha  occ. eigenvalues --   -0.69893  -0.69861  -0.69328  -0.68867  -0.68145
 Alpha  occ. eigenvalues --   -0.67633  -0.67214  -0.67084  -0.65833  -0.65282
 Alpha  occ. eigenvalues --   -0.64848  -0.64812  -0.64769  -0.64616  -0.64556
 Alpha  occ. eigenvalues --   -0.64258  -0.63652  -0.62302  -0.60430  -0.59957
 Alpha  occ. eigenvalues --   -0.59798  -0.59200  -0.58979  -0.58881  -0.58496
 Alpha  occ. eigenvalues --   -0.58108  -0.57730  -0.57584  -0.57300  -0.57277
 Alpha  occ. eigenvalues --   -0.56302  -0.56223  -0.56022  -0.55986  -0.55511
 Alpha  occ. eigenvalues --   -0.55416  -0.55333  -0.54986  -0.54522  -0.54236
 Alpha  occ. eigenvalues --   -0.53890  -0.53598  -0.53289  -0.53216  -0.53147
 Alpha  occ. eigenvalues --   -0.52990  -0.52912  -0.52746  -0.52715  -0.52424
 Alpha  occ. eigenvalues --   -0.51905  -0.51845  -0.51612  -0.51563  -0.51378
 Alpha  occ. eigenvalues --   -0.51190  -0.51020  -0.50628  -0.50558  -0.50488
 Alpha  occ. eigenvalues --   -0.50018  -0.49970  -0.49908  -0.49871  -0.49648
 Alpha  occ. eigenvalues --   -0.49507  -0.49482  -0.49208  -0.49092  -0.48868
 Alpha  occ. eigenvalues --   -0.48629  -0.48590  -0.48451  -0.48438  -0.48309
 Alpha  occ. eigenvalues --   -0.47688  -0.47493  -0.47288  -0.47237  -0.47169
 Alpha  occ. eigenvalues --   -0.46877  -0.46788  -0.46599  -0.46551  -0.46350
 Alpha  occ. eigenvalues --   -0.46247  -0.46156  -0.46004  -0.45820  -0.45626
 Alpha  occ. eigenvalues --   -0.45475  -0.45255  -0.45190  -0.45133  -0.44810
 Alpha  occ. eigenvalues --   -0.44574  -0.44497  -0.44186  -0.44135  -0.44082
 Alpha  occ. eigenvalues --   -0.44013  -0.43890  -0.43786  -0.43564  -0.43496
 Alpha  occ. eigenvalues --   -0.43377  -0.43313  -0.43196  -0.43020  -0.42915
 Alpha  occ. eigenvalues --   -0.42708  -0.42704  -0.42647  -0.42157  -0.42141
 Alpha  occ. eigenvalues --   -0.42000  -0.41932  -0.41697  -0.41669  -0.41528
 Alpha  occ. eigenvalues --   -0.41168  -0.41133  -0.40862  -0.40812  -0.40560
 Alpha  occ. eigenvalues --   -0.40289  -0.40231  -0.39850  -0.39426  -0.39035
 Alpha  occ. eigenvalues --   -0.38862  -0.38458  -0.38050  -0.37745  -0.37309
 Alpha  occ. eigenvalues --   -0.37258  -0.37180  -0.37120  -0.36720  -0.36717
 Alpha  occ. eigenvalues --   -0.36238  -0.36189  -0.34618  -0.34326  -0.34276
 Alpha  occ. eigenvalues --   -0.33776  -0.33178  -0.33086  -0.31331  -0.31300
 Alpha  occ. eigenvalues --   -0.31134  -0.31026  -0.30834  -0.30535  -0.30026
 Alpha  occ. eigenvalues --   -0.29661  -0.29438  -0.29312  -0.24071  -0.23962
 Alpha  occ. eigenvalues --   -0.21322  -0.21117
 Alpha virt. eigenvalues --   -0.08764  -0.08562  -0.02007  -0.01739  -0.00047
 Alpha virt. eigenvalues --    0.00165   0.00829   0.02078   0.02208   0.03136
 Alpha virt. eigenvalues --    0.04503   0.04725   0.05091   0.05563   0.06021

 Mulliken charges:
               1
     1  Mg   0.838827
     2  C   -0.002973
     3  C   -0.094121
     4  C   -0.045858
     5  C   -0.063921
     6  N   -0.256787
     7  C   -0.052500
     8  C   -0.014000
     9  C   -0.087024
    10  C    0.046348
    11  C    0.104811
    12  C    0.053460
    13  C   -0.071759
    14  H    0.035947
    15  N   -0.433130
    16  C    0.168454
    17  C   -0.177133
    18  C   -0.003972
    19  C    0.148740
    20  C    0.110180
    21  C    0.012328
    22  O   -0.249581
    23  C    0.062448
    24  N   -0.341131
    25  C    0.041256
    26  C   -0.028193
    27  C   -0.023974
    28  C    0.074835
    29  C    0.076166
    30  C    0.035119
    31  C   -0.004509
    32  N   -0.310477
    33  C    0.080400
    34  C   -0.169676
    35  C    0.008312
    36  C    0.083013
    37  C    0.127307
    38  C    0.046154
    39  O   -0.188596
    40  C   -0.005373
    41  C    0.212812
    42  O   -0.257032
    43  O   -0.304780
    44  C    0.157829
    45  H   -0.017606
    46  H   -0.016793
    47  H   -0.041455
    48  H    0.000841
    49  H   -0.004038
    50  H    0.025449
    51  H    0.016487
    52  H    0.016637
    53  H    0.011305
    54  H    0.044104
    55  H    0.017787
    56  H    0.018029
    57  H    0.005862
    58  H    0.026838
    59  H    0.039623
    60  H    0.037336
    61  H    0.035706
    62  H    0.031558
    63  H    0.016604
    64  H    0.009459
    65  H    0.023241
    66  H    0.012529
    67  H    0.004758
    68  H    0.006389
    69  H    0.004743
    70  H    0.008806
    71  H    0.018215
    72  H    0.028968
    73  H    0.047565
    74  H    0.009161
    75  H    0.045999
    76  H    0.035118
    77  H    0.042503
    78  H    0.046414
    79  H    0.053620
    80  Mg   0.821259
    81  C    0.141310
    82  C   -0.072337
    83  C   -0.088238
    84  C   -0.079457
    85  N   -0.220259
    86  C   -0.142967
    87  C    0.066373
    88  C   -0.054787
    89  C   -0.010596
    90  C    0.063628
    91  C    0.064049
    92  C   -0.078847
    93  H    0.016337
    94  N   -0.372571
    95  C    0.163312
    96  C   -0.137252
    97  C   -0.058520
    98  C    0.190652
    99  C    0.093593
   100  C   -0.010293
   101  O   -0.168242
   102  C    0.051822
   103  N   -0.300581
   104  C   -0.020987
   105  C   -0.011935
   106  C   -0.040260
   107  C    0.044995
   108  C    0.055020
   109  C    0.036480
   110  C   -0.036850
   111  N   -0.352607
   112  C    0.125077
   113  C   -0.196570
   114  C    0.022435
   115  C    0.045491
   116  C    0.117938
   117  C    0.063950
   118  O   -0.137535
   119  C   -0.138951
   120  C    0.228269
   121  O   -0.237566
   122  O   -0.322880
   123  C    0.183593
   124  H   -0.017794
   125  H   -0.048521
   126  H   -0.045835
   127  H    0.002154
   128  H    0.000042
   129  H    0.003710
   130  H    0.026645
   131  H    0.004655
   132  H    0.012976
   133  H    0.020657
   134  H    0.050611
   135  H    0.037319
   136  H    0.040752
   137  H    0.005355
   138  H    0.031747
   139  H    0.019301
   140  H    0.059719
   141  H    0.032580
   142  H    0.026082
   143  H    0.015520
   144  H    0.028239
   145  H    0.025873
   146  H    0.028238
   147  H    0.025626
   148  H    0.018958
   149  H    0.017224
   150  H    0.020581
   151  H    0.021666
   152  H    0.015675
   153  H    0.029646
   154  H    0.034115
   155  H    0.055946
   156  H    0.031123
   157  H    0.037670
   158  H    0.027253
 Sum of Mulliken charges =  -0.00000

 Dipole moment (field-independent basis, Debye):
    X=              0.6042    Y=             -2.8917    Z=             -6.4767  Tot=              7.1186
 Quadrupole moment (field-independent basis, Debye-Ang):
   XX=           -407.9825   YY=           -542.6890   ZZ=           -496.0557
   XY=             79.3876   XZ=             -1.5254   YZ=            -52.7387

 Normal termination of Gaussian 16 at Wed Sep 15 10:42:07 2021.
