 Gaussian 16, Revision A.03,
 Gaussian 16:  ES64L-G16RevA.03 25-Dec-2016

 -----------------------------------
 #p cam-b3lyp/Def2SVP td=(nstates=5)
 -----------------------------------

 --------------------------------
 TDDFT excited states in gaussian
 --------------------------------
 Symbolic Z-matrix:
 Charge =  0 Multiplicity = 1

                         Standard orientation:
 ---------------------------------------------------------------------
 Center     Atomic      Atomic             Coordinates (Angstroms)
 Number     Number       Type             X           Y           Z
 ---------------------------------------------------------------------
      1         12           0      -24.968880   -0.760151   -0.247903
      2          6           0      -25.325750    2.485156    1.255150
      3          6           0      -24.881600    0.936511   -3.359912
      4          6           0      -24.751267   -3.815762   -1.924866
      5          6           0      -25.457450   -2.269280    2.692188
      6          7           0      -25.308850    1.533516   -0.943533
      7          6           0      -25.307904    2.617839   -0.138830
      8          6           0      -25.453640    3.923631   -1.000139
      9          6           0      -25.518157    3.307519   -2.443361
     10          6           0      -25.133699    1.819610   -2.275270
     11          6           0      -26.915589    3.523916   -3.122277
     12          6           0      -24.290505    4.899549   -0.824161
     13          6           0      -24.654113    6.340903   -0.679621
     14          1           0      -23.539856    7.359806   -0.400041
     15          7           0      -24.633384   -1.368431   -2.273141
     16          6           0      -24.644118   -0.514519   -3.371027
     17          6           0      -24.386486   -1.305198   -4.558226
     18          6           0      -24.243280   -2.632872   -4.190606
     19          6           0      -24.624654   -2.673103   -2.738600
     20          6           0      -24.428329   -0.777012   -5.963352
     21          6           0      -23.975975   -3.931667   -5.056106
     22          8           0      -23.864456   -5.067895   -4.665387
     23          6           0      -23.655079   -3.767124   -6.525867
     24          7           0      -25.227594   -2.711050    0.228680
     25          6           0      -25.103308   -3.828167   -0.555535
     26          6           0      -25.527094   -5.115468    0.189524
     27          6           0      -25.508586   -4.656645    1.709560
     28          6           0      -25.355294   -3.098163    1.529862
     29          6           0      -26.883766   -5.698262   -0.320720
     30          6           0      -24.361826   -5.282043    2.560704
     31          6           0      -22.948397   -4.829052    2.201781
     32          7           0      -25.345269   -0.123763    1.582474
     33          6           0      -25.467726   -0.872776    2.785918
     34          6           0      -25.690299    0.016512    3.923832
     35          6           0      -25.586801    1.307221    3.374779
     36          6           0      -25.368162    1.194122    1.976234
     37          6           0      -25.894072   -0.393128    5.308276
     38          6           0      -25.650375    2.713661    3.758946
     39          8           0      -25.763661    3.210910    4.866823
     40          6           0      -25.572408    3.560625    2.377234
     41          6           0      -24.410951    4.497500    2.717787
     42          8           0      -23.200344    4.225670    2.810865
     43          8           0      -24.896467    5.698821    2.978358
     44          6           0      -23.946698    6.881353    3.064850
     45          1           0      -24.781446    1.474687   -4.304466
     46          1           0      -24.699745   -4.816159   -2.361622
     47          1           0      -25.535973   -2.825223    3.628470
     48          1           0      -26.341025    4.410295   -0.596808
     49          1           0      -24.752826    3.729627   -3.096044
     50          1           0      -26.903258    4.017394   -4.094092
     51          1           0      -27.671901    3.943325   -2.458540
     52          1           0      -27.426023    2.624411   -3.467170
     53          1           0      -23.916079    4.959652   -1.846221
     54          1           0      -23.523326    4.535426   -0.139932
     55          1           0      -25.447488    6.636361    0.008848
     56          1           0      -25.034117    6.594882   -1.669224
     57          1           0      -24.497459    0.310403   -5.977128
     58          1           0      -25.244113   -1.159283   -6.578892
     59          1           0      -23.541553   -0.971953   -6.566672
     60          1           0      -22.761890   -3.164721   -6.691111
     61          1           0      -24.580104   -3.328333   -6.900021
     62          1           0      -23.643977   -4.793648   -6.892283
     63          1           0      -24.780240   -5.847566   -0.119641
     64          1           0      -26.462209   -4.630249    2.237286
     65          1           0      -26.762731   -6.643788   -0.849270
     66          1           0      -27.537886   -5.048014   -0.900528
     67          1           0      -27.411400   -5.842449    0.622275
     68          1           0      -24.569771   -6.348074    2.653629
     69          1           0      -24.498163   -4.939193    3.586217
     70          1           0      -22.860058   -4.200112    1.316676
     71          1           0      -22.394183   -5.744514    1.996214
     72          1           0      -22.464008   -4.171436    2.922674
     73          1           0      -26.051452    0.423907    6.012687
     74          1           0      -24.995199   -0.950656    5.571211
     75          1           0      -26.735770   -1.086974    5.323680
     76          1           0      -26.425243    4.227677    2.251608
     77          1           0      -24.571986    7.768192    2.959403
     78          1           0      -23.242710    6.921706    2.234216
     79          1           0      -23.344236    6.889653    3.973928
     80         12           0       24.486064   -0.599232    0.371226
     81          6           0       25.522412    1.730052   -1.997238
     82          6           0       23.541041    1.892456    2.432743
     83          6           0       23.935809   -2.917966    2.768344
     84          6           0       25.919413   -3.055494   -1.578665
     85          7           0       24.560735    1.609137    0.201263
     86          6           0       24.829823    2.320088   -0.940531
     87          6           0       24.559973    3.761004   -0.726865
     88          6           0       23.978894    3.890212    0.685940
     89          6           0       23.984670    2.383127    1.190522
     90          6           0       24.613715    4.874110    1.656432
     91          6           0       23.600653    4.368950   -1.899984
     92          6           0       24.178112    5.495428   -2.788718
     93          1           0       23.320893    6.662294   -3.213569
     94          7           0       23.719537   -0.541197    2.277874
     95          6           0       23.392229    0.605451    2.985907
     96          6           0       22.966720    0.252695    4.291413
     97          6           0       23.075487   -1.158191    4.423974
     98          6           0       23.575456   -1.601230    3.118457
     99          6           0       22.381782    1.387262    5.220416
    100          6           0       22.797275   -1.948043    5.701708
    101          8           0       22.966152   -3.168742    5.842378
    102          6           0       22.208593   -1.268840    6.859146
    103          7           0       25.073792   -2.670634    0.722829
    104          6           0       24.639419   -3.429063    1.707995
    105          6           0       25.212971   -4.859943    1.599616
    106          6           0       25.364833   -4.904105    0.028051
    107          6           0       25.436877   -3.423534   -0.331907
    108          6           0       26.572141   -5.236295    2.297675
    109          6           0       24.213566   -5.659780   -0.793512
    110          6           0       22.830570   -5.166363   -0.667295
    111          7           0       25.597839   -0.741160   -1.461620
    112          6           0       26.119131   -1.848906   -2.158433
    113          6           0       26.749208   -1.398842   -3.358525
    114          6           0       26.613314   -0.025270   -3.325935
    115          6           0       25.804563    0.317361   -2.193181
    116          6           0       27.596975   -2.185044   -4.233664
    117          6           0       26.760370    1.120971   -4.092698
    118          8           0       27.290342    1.312317   -5.192041
    119          6           0       26.163601    2.345228   -3.259616
    120          6           0       27.345527    3.163613   -2.856684
    121          8           0       28.329790    2.894206   -2.200647
    122          8           0       27.144247    4.357744   -3.416688
    123          6           0       28.188010    5.398279   -3.139671
    124          1           0       23.071265    2.757783    2.904889
    125          1           0       23.597683   -3.644028    3.509664
    126          1           0       26.309889   -3.851524   -2.215767
    127          1           0       25.538036    4.237000   -0.785027
    128          1           0       22.926609    4.163315    0.610272
    129          1           0       25.272922    4.153582    2.139132
    130          1           0       23.922849    5.410230    2.307352
    131          1           0       25.240723    5.680265    1.276517
    132          1           0       22.668905    4.706811   -1.447302
    133          1           0       23.346422    3.645923   -2.675440
    134          1           0       24.430190    5.025187   -3.739649
    135          1           0       25.132073    5.864005   -2.413960
    136          1           0       22.906382    1.354052    6.175106
    137          1           0       21.389825    0.952336    5.343340
    138          1           0       22.493441    2.424775    4.905299
    139          1           0       22.830151   -0.434612    7.181495
    140          1           0       22.357868   -1.945912    7.699878
    141          1           0       21.151175   -1.020151    6.765433
    142          1           0       24.401849   -5.565180    1.781331
    143          1           0       26.291047   -5.458526   -0.121208
    144          1           0       27.353071   -4.478126    2.253101
    145          1           0       26.852235   -6.152586    1.776759
    146          1           0       26.416281   -5.448579    3.355713
    147          1           0       24.122919   -6.715529   -0.536841
    148          1           0       24.313670   -5.483059   -1.864383
    149          1           0       22.807279   -4.323464   -1.356583
    150          1           0       22.483851   -4.790009    0.295602
    151          1           0       22.015702   -5.817216   -0.982576
    152          1           0       28.566060   -2.165706   -3.733640
    153          1           0       27.712216   -1.799353   -5.246201
    154          1           0       27.211450   -3.186882   -4.425994
    155          1           0       25.389901    2.896473   -3.794156
    156          1           0       27.711482    6.073030   -2.428168
    157          1           0       28.479512    5.882847   -4.071233
    158          1           0       29.106254    5.070328   -2.651646
 ---------------------------------------------------------------------

 SCF Done:  E(RCAM-B3LYP) =  -4069.77212165     A.U. after   19 cycles

 Excitation energies and oscillator strengths:

 Excited State   1:      Singlet-A      1.6510 eV  750.98 nm  f=0.3654  <S**2>=0.000
     309 -> 315        0.18397
     312 -> 314        0.68517
     309 <- 315        0.11254
 This state for optimization and/or second-order correction.
 Total Energy, E(TD-HF/TD-DFT) =  -4069.71144972
 Copying the excited state density for this state as the 1-particle RhoCI density.

 Excited State   2:      Singlet-A      1.7047 eV  727.31 nm  f=0.3766  <S**2>=0.000
     310 -> 316        0.17512
     311 -> 313        0.68605
     310 <- 316        0.10612

 Excited State   3:      Singlet-A      2.1769 eV  569.54 nm  f=0.1384  <S**2>=0.000
     310 -> 313        0.65141
     311 -> 316       -0.26317

 Excited State   4:      Singlet-A      2.2173 eV  559.16 nm  f=0.0916  <S**2>=0.000
     309 -> 314        0.62583
     312 -> 315       -0.32031

 Excited State   5:      Singlet-A      3.0709 eV  403.73 nm  f=0.0000  <S**2>=0.000
     312 -> 313        0.70711

 The electronic state is 1-A.
 Alpha  occ. eigenvalues --  -46.89357 -46.88302 -19.25061 -19.24951 -19.19524
 Alpha  occ. eigenvalues --  -19.19373 -19.19089 -19.18683 -19.18226 -19.18010
 Alpha  occ. eigenvalues --  -14.42468 -14.42016 -14.41844 -14.41559 -14.40113
 Alpha  occ. eigenvalues --  -14.39718 -14.39687 -14.39003 -10.38629 -10.38474
 Alpha  occ. eigenvalues --  -10.35599 -10.35401 -10.35089 -10.34171 -10.32214
 Alpha  occ. eigenvalues --  -10.31716 -10.31440 -10.31413 -10.31380 -10.31247
 Alpha  occ. eigenvalues --  -10.31222 -10.31096 -10.31048 -10.30641 -10.30637
 Alpha  occ. eigenvalues --  -10.30299 -10.30120 -10.30011 -10.29922 -10.29806
 Alpha  occ. eigenvalues --  -10.29121 -10.29002 -10.28877 -10.28786 -10.28751
 Alpha  occ. eigenvalues --  -10.28686 -10.28607 -10.28567 -10.28555 -10.28424
 Alpha  occ. eigenvalues --  -10.28420 -10.28376 -10.28367 -10.28298 -10.28297
 Alpha  occ. eigenvalues --  -10.28171 -10.28147 -10.27901 -10.27881 -10.27813
 Alpha  occ. eigenvalues --  -10.27542 -10.27538 -10.27521 -10.27496 -10.27488
 Alpha  occ. eigenvalues --  -10.27295 -10.27173 -10.26899 -10.26843 -10.26624
 Alpha  occ. eigenvalues --  -10.26515 -10.26479 -10.26394 -10.26279 -10.26231
 Alpha  occ. eigenvalues --  -10.26105 -10.26078 -10.26052 -10.26027 -10.25821
 Alpha  occ. eigenvalues --  -10.25718 -10.25597 -10.25430 -10.25411 -10.24747
 Alpha  occ. eigenvalues --  -10.24673  -3.17765  -3.16993  -1.92668  -1.92200
 Alpha  occ. eigenvalues --   -1.92083  -1.91879  -1.91465  -1.91298  -1.17023
 Alpha  occ. eigenvalues --   -1.15953  -1.11463  -1.10045  -1.09140  -1.08578
 Alpha  occ. eigenvalues --   -1.07375  -1.05439  -1.05294  -1.04274  -1.03798
 Alpha  occ. eigenvalues --   -1.03401  -1.03136  -1.02645  -1.02226  -1.01711
 Alpha  occ. eigenvalues --   -0.92229  -0.90872  -0.89264  -0.89236  -0.88765
 Alpha  occ. eigenvalues --   -0.88758  -0.88387  -0.88005  -0.87981  -0.87616
 Alpha  occ. eigenvalues --   -0.87364  -0.86964  -0.86880  -0.86458  -0.84654
 Alpha  occ. eigenvalues --   -0.84304  -0.84130  -0.83591  -0.83089  -0.82375
 Alpha  occ. eigenvalues --   -0.82024  -0.81580  -0.81517  -0.81038  -0.80757
 Alpha  occ. eigenvalues --   -0.80175  -0.78769  -0.78143  -0.77681  -0.77398
 Alpha  occ. eigenvalues --   -0.77313  -0.76964  -0.75987  -0.75965  -0.75384
 Alpha  occ. eigenvalues --   -0.75134  -0.73497  -0.72603  -0.71695  -0.71656
 Alpha  occ. eigenvalues --   -0.70076  -0.69405  -0.69109  -0.68761  -0.67792
 Alpha  occ. eigenvalues --   -0.67546  -0.67228  -0.66287  -0.65775  -0.65489
 Alpha  occ. eigenvalues --   -0.65407  -0.65128  -0.64833  -0.64578  -0.64066
 Alpha  occ. eigenvalues --   -0.63987  -0.62077  -0.61788  -0.60453  -0.59941
 Alpha  occ. eigenvalues --   -0.59604  -0.59326  -0.59288  -0.58949  -0.58634
 Alpha  occ. eigenvalues --   -0.58278  -0.57942  -0.57713  -0.57372  -0.56455
 Alpha  occ. eigenvalues --   -0.56250  -0.55795  -0.55652  -0.55500  -0.55498
 Alpha  occ. eigenvalues --   -0.55073  -0.55034  -0.54847  -0.54721  -0.54675
 Alpha  occ. eigenvalues --   -0.53974  -0.53406  -0.53340  -0.53269  -0.53224
 Alpha  occ. eigenvalues --   -0.53008  -0.52904  -0.52729  -0.52709  -0.52435
 Alpha  occ. eigenvalues --   -0.52205  -0.52129  -0.51921  -0.51529  -0.51184
 Alpha  occ. eigenvalues --   -0.51107  -0.50976  -0.50902  -0.50385  -0.50121
 Alpha  occ. eigenvalues --   -0.49818  -0.49809  -0.49745  -0.49615  -0.49471
 Alpha  occ. eigenvalues --   -0.49297  -0.49236  -0.49216  -0.49009  -0.48962
 Alpha  occ. eigenvalues --   -0.48662  -0.48521  -0.48447  -0.48370  -0.48141
 Alpha  occ. eigenvalues --   -0.48090  -0.47531  -0.47461  -0.47387  -0.47130
 Alpha  occ. eigenvalues --   -0.46854  -0.46735  -0.46686  -0.46664  -0.46350
 Alpha  occ. eigenvalues --   -0.46256  -0.46194  -0.46010  -0.45839  -0.45831
 Alpha  occ. eigenvalues --   -0.45512  -0.45267  -0.45247  -0.44921  -0.44653
 Alpha  occ. eigenvalues --   -0.44492  -0.44421  -0.44169  -0.44129  -0.44075
 Alpha  occ. eigenvalues --   -0.43976  -0.43740  -0.43650  -0.43539  -0.43380
 Alpha  occ. eigenvalues --   -0.43209  -0.43165  -0.43000  -0.42977  -0.42961
 Alpha  occ. eigenvalues --   -0.42523  -0.42506  -0.42236  -0.42155  -0.42127
 Alpha  occ. eigenvalues --   -0.41846  -0.41823  -0.41622  -0.41418  -0.41087
 Alpha  occ. eigenvalues --   -0.40986  -0.40920  -0.40730  -0.40375  -0.40196
 Alpha  occ. eigenvalues --   -0.40180  -0.39590  -0.39541  -0.39210  -0.38955
 Alpha  occ. eigenvalues --   -0.38642  -0.38080  -0.38058  -0.38043  -0.37710
 Alpha  occ. eigenvalues --   -0.37530  -0.37033  -0.36632  -0.36387  -0.36138
 Alpha  occ. eigenvalues --   -0.36066  -0.35646  -0.34493  -0.34321  -0.33914
 Alpha  occ. eigenvalues --   -0.33496  -0.33135  -0.32737  -0.31495  -0.31448
 Alpha  occ. eigenvalues --   -0.31053  -0.30994  -0.30808  -0.30547  -0.30473
 Alpha  occ. eigenvalues --   -0.30365  -0.30002  -0.29991  -0.24117  -0.24033
 Alpha  occ. eigenvalues --   -0.21457  -0.20966
 Alpha virt. eigenvalues --   -0.08995  -0.08708  -0.02041  -0.01634   0.00265
 Alpha virt. eigenvalues --    0.00646   0.01998   0.02382   0.02447   0.03400
 Alpha virt. eigenvalues --    0.05145   0.05256   0.05325   0.06084   0.06279

 Mulliken charges:
               1
     1  Mg   0.847211
     2  C    0.045347
     3  C   -0.060542
     4  C   -0.047721
     5  C   -0.098773
     6  N   -0.248843
     7  C   -0.052977
     8  C   -0.041259
     9  C   -0.032689
    10  C    0.025034
    11  C    0.061888
    12  C    0.091690
    13  C   -0.097199
    14  H    0.015875
    15  N   -0.370688
    16  C    0.163351
    17  C   -0.136138
    18  C   -0.047608
    19  C    0.113935
    20  C    0.100987
    21  C    0.008302
    22  O   -0.184744
    23  C    0.055706
    24  N   -0.324669
    25  C    0.018162
    26  C   -0.032848
    27  C   -0.028954
    28  C    0.038273
    29  C    0.074270
    30  C    0.042215
    31  C    0.003862
    32  N   -0.436325
    33  C    0.150821
    34  C   -0.152953
    35  C    0.006760
    36  C    0.125970
    37  C    0.128413
    38  C    0.055359
    39  O   -0.163321
    40  C   -0.066578
    41  C    0.185912
    42  O   -0.258991
    43  O   -0.310138
    44  C    0.186780
    45  H   -0.026640
    46  H   -0.004526
    47  H   -0.031261
    48  H    0.015150
    49  H    0.010148
    50  H    0.011129
    51  H    0.016502
    52  H    0.004606
    53  H   -0.000463
    54  H    0.045798
    55  H    0.027004
    56  H    0.015948
    57  H   -0.001697
    58  H    0.033572
    59  H    0.015868
    60  H    0.054915
    61  H    0.014244
    62  H    0.026520
    63  H    0.013905
    64  H    0.017098
    65  H    0.026047
    66  H    0.025187
    67  H    0.002883
    68  H    0.013565
    69  H   -0.002120
    70  H    0.021585
    71  H    0.022761
    72  H    0.019878
    73  H    0.040181
    74  H    0.029337
    75  H    0.022005
    76  H    0.037318
    77  H    0.039495
    78  H    0.037705
    79  H    0.054191
    80  Mg   0.804347
    81  C   -0.001834
    82  C   -0.056897
    83  C   -0.056495
    84  C   -0.102524
    85  N   -0.309892
    86  C   -0.028104
    87  C   -0.016364
    88  C   -0.002640
    89  C   -0.048510
    90  C    0.052468
    91  C    0.041303
    92  C   -0.079843
    93  H    0.019990
    94  N   -0.378213
    95  C    0.181739
    96  C   -0.165954
    97  C   -0.026644
    98  C    0.105820
    99  C    0.128348
   100  C    0.003914
   101  O   -0.216820
   102  C    0.054119
   103  N   -0.227537
   104  C    0.004250
   105  C    0.006884
   106  C   -0.066246
   107  C    0.078646
   108  C    0.091290
   109  C    0.063832
   110  C   -0.038707
   111  N   -0.322734
   112  C    0.102231
   113  C   -0.118849
   114  C    0.060257
   115  C    0.066516
   116  C    0.105460
   117  C    0.014142
   118  O   -0.191344
   119  C   -0.024969
   120  C    0.199653
   121  O   -0.213049
   122  O   -0.318117
   123  C    0.160236
   124  H   -0.030902
   125  H   -0.012889
   126  H   -0.027870
   127  H    0.022305
   128  H    0.007334
   129  H    0.027509
   130  H    0.019911
   131  H    0.018103
   132  H    0.017771
   133  H    0.019226
   134  H    0.036287
   135  H    0.017771
   136  H    0.016271
   137  H    0.039261
   138  H    0.030106
   139  H    0.018190
   140  H    0.019420
   141  H    0.052938
   142  H   -0.008455
   143  H   -0.003719
   144  H    0.027773
   145  H    0.020253
   146  H    0.028565
   147  H    0.010814
   148  H    0.003883
   149  H    0.002569
   150  H    0.016313
   151  H    0.015339
   152  H    0.051116
   153  H    0.031498
   154  H    0.014498
   155  H    0.028963
   156  H    0.030131
   157  H    0.050325
   158  H    0.056236
 Sum of Mulliken charges =  -0.00000

 Dipole moment (field-independent basis, Debye):
    X=             -4.7440    Y=              1.4352    Z=             -1.7205  Tot=              5.2465
 Quadrupole moment (field-independent basis, Debye-Ang):
   XX=           -572.2396   YY=           -469.0317   ZZ=           -531.5497
   XY=             35.2191   XZ=            146.1056   YZ=             -7.1157

 Normal termination of Gaussian 16 at Wed Sep 15 08:39:17 2021.
