 Gaussian 16, Revision A.03,
 Gaussian 16:  ES64L-G16RevA.03 25-Dec-2016

 -----------------------------------
 #p cam-b3lyp/Def2SVP td=(nstates=5)
 -----------------------------------

 --------------------------------
 TDDFT excited states in gaussian
 --------------------------------
 Symbolic Z-matrix:
 Charge =  0 Multiplicity = 1

                         Standard orientation:
 ---------------------------------------------------------------------
 Center     Atomic      Atomic             Coordinates (Angstroms)
 Number     Number       Type             X           Y           Z
 ---------------------------------------------------------------------
      1         12           0       22.157489   -0.687753    0.448135
      2          6           0       21.690265    2.364505   -1.403249
      3          6           0       22.416773    1.245677    3.249646
      4          6           0       22.893698   -3.504144    2.114689
      5          6           0       22.347602   -2.341490   -2.515000
      6          7           0       22.003458    1.648458    0.867715
      7          6           0       21.767786    2.612481   -0.069063
      8          6           0       21.546010    3.883896    0.658713
      9          6           0       21.910575    3.578735    2.138017
     10          6           0       22.192153    2.051389    2.158103
     11          6           0       23.167561    4.379606    2.604973
     12          6           0       20.179678    4.503016    0.501930
     13          6           0       19.941386    5.914172    1.014567
     14          1           0       19.295266    6.856902    0.088436
     15          7           0       22.478661   -1.081453    2.399591
     16          6           0       22.650183   -0.112201    3.426196
     17          6           0       22.783175   -0.860605    4.690244
     18          6           0       23.004284   -2.186559    4.327120
     19          6           0       22.854729   -2.295871    2.864643
     20          6           0       22.850163   -0.144714    6.023102
     21          6           0       23.267329   -3.420598    5.216995
     22          8           0       23.673870   -4.516701    4.788039
     23          6           0       22.984569   -3.275728    6.656580
     24          7           0       22.637140   -2.675263   -0.107789
     25          6           0       22.891316   -3.679697    0.705609
     26          6           0       23.183363   -5.014450   -0.033451
     27          6           0       22.754557   -4.649251   -1.456285
     28          6           0       22.524677   -3.158957   -1.351887
     29          6           0       24.695693   -5.408681    0.065588
     30          6           0       21.553290   -5.376958   -2.016447
     31          6           0       21.654084   -5.853803   -3.476267
     32          7           0       21.951761   -0.126249   -1.521144
     33          6           0       22.048440   -0.943701   -2.625992
     34          6           0       21.782351   -0.187305   -3.886675
     35          6           0       21.672232    1.087633   -3.369292
     36          6           0       21.826684    1.106711   -1.977863
     37          6           0       21.547998   -0.720464   -5.263562
     38          6           0       21.447431    2.464987   -3.782613
     39          8           0       21.222796    2.878969   -4.914365
     40          6           0       21.444324    3.370132   -2.529396
     41          6           0       22.351876    4.454415   -2.805446
     42          8           0       23.605675    4.411304   -2.789573
     43          8           0       21.665025    5.623599   -2.930788
     44          6           0       22.405047    6.866590   -2.937390
     45          1           0       22.416450    1.841044    4.164785
     46          1           0       23.292204   -4.383395    2.624842
     47          1           0       22.656117   -2.909290   -3.395054
     48          1           0       22.298910    4.541103    0.225579
     49          1           0       21.101368    3.826091    2.825330
     50          1           0       23.195244    4.978644    3.515734
     51          1           0       23.360581    5.069033    1.783217
     52          1           0       24.099845    3.814243    2.610760
     53          1           0       19.427222    3.943664    1.058097
     54          1           0       19.763083    4.325173   -0.489108
     55          1           0       20.882186    6.385668    1.294644
     56          1           0       19.151160    5.816306    1.758471
     57          1           0       23.648396   -0.492261    6.678617
     58          1           0       21.923944   -0.185960    6.595912
     59          1           0       23.083983    0.918424    5.961664
     60          1           0       21.977927   -2.873228    6.770453
     61          1           0       23.728647   -2.541820    6.964177
     62          1           0       22.967921   -4.284355    7.067846
     63          1           0       22.529588   -5.759670    0.420966
     64          1           0       23.516920   -4.751801   -2.228018
     65          1           0       25.191343   -5.344259   -0.902610
     66          1           0       24.814721   -6.445355    0.380655
     67          1           0       25.135372   -4.687255    0.754470
     68          1           0       20.641317   -4.789145   -1.917099
     69          1           0       21.319153   -6.118754   -1.253579
     70          1           0       21.010489   -6.728623   -3.563619
     71          1           0       22.682697   -5.985585   -3.813374
     72          1           0       21.261974   -4.985234   -4.004941
     73          1           0       20.497718   -0.774218   -5.550741
     74          1           0       22.121883   -1.645428   -5.312427
     75          1           0       22.134155   -0.138326   -5.975727
     76          1           0       20.462080    3.842418   -2.542218
     77          1           0       23.469573    6.763339   -2.725415
     78          1           0       21.926864    7.601890   -2.290838
     79          1           0       22.367114    7.359235   -3.909319
     80         12           0      -21.840632   -0.725426   -0.155539
     81          6           0      -23.402905    1.970640    1.380827
     82          6           0      -19.614421    1.580811   -1.480274
     83          6           0      -20.609375   -3.254238   -2.067438
     84          6           0      -24.267787   -2.825725    1.130369
     85          7           0      -21.583638    1.528446   -0.098677
     86          6           0      -22.322410    2.447168    0.631241
     87          6           0      -21.885744    3.946634    0.397156
     88          6           0      -20.867144    3.746796   -0.791202
     89          6           0      -20.686029    2.184855   -0.840016
     90          6           0      -21.186167    4.256357   -2.199774
     91          6           0      -21.316656    4.561124    1.689120
     92          6           0      -22.171043    5.577472    2.399907
     93          1           0      -21.438945    6.760881    3.057281
     94          7           0      -20.216280   -0.911874   -1.430429
     95          6           0      -19.420737    0.143331   -1.751880
     96          6           0      -18.415104   -0.394315   -2.688914
     97          6           0      -18.722069   -1.736979   -2.959496
     98          6           0      -19.847180   -2.047876   -2.166207
     99          6           0      -17.249813    0.412916   -3.096175
    100          6           0      -18.072880   -2.706666   -3.903000
    101          8           0      -18.384043   -3.928364   -3.968127
    102          6           0      -17.062125   -2.345866   -4.846749
    103          7           0      -22.296233   -2.716190   -0.365631
    104          6           0      -21.636305   -3.574748   -1.190203
    105          6           0      -22.178863   -4.949484   -1.170626
    106          6           0      -23.323307   -4.852371   -0.098879
    107          6           0      -23.329280   -3.396776    0.182238
    108          6           0      -22.670827   -5.691425   -2.448134
    109          6           0      -23.169636   -5.833391    1.166199
    110          6           0      -22.312912   -5.479155    2.417870
    111          7           0      -23.523357   -0.542886    0.973799
    112          6           0      -24.391957   -1.481200    1.452167
    113          6           0      -25.258705   -0.904390    2.384502
    114          6           0      -24.933204    0.504113    2.301155
    115          6           0      -23.855440    0.651449    1.450916
    116          6           0      -26.285745   -1.604121    3.272759
    117          6           0      -25.247608    1.761533    2.916405
    118          8           0      -25.976329    2.108606    3.823517
    119          6           0      -24.387878    2.820540    2.141168
    120          6           0      -25.256301    3.619876    1.254284
    121          8           0      -25.250009    3.612044    0.003624
    122          8           0      -26.146620    4.403972    1.900495
    123          6           0      -26.920964    5.438333    1.133170
    124          1           0      -18.957139    2.318201   -1.944407
    125          1           0      -20.284368   -4.097315   -2.680969
    126          1           0      -24.958467   -3.444914    1.707449
    127          1           0      -22.650476    4.519746   -0.128131
    128          1           0      -19.933019    4.192544   -0.449551
    129          1           0      -21.363458    3.416608   -2.872124
    130          1           0      -20.257197    4.672984   -2.586255
    131          1           0      -22.013356    4.963717   -2.268283
    132          1           0      -20.419263    5.095384    1.374913
    133          1           0      -20.996563    3.746793    2.339124
    134          1           0      -22.715356    5.052582    3.185405
    135          1           0      -22.964105    6.026612    1.801890
    136          1           0      -16.387679   -0.133612   -2.716082
    137          1           0      -17.174497    1.452827   -2.775737
    138          1           0      -17.186476    0.437803   -4.184019
    139          1           0      -17.412226   -1.418080   -5.298471
    140          1           0      -16.800828   -3.194199   -5.478010
    141          1           0      -16.150441   -2.025221   -4.342581
    142          1           0      -21.308034   -5.470964   -0.774439
    143          1           0      -24.280031   -5.064263   -0.574794
    144          1           0      -22.046653   -6.552412   -2.687483
    145          1           0      -22.623091   -5.042745   -3.323454
    146          1           0      -23.715335   -5.998391   -2.395748
    147          1           0      -22.687420   -6.702551    0.718336
    148          1           0      -24.217776   -6.040982    1.382153
    149          1           0      -21.945607   -4.454019    2.458091
    150          1           0      -21.531270   -6.192408    2.680959
    151          1           0      -23.005451   -5.625657    3.245702
    152          1           0      -27.289531   -1.203076    3.128628
    153          1           0      -26.024504   -1.386170    4.308175
    154          1           0      -26.286108   -2.691710    3.195664
    155          1           0      -24.046212    3.555390    2.870316
    156          1           0      -27.266051    6.007477    1.996471
    157          1           0      -27.733887    5.047908    0.521824
    158          1           0      -26.244936    5.997851    0.485878
 ---------------------------------------------------------------------

 SCF Done:  E(RCAM-B3LYP) =  -4069.82555367     A.U. after   17 cycles

 Excitation energies and oscillator strengths:

 Excited State   1:      Singlet-A      1.7035 eV  727.83 nm  f=0.3840  <S**2>=0.000
     310 -> 316        0.17723
     311 -> 313        0.68474
     310 <- 316        0.10754
 This state for optimization and/or second-order correction.
 Total Energy, E(TD-HF/TD-DFT) =  -4069.76295225
 Copying the excited state density for this state as the 1-particle RhoCI density.

 Excited State   2:      Singlet-A      1.7540 eV  706.87 nm  f=0.3808  <S**2>=0.000
     309 -> 315        0.19892
     312 -> 314        0.68125
     309 <- 315        0.11271

 Excited State   3:      Singlet-A      2.2075 eV  561.65 nm  f=0.1412  <S**2>=0.000
     310 -> 313        0.65103
     311 -> 316       -0.26106

 Excited State   4:      Singlet-A      2.3188 eV  534.70 nm  f=0.0718  <S**2>=0.000
     309 -> 314        0.61703
     312 -> 315       -0.33882

 Excited State   5:      Singlet-A      3.1196 eV  397.44 nm  f=0.0000  <S**2>=0.000
     312 -> 313        0.70710

 The electronic state is 1-A.
 Alpha  occ. eigenvalues --  -46.88529 -46.87540 -19.25192 -19.24074 -19.19058
 Alpha  occ. eigenvalues --  -19.18866 -19.18637 -19.18270 -19.18235 -19.17962
 Alpha  occ. eigenvalues --  -14.42013 -14.41935 -14.41871 -14.41132 -14.39794
 Alpha  occ. eigenvalues --  -14.39628 -14.39542 -14.38369 -10.39168 -10.38549
 Alpha  occ. eigenvalues --  -10.35276 -10.34527 -10.34480 -10.34189 -10.32024
 Alpha  occ. eigenvalues --  -10.31246 -10.30968 -10.30814 -10.30779 -10.30635
 Alpha  occ. eigenvalues --  -10.30603 -10.30588 -10.30504 -10.30477 -10.30434
 Alpha  occ. eigenvalues --  -10.30422 -10.30133 -10.30111 -10.30034 -10.29063
 Alpha  occ. eigenvalues --  -10.28916 -10.28632 -10.28566 -10.28430 -10.28375
 Alpha  occ. eigenvalues --  -10.28303 -10.28158 -10.28149 -10.28040 -10.28019
 Alpha  occ. eigenvalues --  -10.27981 -10.27848 -10.27741 -10.27673 -10.27632
 Alpha  occ. eigenvalues --  -10.27565 -10.27387 -10.27355 -10.27266 -10.27263
 Alpha  occ. eigenvalues --  -10.27252 -10.27153 -10.27107 -10.27102 -10.26994
 Alpha  occ. eigenvalues --  -10.26947 -10.26917 -10.26892 -10.26758 -10.26706
 Alpha  occ. eigenvalues --  -10.26325 -10.26315 -10.26244 -10.26122 -10.26011
 Alpha  occ. eigenvalues --  -10.26009 -10.25962 -10.25948 -10.25922 -10.25900
 Alpha  occ. eigenvalues --  -10.25793 -10.25730 -10.25724 -10.25676 -10.24633
 Alpha  occ. eigenvalues --  -10.24620  -3.17135  -3.16255  -1.92044  -1.91582
 Alpha  occ. eigenvalues --   -1.91447  -1.91165  -1.90714  -1.90559  -1.16140
 Alpha  occ. eigenvalues --   -1.15144  -1.09536  -1.09503  -1.09090  -1.07960
 Alpha  occ. eigenvalues --   -1.05986  -1.05795  -1.05140  -1.04849  -1.04607
 Alpha  occ. eigenvalues --   -1.04095  -1.03248  -1.03104  -1.02237  -1.02210
 Alpha  occ. eigenvalues --   -0.93192  -0.93091  -0.90120  -0.89345  -0.89046
 Alpha  occ. eigenvalues --   -0.88505  -0.88457  -0.88308  -0.87617  -0.87585
 Alpha  occ. eigenvalues --   -0.87109  -0.87017  -0.86653  -0.86107  -0.84702
 Alpha  occ. eigenvalues --   -0.84388  -0.84094  -0.83655  -0.82962  -0.82816
 Alpha  occ. eigenvalues --   -0.82633  -0.82471  -0.81271  -0.80996  -0.80907
 Alpha  occ. eigenvalues --   -0.80554  -0.78696  -0.78564  -0.77747  -0.77518
 Alpha  occ. eigenvalues --   -0.77470  -0.76877  -0.76602  -0.76219  -0.75304
 Alpha  occ. eigenvalues --   -0.75274  -0.73121  -0.73018  -0.71982  -0.71343
 Alpha  occ. eigenvalues --   -0.70114  -0.69572  -0.69291  -0.68784  -0.68114
 Alpha  occ. eigenvalues --   -0.68011  -0.67109  -0.66559  -0.66449  -0.65438
 Alpha  occ. eigenvalues --   -0.65208  -0.65136  -0.65096  -0.64619  -0.64587
 Alpha  occ. eigenvalues --   -0.64374  -0.62570  -0.61500  -0.60436  -0.59969
 Alpha  occ. eigenvalues --   -0.59932  -0.59653  -0.59517  -0.59157  -0.58804
 Alpha  occ. eigenvalues --   -0.58602  -0.58423  -0.57804  -0.57639  -0.57313
 Alpha  occ. eigenvalues --   -0.56494  -0.56178  -0.55778  -0.55645  -0.55545
 Alpha  occ. eigenvalues --   -0.54904  -0.54466  -0.54451  -0.54058  -0.53919
 Alpha  occ. eigenvalues --   -0.53837  -0.53515  -0.53256  -0.53195  -0.52995
 Alpha  occ. eigenvalues --   -0.52919  -0.52536  -0.52447  -0.52084  -0.51999
 Alpha  occ. eigenvalues --   -0.51907  -0.51894  -0.51715  -0.51238  -0.51079
 Alpha  occ. eigenvalues --   -0.50847  -0.50816  -0.50513  -0.50360  -0.50320
 Alpha  occ. eigenvalues --   -0.50173  -0.49959  -0.49770  -0.49679  -0.49646
 Alpha  occ. eigenvalues --   -0.49435  -0.49104  -0.48949  -0.48814  -0.48668
 Alpha  occ. eigenvalues --   -0.48486  -0.48409  -0.48369  -0.48195  -0.47985
 Alpha  occ. eigenvalues --   -0.47937  -0.47828  -0.47774  -0.47390  -0.47261
 Alpha  occ. eigenvalues --   -0.47236  -0.47032  -0.46762  -0.46566  -0.46504
 Alpha  occ. eigenvalues --   -0.46258  -0.46258  -0.46070  -0.45999  -0.45714
 Alpha  occ. eigenvalues --   -0.45599  -0.45410  -0.45273  -0.45180  -0.45168
 Alpha  occ. eigenvalues --   -0.45080  -0.44811  -0.44554  -0.44257  -0.43989
 Alpha  occ. eigenvalues --   -0.43988  -0.43888  -0.43826  -0.43801  -0.43734
 Alpha  occ. eigenvalues --   -0.43445  -0.43424  -0.43177  -0.42901  -0.42768
 Alpha  occ. eigenvalues --   -0.42526  -0.42463  -0.42461  -0.42070  -0.41780
 Alpha  occ. eigenvalues --   -0.41709  -0.41609  -0.41590  -0.41490  -0.41262
 Alpha  occ. eigenvalues --   -0.41134  -0.41095  -0.40894  -0.40802  -0.40341
 Alpha  occ. eigenvalues --   -0.40149  -0.39988  -0.39960  -0.39713  -0.38933
 Alpha  occ. eigenvalues --   -0.38841  -0.38213  -0.37938  -0.37827  -0.37068
 Alpha  occ. eigenvalues --   -0.36920  -0.36513  -0.36398  -0.36095  -0.36029
 Alpha  occ. eigenvalues --   -0.35670  -0.35611  -0.34315  -0.33840  -0.33561
 Alpha  occ. eigenvalues --   -0.33197  -0.33035  -0.32889  -0.31592  -0.31072
 Alpha  occ. eigenvalues --   -0.31002  -0.30622  -0.30616  -0.30568  -0.30288
 Alpha  occ. eigenvalues --   -0.30042  -0.29903  -0.29327  -0.24100  -0.23649
 Alpha  occ. eigenvalues --   -0.21119  -0.20939
 Alpha virt. eigenvalues --   -0.08698  -0.08176  -0.01819  -0.01317   0.00677
 Alpha virt. eigenvalues --    0.00722   0.02354   0.02493   0.02992   0.03558
 Alpha virt. eigenvalues --    0.04530   0.05037   0.05496   0.05633   0.05767

 Mulliken charges:
               1
     1  Mg   0.834422
     2  C    0.024674
     3  C   -0.055729
     4  C   -0.051645
     5  C   -0.106219
     6  N   -0.264148
     7  C   -0.113555
     8  C    0.060345
     9  C   -0.062134
    10  C    0.034817
    11  C    0.055103
    12  C    0.051963
    13  C   -0.062154
    14  H    0.017746
    15  N   -0.433207
    16  C    0.175028
    17  C   -0.115169
    18  C   -0.045483
    19  C    0.143482
    20  C    0.083564
    21  C    0.007320
    22  O   -0.223190
    23  C    0.070557
    24  N   -0.254212
    25  C   -0.036992
    26  C   -0.004020
    27  C   -0.057295
    28  C    0.011892
    29  C    0.079536
    30  C    0.047610
    31  C    0.022747
    32  N   -0.327816
    33  C    0.125492
    34  C   -0.201393
    35  C    0.044234
    36  C    0.113382
    37  C    0.151091
    38  C   -0.008648
    39  O   -0.172845
    40  C    0.036399
    41  C    0.195465
    42  O   -0.253651
    43  O   -0.318328
    44  C    0.171993
    45  H   -0.038312
    46  H    0.004211
    47  H   -0.019190
    48  H    0.008463
    49  H    0.010543
    50  H    0.018379
    51  H   -0.002275
    52  H    0.013825
    53  H   -0.010900
    54  H    0.002142
    55  H    0.034913
    56  H    0.034180
    57  H    0.018595
    58  H    0.030360
    59  H    0.016786
    60  H    0.031146
    61  H    0.040936
    62  H    0.035937
    63  H    0.017079
    64  H    0.006265
    65  H    0.011867
    66  H    0.025629
    67  H    0.033368
    68  H   -0.002045
    69  H   -0.015552
    70  H    0.028554
    71  H    0.017491
    72  H    0.021547
    73  H    0.054865
    74  H   -0.004378
    75  H    0.025644
    76  H    0.050947
    77  H    0.050007
    78  H    0.029551
    79  H    0.028389
    80  Mg   0.842014
    81  C   -0.018393
    82  C   -0.053909
    83  C   -0.067823
    84  C   -0.096673
    85  N   -0.267824
    86  C   -0.058734
    87  C   -0.002123
    88  C   -0.086436
    89  C    0.002200
    90  C    0.086088
    91  C    0.098654
    92  C   -0.086470
    93  H    0.020458
    94  N   -0.397041
    95  C    0.159461
    96  C   -0.172373
    97  C    0.028783
    98  C    0.105210
    99  C    0.105044
   100  C   -0.012483
   101  O   -0.250252
   102  C    0.087504
   103  N   -0.298741
   104  C    0.055479
   105  C   -0.041436
   106  C   -0.007406
   107  C    0.040338
   108  C    0.076557
   109  C    0.015279
   110  C    0.012086
   111  N   -0.356459
   112  C    0.119054
   113  C   -0.160415
   114  C   -0.009439
   115  C    0.183601
   116  C    0.132500
   117  C    0.018580
   118  O   -0.153170
   119  C   -0.051970
   120  C    0.191720
   121  O   -0.263437
   122  O   -0.324265
   123  C    0.186501
   124  H   -0.034011
   125  H   -0.005134
   126  H   -0.038781
   127  H    0.013786
   128  H    0.000830
   129  H    0.026218
   130  H    0.010495
   131  H    0.029947
   132  H    0.011957
   133  H    0.021624
   134  H    0.043707
   135  H    0.030176
   136  H    0.034851
   137  H    0.019924
   138  H    0.013952
   139  H    0.022530
   140  H    0.040329
   141  H    0.021384
   142  H    0.020233
   143  H    0.009419
   144  H    0.022361
   145  H    0.017773
   146  H    0.015187
   147  H    0.010525
   148  H    0.016461
   149  H    0.036086
   150  H    0.017577
   151  H    0.007433
   152  H    0.037975
   153  H    0.031028
   154  H    0.003125
   155  H    0.027401
   156  H    0.047671
   157  H    0.049100
   158  H    0.037020
 Sum of Mulliken charges =  -0.00000

 Dipole moment (field-independent basis, Debye):
    X=              0.6363    Y=              0.3179    Z=              2.9054  Tot=              2.9912
 Quadrupole moment (field-independent basis, Debye-Ang):
   XX=           -702.7234   YY=           -473.8802   ZZ=           -525.8430
   XY=             -4.1854   XZ=            117.0695   YZ=             14.0071

 Normal termination of Gaussian 16 at Wed Sep 15 23:33:04 2021.
