 Gaussian 16, Revision A.03,
 Gaussian 16:  ES64L-G16RevA.03 25-Dec-2016

 ----------------------------------------------------------
 #p cam-b3lyp/Def2SVP td=(nstates=5) density=(transition=1)
 ----------------------------------------------------------

 --------------------------------
 TDDFT excited states in gaussian
 --------------------------------
 Symbolic Z-matrix:
 Charge =  0 Multiplicity = 1

                         Standard orientation:
 ---------------------------------------------------------------------
 Center     Atomic      Atomic             Coordinates (Angstroms)
 Number     Number       Type             X           Y           Z
 ---------------------------------------------------------------------
      1         12           0        4.939379   -0.550461   -0.159944
      2          6           0        3.384023    2.318072   -1.355661
      3          6           0        7.878536    1.094342   -0.085857
      4          6           0        6.547360   -3.499371    0.236869
      5          6           0        2.047597   -2.394116   -1.050048
      6          7           0        5.439356    1.472530   -0.592312
      7          6           0        4.675112    2.570829   -0.921243
      8          6           0        5.570093    3.832110   -1.068448
      9          6           0        6.985748    3.187581   -1.185394
     10          6           0        6.788639    1.856807   -0.474383
     11          6           0        7.483792    2.958461   -2.655787
     12          6           0        5.214762    4.798051    0.076671
     13          6           0        5.123637    6.219141   -0.331437
     14          1           0        4.364585    7.074713    0.578483
     15          7           0        6.892346   -1.057632    0.263023
     16          6           0        7.947848   -0.204156    0.307542
     17          6           0        9.050078   -0.876368    0.948398
     18          6           0        8.647451   -2.256897    1.049212
     19          6           0        7.326244   -2.333511    0.418963
     20          6           0       10.345942   -0.219380    1.263869
     21          6           0        9.426352   -3.525545    1.527098
     22          8           0        8.920254   -4.649132    1.557141
     23          6           0       10.804629   -3.417680    2.117255
     24          7           0        4.431984   -2.657831   -0.721202
     25          6           0        5.283478   -3.713392   -0.294896
     26          6           0        4.657431   -5.064012   -0.407564
     27          6           0        3.174190   -4.611513   -0.605503
     28          6           0        3.201929   -3.091207   -0.739036
     29          6           0        5.242753   -5.950179   -1.558802
     30          6           0        2.230187   -5.026268    0.581671
     31          6           0        2.719291   -4.631552    1.998482
     32          7           0        3.049133   -0.153377   -0.921904
     33          6           0        1.957262   -0.995317   -1.183951
     34          6           0        0.915891   -0.166910   -1.665109
     35          6           0        1.433897    1.121316   -1.713866
     36          6           0        2.713828    1.065169   -1.269853
     37          6           0       -0.472095   -0.618452   -1.991082
     38          6           0        1.140856    2.415658   -2.118717
     39          8           0        0.095986    2.870470   -2.618957
     40          6           0        2.379027    3.339782   -1.914395
     41          6           0        1.861537    4.421542   -0.915614
     42          8           0        1.576546    4.223609    0.278914
     43          8           0        1.773798    5.629855   -1.598449
     44          6           0        1.064942    6.770649   -0.936131
     45          1           0        8.778288    1.703344   -0.196178
     46          1           0        6.853058   -4.525112    0.456605
     47          1           0        1.070572   -2.873319   -1.141455
     48          1           0        5.291506    4.391345   -1.960981
     49          1           0        7.693801    3.774823   -0.601416
     50          1           0        6.837292    3.338678   -3.447236
     51          1           0        7.514528    1.894583   -2.887487
     52          1           0        8.433258    3.477121   -2.786887
     53          1           0        6.062214    4.763076    0.759859
     54          1           0        4.288910    4.444451    0.531203
     55          1           0        4.578748    6.217898   -1.275612
     56          1           0        6.129848    6.585214   -0.534524
     57          1           0       10.249018    0.865998    1.281151
     58          1           0       11.114949   -0.664981    0.631967
     59          1           0       10.635237   -0.470343    2.284431
     60          1           0       11.249734   -4.397512    1.942813
     61          1           0       10.754200   -3.260448    3.194921
     62          1           0       11.410795   -2.667537    1.608418
     63          1           0        4.712211   -5.654565    0.508030
     64          1           0        2.798523   -5.043830   -1.533468
     65          1           0        5.733998   -5.303879   -2.286680
     66          1           0        4.532561   -6.556898   -2.120824
     67          1           0        5.991369   -6.685208   -1.261756
     68          1           0        2.058458   -6.096183    0.462576
     69          1           0        1.280730   -4.559236    0.320136
     70          1           0        2.016199   -3.981347    2.519437
     71          1           0        3.684346   -4.140794    1.869244
     72          1           0        2.869953   -5.494363    2.646606
     73          1           0       -0.644073   -0.318335   -3.024704
     74          1           0       -1.149112   -0.148490   -1.277736
     75          1           0       -0.628952   -1.697118   -1.979719
     76          1           0        2.605478    3.818501   -2.866731
     77          1           0        0.044800    6.429852   -0.760759
     78          1           0        1.009117    7.715490   -1.476654
     79          1           0        1.687268    6.807981   -0.041986
     80         12           0       -4.951703   -0.654867    0.055489
     81          6           0       -3.024403    2.161937    0.848314
     82          6           0       -7.828601    1.404023    0.198400
     83          6           0       -6.875844   -3.420565   -0.366502
     84          6           0       -2.190770   -2.633535    0.674477
     85          7           0       -5.302823    1.518645    0.309413
     86          6           0       -4.297187    2.480169    0.444193
     87          6           0       -4.893677    3.897363    0.121039
     88          6           0       -6.396387    3.610937    0.020267
     89          6           0       -6.541003    2.064214    0.237490
     90          6           0       -7.174722    4.419405    1.093025
     91          6           0       -4.221752    4.432341   -1.137656
     92          6           0       -4.111565    5.939175   -1.303483
     93          1           0       -4.949607    6.841046   -0.369295
     94          7           0       -7.050617   -1.012640   -0.085943
     95          6           0       -8.061552   -0.039493    0.028363
     96          6           0       -9.374356   -0.652308   -0.073633
     97          6           0       -9.172820   -2.068780   -0.311579
     98          6           0       -7.656091   -2.219182   -0.241370
     99          6           0      -10.692603    0.130524   -0.125021
    100          6           0      -10.167773   -3.184296   -0.568348
    101          8           0       -9.776970   -4.326972   -0.766510
    102          6           0      -11.588948   -2.831062   -0.785717
    103          7           0       -4.532342   -2.745219    0.082105
    104          6           0       -5.485798   -3.672434   -0.212180
    105          6           0       -4.830409   -5.071649   -0.348889
    106          6           0       -3.295568   -4.824946   -0.078050
    107          6           0       -3.273732   -3.290027    0.141027
    108          6           0       -5.483544   -6.066615    0.627110
    109          6           0       -2.355314   -5.202164   -1.253526
    110          6           0       -1.696443   -6.545740   -0.956868
    111          7           0       -2.993632   -0.404166    0.748852
    112          6           0       -1.988679   -1.268636    1.029463
    113          6           0       -0.910643   -0.493993    1.690925
    114          6           0       -1.208667    0.829817    1.550703
    115          6           0       -2.518809    0.823398    1.007484
    116          6           0        0.354245   -1.166871    2.196917
    117          6           0       -0.754620    2.214550    1.735905
    118          8           0        0.289219    2.627761    2.226314
    119          6           0       -1.880809    3.080422    1.205116
    120          6           0       -2.153679    4.063611    2.265307
    121          8           0       -2.779870    3.943117    3.326957
    122          8           0       -1.500223    5.230180    1.924478
    123          6           0       -1.578337    6.320413    2.872328
    124          1           0       -8.682156    2.084203    0.170036
    125          1           0       -7.555708   -4.240380   -0.607775
    126          1           0       -1.394019   -3.333244    0.935628
    127          1           0       -4.621918    4.434850    1.030336
    128          1           0       -6.719593    4.052737   -0.922260
    129          1           0       -7.617200    3.819973    1.888816
    130          1           0       -8.088701    4.760049    0.607329
    131          1           0       -6.552481    5.175769    1.570994
    132          1           0       -4.762383    3.950129   -1.952650
    133          1           0       -3.228140    3.993110   -1.218442
    134          1           0       -4.322474    6.190001   -2.342174
    135          1           0       -3.043388    6.089326   -1.142890
    136          1           0      -10.583183    1.195335    0.081535
    137          1           0      -11.392114   -0.273387    0.608073
    138          1           0      -11.172891   -0.062875   -1.083471
    139          1           0      -11.664234   -2.246633   -1.703048
    140          1           0      -12.036738   -2.428447    0.122814
    141          1           0      -12.194487   -3.709194   -1.010224
    142          1           0       -5.045844   -5.437176   -1.352660
    143          1           0       -3.091041   -5.330173    0.866791
    144          1           0       -4.820467   -6.561826    1.335883
    145          1           0       -5.821426   -6.812762   -0.091738
    146          1           0       -6.237358   -5.631381    1.282585
    147          1           0       -1.474743   -4.559504   -1.252647
    148          1           0       -2.855412   -5.241823   -2.221405
    149          1           0       -1.818863   -7.101149   -1.886599
    150          1           0       -2.240422   -7.163576   -0.242808
    151          1           0       -0.644831   -6.499656   -0.672498
    152          1           0        0.313480   -2.255008    2.252314
    153          1           0        0.659537   -0.802572    3.177062
    154          1           0        1.132681   -1.034202    1.444733
    155          1           0       -1.529926    3.552488    0.288011
    156          1           0       -1.291895    5.928308    3.848525
    157          1           0       -2.573828    6.757620    2.952502
    158          1           0       -0.695807    6.924996    2.666003
 ---------------------------------------------------------------------

 SCF Done:  E(RCAM-B3LYP) =  -4069.81314765     A.U. after   19 cycles

 Excitation energies and oscillator strengths:

 Excited State   1:      Singlet-A      1.6076 eV  771.22 nm  f=0.8941  <S**2>=0.000
     309 -> 315        0.11605
     311 -> 313        0.53941
     312 -> 314        0.41873
 This state for optimization and/or second-order correction.
 Total Energy, E(TD-HF/TD-DFT) =  -4069.75406803
 Copying the excited state density for this state as the 1-particle RhoCI density.

 Excited State   2:      Singlet-A      1.7040 eV  727.62 nm  f=0.0315  <S**2>=0.000
     309 -> 315       -0.10550
     310 -> 316       -0.14033
     311 -> 313       -0.42412
     312 -> 314        0.53616

 Excited State   3:      Singlet-A      2.0580 eV  602.44 nm  f=0.0003  <S**2>=0.000
     312 -> 313        0.69518

 Excited State   4:      Singlet-A      2.1835 eV  567.83 nm  f=0.0129  <S**2>=0.000
     309 -> 313        0.33673
     310 -> 314        0.54386
     311 -> 315       -0.12963
     312 -> 316        0.22047

 Excited State   5:      Singlet-A      2.2163 eV  559.42 nm  f=0.1927  <S**2>=0.000
     309 -> 313        0.54594
     310 -> 314       -0.33477
     311 -> 315       -0.23042
     312 -> 316       -0.15098

 The electronic state is 1-A.
 Alpha  occ. eigenvalues --  -46.88708 -46.88198 -19.24476 -19.23773 -19.19536
 Alpha  occ. eigenvalues --  -19.19079 -19.18884 -19.18668 -19.18211 -19.17787
 Alpha  occ. eigenvalues --  -14.41823 -14.41776 -14.41417 -14.41375 -14.39732
 Alpha  occ. eigenvalues --  -14.39256 -14.38805 -14.38410 -10.39569 -10.38624
 Alpha  occ. eigenvalues --  -10.35216 -10.35163 -10.34280 -10.33717 -10.31811
 Alpha  occ. eigenvalues --  -10.31528 -10.30867 -10.30822 -10.30738 -10.30619
 Alpha  occ. eigenvalues --  -10.30479 -10.30459 -10.30276 -10.30187 -10.30173
 Alpha  occ. eigenvalues --  -10.30109 -10.29826 -10.29197 -10.29173 -10.29126
 Alpha  occ. eigenvalues --  -10.28977 -10.28498 -10.28195 -10.28177 -10.28175
 Alpha  occ. eigenvalues --  -10.28100 -10.28098 -10.27806 -10.27741 -10.27676
 Alpha  occ. eigenvalues --  -10.27665 -10.27585 -10.27540 -10.27473 -10.27366
 Alpha  occ. eigenvalues --  -10.27362 -10.27338 -10.27301 -10.27298 -10.27258
 Alpha  occ. eigenvalues --  -10.27130 -10.27100 -10.27099 -10.26927 -10.26791
 Alpha  occ. eigenvalues --  -10.26658 -10.26631 -10.26437 -10.26387 -10.26308
 Alpha  occ. eigenvalues --  -10.26249 -10.26222 -10.25946 -10.25876 -10.25873
 Alpha  occ. eigenvalues --  -10.25854 -10.25837 -10.25704 -10.25475 -10.25216
 Alpha  occ. eigenvalues --  -10.25100 -10.25097 -10.25081 -10.25063 -10.24251
 Alpha  occ. eigenvalues --  -10.23647  -3.17109  -3.16795  -1.92022  -1.91675
 Alpha  occ. eigenvalues --   -1.91523  -1.91441  -1.91255  -1.91098  -1.15078
 Alpha  occ. eigenvalues --   -1.14094  -1.10143  -1.09407  -1.08831  -1.08045
 Alpha  occ. eigenvalues --   -1.06251  -1.06159  -1.04724  -1.03914  -1.03827
 Alpha  occ. eigenvalues --   -1.03449  -1.02454  -1.02186  -1.02104  -1.01235
 Alpha  occ. eigenvalues --   -0.92632  -0.92424  -0.89006  -0.88876  -0.88679
 Alpha  occ. eigenvalues --   -0.88645  -0.88620  -0.87769  -0.87632  -0.87009
 Alpha  occ. eigenvalues --   -0.86748  -0.86449  -0.86363  -0.85144  -0.84473
 Alpha  occ. eigenvalues --   -0.83809  -0.83634  -0.83457  -0.82247  -0.82134
 Alpha  occ. eigenvalues --   -0.82059  -0.81555  -0.80840  -0.80417  -0.80261
 Alpha  occ. eigenvalues --   -0.79597  -0.78099  -0.77731  -0.77058  -0.76913
 Alpha  occ. eigenvalues --   -0.76766  -0.76306  -0.75919  -0.75538  -0.75406
 Alpha  occ. eigenvalues --   -0.74191  -0.73097  -0.72101  -0.71985  -0.70604
 Alpha  occ. eigenvalues --   -0.69837  -0.68695  -0.68537  -0.68375  -0.67435
 Alpha  occ. eigenvalues --   -0.67418  -0.66611  -0.66409  -0.65246  -0.65232
 Alpha  occ. eigenvalues --   -0.64526  -0.64388  -0.64347  -0.64204  -0.64026
 Alpha  occ. eigenvalues --   -0.63417  -0.61518  -0.61397  -0.59830  -0.59762
 Alpha  occ. eigenvalues --   -0.59640  -0.59157  -0.59033  -0.58467  -0.58368
 Alpha  occ. eigenvalues --   -0.58059  -0.57954  -0.57481  -0.57202  -0.56784
 Alpha  occ. eigenvalues --   -0.55951  -0.55547  -0.55462  -0.55293  -0.55278
 Alpha  occ. eigenvalues --   -0.54922  -0.54647  -0.54510  -0.54320  -0.53596
 Alpha  occ. eigenvalues --   -0.53366  -0.53318  -0.53082  -0.52935  -0.52831
 Alpha  occ. eigenvalues --   -0.52796  -0.52636  -0.52414  -0.52372  -0.52359
 Alpha  occ. eigenvalues --   -0.51970  -0.51825  -0.51545  -0.51268  -0.51195
 Alpha  occ. eigenvalues --   -0.50848  -0.50476  -0.50322  -0.50266  -0.50025
 Alpha  occ. eigenvalues --   -0.49491  -0.49417  -0.49326  -0.49189  -0.49099
 Alpha  occ. eigenvalues --   -0.48817  -0.48811  -0.48726  -0.48671  -0.48454
 Alpha  occ. eigenvalues --   -0.48299  -0.48051  -0.47997  -0.47962  -0.47836
 Alpha  occ. eigenvalues --   -0.47653  -0.47385  -0.47251  -0.47195  -0.46864
 Alpha  occ. eigenvalues --   -0.46788  -0.46499  -0.46216  -0.46147  -0.45861
 Alpha  occ. eigenvalues --   -0.45780  -0.45690  -0.45536  -0.45507  -0.45317
 Alpha  occ. eigenvalues --   -0.44811  -0.44514  -0.44493  -0.44373  -0.44322
 Alpha  occ. eigenvalues --   -0.44155  -0.44116  -0.43865  -0.43681  -0.43618
 Alpha  occ. eigenvalues --   -0.43425  -0.43318  -0.43184  -0.43055  -0.42985
 Alpha  occ. eigenvalues --   -0.42940  -0.42764  -0.42630  -0.42583  -0.42359
 Alpha  occ. eigenvalues --   -0.42290  -0.42038  -0.41894  -0.41807  -0.41784
 Alpha  occ. eigenvalues --   -0.41670  -0.41537  -0.41271  -0.40993  -0.40863
 Alpha  occ. eigenvalues --   -0.40797  -0.40477  -0.40362  -0.40246  -0.40047
 Alpha  occ. eigenvalues --   -0.39783  -0.39362  -0.38986  -0.38497  -0.38270
 Alpha  occ. eigenvalues --   -0.38224  -0.37895  -0.37869  -0.37474  -0.37289
 Alpha  occ. eigenvalues --   -0.37184  -0.36718  -0.36484  -0.36026  -0.35734
 Alpha  occ. eigenvalues --   -0.35630  -0.35487  -0.34008  -0.33773  -0.33684
 Alpha  occ. eigenvalues --   -0.33561  -0.33078  -0.32200  -0.31261  -0.31215
 Alpha  occ. eigenvalues --   -0.30826  -0.30757  -0.30366  -0.30137  -0.29900
 Alpha  occ. eigenvalues --   -0.29691  -0.29353  -0.29295  -0.24138  -0.23382
 Alpha  occ. eigenvalues --   -0.21107  -0.20559
 Alpha virt. eigenvalues --   -0.08939  -0.08252  -0.01447  -0.01119   0.00539
 Alpha virt. eigenvalues --    0.00865   0.02211   0.02551   0.02573   0.03049
 Alpha virt. eigenvalues --    0.05037   0.05240   0.05591   0.05789   0.06355

 Mulliken charges:
               1
     1  Mg  12.002499
     2  C    5.975235
     3  C    6.005551
     4  C    6.029808
     5  C    6.011221
     6  N    6.982021
     7  C    6.028768
     8  C    5.997644
     9  C    6.005736
    10  C    5.981169
    11  C    6.004039
    12  C    5.995023
    13  C    6.001015
    14  H    0.997572
    15  N    7.008715
    16  C    5.967343
    17  C    5.982995
    18  C    5.989293
    19  C    5.963296
    20  C    6.004734
    21  C    5.989229
    22  O    7.975695
    23  C    6.005121
    24  N    7.014511
    25  C    5.962514
    26  C    6.014302
    27  C    5.993723
    28  C    6.013678
    29  C    6.000623
    30  C    5.993894
    31  C    5.994414
    32  N    6.995306
    33  C    6.030950
    34  C    6.033000
    35  C    6.001616
    36  C    6.027127
    37  C    5.998314
    38  C    6.013305
    39  O    8.021717
    40  C    6.002984
    41  C    6.000821
    42  O    8.007274
    43  O    7.999840
    44  C    5.999584
    45  H    0.985754
    46  H    0.995377
    47  H    1.016569
    48  H    0.997731
    49  H    0.997185
    50  H    0.985229
    51  H    1.000125
    52  H    0.995346
    53  H    1.009382
    54  H    0.996898
    55  H    0.996689
    56  H    1.003257
    57  H    0.986284
    58  H    0.981950
    59  H    0.982988
    60  H    0.987377
    61  H    0.990269
    62  H    0.996346
    63  H    0.997220
    64  H    1.000375
    65  H    0.999342
    66  H    0.989739
    67  H    1.000677
    68  H    1.005093
    69  H    0.997343
    70  H    1.002400
    71  H    1.011208
    72  H    1.002368
    73  H    1.008391
    74  H    1.025478
    75  H    1.010622
    76  H    1.003604
    77  H    0.998925
    78  H    1.000851
    79  H    1.003326
    80  Mg  11.998731
    81  C    6.016320
    82  C    5.995053
    83  C    5.983512
    84  C    6.002244
    85  N    7.008711
    86  C    5.976570
    87  C    6.004324
    88  C    5.991603
    89  C    6.019656
    90  C    5.997788
    91  C    6.004077
    92  C    5.999245
    93  H    0.999113
    94  N    6.994017
    95  C    6.027526
    96  C    6.012054
    97  C    6.012792
    98  C    6.022758
    99  C    5.997026
   100  C    6.009984
   101  O    8.020177
   102  C    5.993905
   103  N    6.995429
   104  C    6.023546
   105  C    5.994204
   106  C    6.008600
   107  C    5.981876
   108  C    5.997278
   109  C    6.003028
   110  C    6.000272
   111  N    7.003355
   112  C    5.969571
   113  C    5.974803
   114  C    5.992626
   115  C    5.973256
   116  C    6.003084
   117  C    5.985418
   118  O    7.985835
   119  C    6.000423
   120  C    5.998927
   121  O    7.997778
   122  O    7.998959
   123  C    5.999700
   124  H    1.010681
   125  H    1.003099
   126  H    0.993509
   127  H    1.002919
   128  H    1.005790
   129  H    1.000358
   130  H    1.001188
   131  H    1.009877
   132  H    0.993815
   133  H    0.999929
   134  H    0.999057
   135  H    1.002146
   136  H    1.012019
   137  H    1.013423
   138  H    1.012784
   139  H    1.005384
   140  H    1.005925
   141  H    1.011795
   142  H    1.000823
   143  H    0.999763
   144  H    1.007955
   145  H    1.002100
   146  H    0.998033
   147  H    0.996621
   148  H    0.994929
   149  H    0.998823
   150  H    0.998991
   151  H    1.001432
   152  H    0.993352
   153  H    0.996326
   154  H    0.976344
   155  H    0.992242
   156  H    1.001468
   157  H    0.996993
   158  H    1.000019
 Sum of Mulliken charges = 624.00000

 Dipole moment (field-independent basis, Debye):
    X=            -16.8367    Y=              0.3914    Z=             -3.1108  Tot=             17.1261
 Quadrupole moment (field-independent basis, Debye-Ang):
   XX=            -10.2231   YY=             -0.2159   ZZ=             -0.9902
   XY=             22.0492   XZ=             -6.2301   YZ=              2.3635

 Normal termination of Gaussian 16 at Wed Sep 22 12:10:49 2021.
