 Gaussian 16, Revision A.03,
 Gaussian 16:  ES64L-G16RevA.03 25-Dec-2016

 ----------------------------------------------------------
 #p cam-b3lyp/Def2SVP td=(nstates=5) density=(transition=1)
 ----------------------------------------------------------

 --------------------------------
 TDDFT excited states in gaussian
 --------------------------------
 Symbolic Z-matrix:
 Charge =  0 Multiplicity = 1

                         Standard orientation:
 ---------------------------------------------------------------------
 Center     Atomic      Atomic             Coordinates (Angstroms)
 Number     Number       Type             X           Y           Z
 ---------------------------------------------------------------------
      1         12           0       10.528371   -0.136542    0.595698
      2          6           0        9.116045    1.603072   -2.074251
      3          6           0        7.589301    0.257755    2.353816
      4          6           0       12.015503   -1.884856    2.940935
      5          6           0       13.070535   -1.372689   -1.704712
      6          7           0        8.541343    0.930646    0.138038
      7          6           0        8.171816    1.547815   -1.023933
      8          6           0        6.810712    2.135896   -0.904373
      9          6           0        6.306439    1.658769    0.515769
     10          6           0        7.551678    0.880384    1.094832
     11          6           0        5.695928    2.777945    1.396433
     12          6           0        5.854075    1.685161   -2.034911
     13          6           0        5.196243    2.892343   -2.701112
     14          1           0        3.641265    2.897182   -2.806119
     15          7           0        9.893172   -0.706401    2.423325
     16          6           0        8.664523   -0.423088    3.018035
     17          6           0        8.752925   -0.965221    4.367743
     18          6           0       10.072947   -1.578554    4.585663
     19          6           0       10.787853   -1.350537    3.290213
     20          6           0        7.616303   -1.030726    5.259730
     21          6           0       10.391173   -2.354578    5.795937
     22          8           0        9.635251   -2.496993    6.734143
     23          6           0       11.642736   -3.141588    5.972211
     24          7           0       12.204267   -1.422997    0.576509
     25          6           0       12.765432   -1.795604    1.771630
     26          6           0       14.029247   -2.593065    1.527808
     27          6           0       14.043186   -2.814343    0.061499
     28          6           0       13.030195   -1.893441   -0.408998
     29          6           0       15.345003   -1.976841    2.157786
     30          6           0       13.569813   -4.250428   -0.350792
     31          6           0       14.135166   -4.799164   -1.578416
     32          7           0       11.059113    0.067433   -1.475840
     33          6           0       12.125593   -0.421613   -2.241579
     34          6           0       12.166792    0.281416   -3.485334
     35          6           0       11.006686    1.046728   -3.498779
     36          6           0       10.323218    0.854579   -2.245342
     37          6           0       13.233291    0.104822   -4.502285
     38          6           0       10.222065    1.912532   -4.285766
     39          8           0       10.408057    2.330804   -5.406697
     40          6           0        9.027732    2.345122   -3.406311
     41          6           0        9.013647    3.813039   -3.303944
     42          8           0        9.647169    4.487125   -2.474330
     43          8           0        8.317776    4.341603   -4.366891
     44          6           0        8.072648    5.772568   -4.444489
     45          1           0        6.654273    0.474383    2.873572
     46          1           0       12.595149   -2.532436    3.603517
     47          1           0       13.866807   -1.748547   -2.350606
     48          1           0        6.993823    3.196537   -0.730001
     49          1           0        5.485804    0.943574    0.468741
     50          1           0        5.466939    3.550852    0.661759
     51          1           0        6.292211    3.112000    2.245588
     52          1           0        4.755403    2.436832    1.828360
     53          1           0        4.994841    1.111728   -1.687559
     54          1           0        6.459265    1.103289   -2.729852
     55          1           0        5.548104    2.740124   -3.721359
     56          1           0        5.628646    3.784684   -2.250909
     57          1           0        6.771364   -0.553100    4.763233
     58          1           0        7.708272   -0.474577    6.193132
     59          1           0        7.355934   -2.075045    5.435641
     60          1           0       12.364303   -2.389153    5.653910
     61          1           0       11.622426   -3.986600    5.283488
     62          1           0       11.788978   -3.424754    7.014804
     63          1           0       13.847026   -3.512752    2.082531
     64          1           0       14.934804   -2.517395   -0.490810
     65          1           0       15.097611   -1.157090    2.832512
     66          1           0       16.131429   -1.740090    1.440287
     67          1           0       15.820919   -2.634958    2.884227
     68          1           0       12.481544   -4.263933   -0.411947
     69          1           0       13.815122   -4.973453    0.426968
     70          1           0       15.076987   -5.293106   -1.337015
     71          1           0       14.260153   -4.040792   -2.352007
     72          1           0       13.551927   -5.664374   -1.895253
     73          1           0       14.210023   -0.011382   -4.032807
     74          1           0       13.265881    0.895775   -5.251744
     75          1           0       13.015936   -0.873528   -4.930978
     76          1           0        8.063785    2.168215   -3.883583
     77          1           0        8.900808    6.440369   -4.681973
     78          1           0        7.584809    6.107584   -3.529356
     79          1           0        7.412479    5.878020   -5.304594
     80         12           0      -10.538961   -0.825930    0.138505
     81          6           0       -9.140055    2.168137    1.279014
     82          6           0       -7.373621   -1.811542   -0.818534
     83          6           0      -11.912171   -3.418465   -1.606237
     84          6           0      -13.680315    0.572768    0.549022
     85          7           0       -8.548702    0.063381    0.325104
     86          6           0       -8.213110    1.166767    1.005716
     87          6           0       -6.708953    1.323069    1.273055
     88          6           0       -6.118080    0.129309    0.429128
     89          6           0       -7.446641   -0.704094   -0.013015
     90          6           0       -5.231152    0.490759   -0.781824
     91          6           0       -6.318251    1.300613    2.750950
     92          6           0       -5.014629    2.064088    3.047182
     93          1           0       -4.250112    2.722244    1.889925
     94          7           0       -9.776218   -2.458935   -0.952194
     95          6           0       -8.409521   -2.735584   -1.186662
     96          6           0       -8.316830   -3.984900   -1.915114
     97          6           0       -9.652237   -4.445859   -2.217642
     98          6           0      -10.517030   -3.464621   -1.564231
     99          6           0       -6.985760   -4.638337   -2.166405
    100          6           0      -10.149814   -5.788267   -2.919575
    101          8           0      -11.308002   -6.121856   -2.985989
    102          6           0       -9.077472   -6.657336   -3.539944
    103          7           0      -12.483807   -1.295320   -0.521430
    104          6           0      -12.826139   -2.433575   -1.190964
    105          6           0      -14.378955   -2.550138   -1.414279
    106          6           0      -14.880235   -1.317362   -0.663845
    107          6           0      -13.604254   -0.644598   -0.193873
    108          6           0      -14.993830   -2.754228   -2.857360
    109          6           0      -15.802585   -1.714175    0.512644
    110          6           0      -15.162194   -2.145743    1.850573
    111          7           0      -11.356979    0.938051    0.917641
    112          6           0      -12.651487    1.376320    1.024113
    113          6           0      -12.712385    2.666254    1.625521
    114          6           0      -11.303478    3.054900    1.752556
    115          6           0      -10.585815    2.016153    1.302171
    116          6           0      -13.846817    3.505487    2.017435
    117          6           0      -10.387326    4.141424    2.070540
    118          8           0      -10.610527    5.245487    2.578516
    119          6           0       -8.939846    3.638454    1.794084
    120          6           0       -8.248748    4.495528    0.836256
    121          8           0       -8.404605    4.491276   -0.380269
    122          8           0       -7.561424    5.468361    1.517797
    123          6           0       -7.128330    6.689436    0.811056
    124          1           0       -6.342727   -2.027837   -1.107226
    125          1           0      -12.363094   -4.332089   -1.999115
    126          1           0      -14.670547    0.976930    0.769184
    127          1           0       -6.304862    2.209699    0.785012
    128          1           0       -5.611486   -0.620361    1.035908
    129          1           0       -4.346942   -0.105949   -0.558447
    130          1           0       -4.994683    1.554533   -0.782496
    131          1           0       -5.731167    0.227474   -1.713980
    132          1           0       -6.234210    0.285439    3.136960
    133          1           0       -7.102777    1.759100    3.353551
    134          1           0       -4.423455    1.273729    3.510189
    135          1           0       -5.141512    2.788811    3.852677
    136          1           0       -6.240091   -3.895537   -1.882752
    137          1           0       -6.914514   -4.905046   -3.221082
    138          1           0       -6.847035   -5.558028   -1.596075
    139          1           0       -8.645899   -6.317832   -4.482091
    140          1           0       -9.483150   -7.664472   -3.635815
    141          1           0       -8.317852   -6.663095   -2.758329
    142          1           0      -14.589390   -3.476544   -0.880359
    143          1           0      -15.419763   -0.714079   -1.393062
    144          1           0      -15.818520   -2.084986   -3.099664
    145          1           0      -15.416834   -3.757218   -2.903961
    146          1           0      -14.174574   -2.701684   -3.575028
    147          1           0      -16.436035   -2.510219    0.123171
    148          1           0      -16.441381   -0.843852    0.665750
    149          1           0      -15.763764   -2.993424    2.177684
    150          1           0      -15.235945   -1.387058    2.629374
    151          1           0      -14.096103   -2.361673    1.789894
    152          1           0      -13.609392    3.949452    2.983564
    153          1           0      -14.809059    2.997442    2.082043
    154          1           0      -13.895621    4.385919    1.376431
    155          1           0       -8.469124    3.641872    2.777082
    156          1           0       -7.367104    6.656423   -0.252526
    157          1           0       -6.043752    6.755627    0.900576
    158          1           0       -7.690682    7.448886    1.353144
 ---------------------------------------------------------------------

 SCF Done:  E(RCAM-B3LYP) =  -4069.79559898     A.U. after   19 cycles

 Excitation energies and oscillator strengths:

 Excited State   1:      Singlet-A      1.6750 eV  740.20 nm  f=0.3628  <S**2>=0.000
     309 -> 315       -0.18829
     311 -> 313        0.68337
     309 <- 315       -0.11093
 This state for optimization and/or second-order correction.
 Total Energy, E(TD-HF/TD-DFT) =  -4069.73404333
 Copying the excited state density for this state as the 1-particle RhoCI density.

 Excited State   2:      Singlet-A      1.7177 eV  721.79 nm  f=0.4117  <S**2>=0.000
     310 -> 316       -0.18158
     312 -> 314        0.68396
     310 <- 316       -0.10681

 Excited State   3:      Singlet-A      2.1356 eV  580.56 nm  f=0.1660  <S**2>=0.000
     310 -> 314        0.65895
     312 -> 316        0.23562

 Excited State   4:      Singlet-A      2.1860 eV  567.19 nm  f=0.1003  <S**2>=0.000
     309 -> 313        0.63518
     311 -> 315        0.29751

 Excited State   5:      Singlet-A      2.8504 eV  434.97 nm  f=0.0000  <S**2>=0.000
     312 -> 313        0.70701

 The electronic state is 1-A.
 Alpha  occ. eigenvalues --  -46.89039 -46.88285 -19.24949 -19.23929 -19.19978
 Alpha  occ. eigenvalues --  -19.19447 -19.19039 -19.18747 -19.18446 -19.17476
 Alpha  occ. eigenvalues --  -14.42425 -14.42320 -14.42025 -14.41937 -14.40364
 Alpha  occ. eigenvalues --  -14.39471 -14.39264 -14.38205 -10.39174 -10.38735
 Alpha  occ. eigenvalues --  -10.36221 -10.35128 -10.34299 -10.33799 -10.31749
 Alpha  occ. eigenvalues --  -10.31721 -10.31673 -10.31663 -10.31226 -10.31159
 Alpha  occ. eigenvalues --  -10.31142 -10.30930 -10.30923 -10.30759 -10.30711
 Alpha  occ. eigenvalues --  -10.30568 -10.30361 -10.29962 -10.29910 -10.29189
 Alpha  occ. eigenvalues --  -10.29099 -10.28967 -10.28893 -10.28651 -10.28643
 Alpha  occ. eigenvalues --  -10.28616 -10.28487 -10.28426 -10.28315 -10.28304
 Alpha  occ. eigenvalues --  -10.28225 -10.28195 -10.28158 -10.28063 -10.27902
 Alpha  occ. eigenvalues --  -10.27845 -10.27728 -10.27614 -10.27614 -10.27454
 Alpha  occ. eigenvalues --  -10.27453 -10.27382 -10.27305 -10.27293 -10.27234
 Alpha  occ. eigenvalues --  -10.27172 -10.27073 -10.26991 -10.26945 -10.26873
 Alpha  occ. eigenvalues --  -10.26632 -10.26584 -10.26529 -10.26373 -10.26355
 Alpha  occ. eigenvalues --  -10.26306 -10.26010 -10.25958 -10.25935 -10.25832
 Alpha  occ. eigenvalues --  -10.25635 -10.25497 -10.25276 -10.24974 -10.24816
 Alpha  occ. eigenvalues --  -10.24799  -3.17528  -3.16810  -1.92431  -1.91992
 Alpha  occ. eigenvalues --   -1.91818  -1.91711  -1.91263  -1.91117  -1.15530
 Alpha  occ. eigenvalues --   -1.15144  -1.11616  -1.10145  -1.09938  -1.08908
 Alpha  occ. eigenvalues --   -1.06791  -1.06698  -1.05078  -1.04489  -1.03899
 Alpha  occ. eigenvalues --   -1.03375  -1.03087  -1.02492  -1.01668  -1.01062
 Alpha  occ. eigenvalues --   -0.92747  -0.92120  -0.90854  -0.89704  -0.89214
 Alpha  occ. eigenvalues --   -0.89143  -0.88878  -0.88183  -0.87806  -0.87335
 Alpha  occ. eigenvalues --   -0.87141  -0.86499  -0.86396  -0.86128  -0.85359
 Alpha  occ. eigenvalues --   -0.84634  -0.84256  -0.83555  -0.83484  -0.82668
 Alpha  occ. eigenvalues --   -0.82390  -0.82001  -0.81500  -0.81045  -0.80919
 Alpha  occ. eigenvalues --   -0.80218  -0.78756  -0.78168  -0.78071  -0.77224
 Alpha  occ. eigenvalues --   -0.77176  -0.76903  -0.76392  -0.75953  -0.75480
 Alpha  occ. eigenvalues --   -0.75058  -0.73504  -0.72474  -0.72128  -0.71139
 Alpha  occ. eigenvalues --   -0.69853  -0.69430  -0.69199  -0.68508  -0.68098
 Alpha  occ. eigenvalues --   -0.67746  -0.67617  -0.66556  -0.66126  -0.66033
 Alpha  occ. eigenvalues --   -0.65372  -0.64811  -0.64775  -0.64751  -0.64489
 Alpha  occ. eigenvalues --   -0.63773  -0.62117  -0.61450  -0.60829  -0.59812
 Alpha  occ. eigenvalues --   -0.59598  -0.59559  -0.59141  -0.59131  -0.59055
 Alpha  occ. eigenvalues --   -0.58363  -0.58009  -0.57709  -0.57502  -0.57459
 Alpha  occ. eigenvalues --   -0.56502  -0.55986  -0.55897  -0.55569  -0.55483
 Alpha  occ. eigenvalues --   -0.55239  -0.55219  -0.54701  -0.54526  -0.54338
 Alpha  occ. eigenvalues --   -0.53755  -0.53403  -0.53287  -0.52932  -0.52920
 Alpha  occ. eigenvalues --   -0.52730  -0.52636  -0.52385  -0.52365  -0.52193
 Alpha  occ. eigenvalues --   -0.52185  -0.52020  -0.51843  -0.51768  -0.51659
 Alpha  occ. eigenvalues --   -0.51376  -0.51319  -0.50845  -0.50683  -0.50515
 Alpha  occ. eigenvalues --   -0.50268  -0.50103  -0.49758  -0.49710  -0.49628
 Alpha  occ. eigenvalues --   -0.49479  -0.49413  -0.49218  -0.49095  -0.49053
 Alpha  occ. eigenvalues --   -0.48943  -0.48649  -0.48602  -0.48591  -0.48291
 Alpha  occ. eigenvalues --   -0.48162  -0.47707  -0.47669  -0.47233  -0.47161
 Alpha  occ. eigenvalues --   -0.47093  -0.46889  -0.46794  -0.46698  -0.46405
 Alpha  occ. eigenvalues --   -0.46307  -0.46303  -0.46174  -0.45865  -0.45830
 Alpha  occ. eigenvalues --   -0.45689  -0.45400  -0.45290  -0.45072  -0.45023
 Alpha  occ. eigenvalues --   -0.44685  -0.44674  -0.44572  -0.44321  -0.44138
 Alpha  occ. eigenvalues --   -0.44005  -0.43773  -0.43685  -0.43520  -0.43452
 Alpha  occ. eigenvalues --   -0.43328  -0.43230  -0.43157  -0.43107  -0.43061
 Alpha  occ. eigenvalues --   -0.42834  -0.42721  -0.42669  -0.42410  -0.42179
 Alpha  occ. eigenvalues --   -0.41972  -0.41755  -0.41663  -0.41558  -0.41427
 Alpha  occ. eigenvalues --   -0.41269  -0.41159  -0.40934  -0.40774  -0.40649
 Alpha  occ. eigenvalues --   -0.40350  -0.40286  -0.39959  -0.39302  -0.38594
 Alpha  occ. eigenvalues --   -0.38574  -0.38439  -0.37912  -0.37838  -0.37736
 Alpha  occ. eigenvalues --   -0.37432  -0.37072  -0.36672  -0.36481  -0.36403
 Alpha  occ. eigenvalues --   -0.36165  -0.35728  -0.34444  -0.34367  -0.33852
 Alpha  occ. eigenvalues --   -0.33797  -0.33317  -0.33120  -0.31638  -0.31478
 Alpha  occ. eigenvalues --   -0.30926  -0.30859  -0.30766  -0.29973  -0.29751
 Alpha  occ. eigenvalues --   -0.29645  -0.29537  -0.28695  -0.24404  -0.23556
 Alpha  occ. eigenvalues --   -0.21670  -0.21359
 Alpha virt. eigenvalues --   -0.09258  -0.08954  -0.02607  -0.01353   0.00155
 Alpha virt. eigenvalues --    0.00560   0.02256   0.02452   0.02571   0.02584
 Alpha virt. eigenvalues --    0.03978   0.04897   0.05053   0.05274   0.05361

 Mulliken charges:
               1
     1  Mg  12.001313
     2  C    6.018115
     3  C    5.979182
     4  C    5.975540
     5  C    6.023856
     6  N    7.004663
     7  C    5.965848
     8  C    6.014227
     9  C    5.991002
    10  C    6.029817
    11  C    5.996887
    12  C    6.001080
    13  C    6.001159
    14  H    0.991881
    15  N    6.985809
    16  C    6.050864
    17  C    6.020469
    18  C    6.012812
    19  C    6.044653
    20  C    5.987875
    21  C    6.006758
    22  O    8.018406
    23  C    5.998805
    24  N    7.007591
    25  C    6.034681
    26  C    5.992088
    27  C    6.007753
    28  C    5.960961
    29  C    5.998819
    30  C    6.008241
    31  C    6.000842
    32  N    7.005918
    33  C    5.951288
    34  C    5.976019
    35  C    5.994911
    36  C    5.963637
    37  C    6.002000
    38  C    5.982637
    39  O    7.967191
    40  C    6.002640
    41  C    5.995064
    42  O    7.991952
    43  O    8.000444
    44  C    6.003747
    45  H    1.009817
    46  H    1.011103
    47  H    0.991059
    48  H    0.995932
    49  H    1.000930
    50  H    1.012380
    51  H    0.997255
    52  H    0.999920
    53  H    0.991869
    54  H    1.007383
    55  H    1.004223
    56  H    0.999348
    57  H    1.020815
    58  H    1.023217
    59  H    1.021248
    60  H    1.005884
    61  H    1.010707
    62  H    1.012490
    63  H    0.999642
    64  H    1.002206
    65  H    0.997444
    66  H    1.013018
    67  H    1.002103
    68  H    0.994316
    69  H    0.985138
    70  H    0.994528
    71  H    1.006214
    72  H    0.996187
    73  H    0.980379
    74  H    0.985613
    75  H    0.980942
    76  H    0.990561
    77  H    0.997058
    78  H    0.993645
    79  H    0.995982
    80  Mg  11.999865
    81  C    6.000242
    82  C    5.999667
    83  C    5.999974
    84  C    6.000280
    85  N    7.000031
    86  C    5.999535
    87  C    6.000184
    88  C    5.999875
    89  C    6.000298
    90  C    6.000143
    91  C    6.000105
    92  C    6.000145
    93  H    1.000329
    94  N    6.999973
    95  C    6.000393
    96  C    6.000188
    97  C    6.000373
    98  C    6.000237
    99  C    5.999933
   100  C    6.000146
   101  O    8.000331
   102  C    5.999968
   103  N    7.000045
   104  C    6.000350
   105  C    5.999895
   106  C    6.000095
   107  C    5.999660
   108  C    5.999987
   109  C    5.999988
   110  C    6.000051
   111  N    6.999975
   112  C    5.999670
   113  C    5.999717
   114  C    5.999950
   115  C    5.999721
   116  C    6.000084
   117  C    5.999856
   118  O    7.999735
   119  C    5.999944
   120  C    5.999921
   121  O    8.000212
   122  O    7.999812
   123  C    5.999937
   124  H    1.000035
   125  H    1.000200
   126  H    1.000034
   127  H    1.000163
   128  H    0.999354
   129  H    0.999605
   130  H    1.000321
   131  H    1.000488
   132  H    0.999517
   133  H    1.000104
   134  H    0.998958
   135  H    0.999771
   136  H    1.000108
   137  H    1.000572
   138  H    0.999919
   139  H    1.000434
   140  H    1.000207
   141  H    0.999835
   142  H    0.999958
   143  H    1.000137
   144  H    1.000241
   145  H    1.000065
   146  H    1.000114
   147  H    0.999996
   148  H    1.000109
   149  H    0.999934
   150  H    0.999995
   151  H    0.999818
   152  H    0.999717
   153  H    0.999821
   154  H    0.999937
   155  H    0.999551
   156  H    1.000320
   157  H    0.999865
   158  H    0.999979
 Sum of Mulliken charges = 624.00000

 Dipole moment (field-independent basis, Debye):
    X=             -2.4259    Y=             -2.4074    Z=             10.1272  Tot=             10.6883
 Quadrupole moment (field-independent basis, Debye-Ang):
   XX=            -49.1799   YY=             -2.7981   ZZ=              9.1686
   XY=            -20.3654   XZ=            106.4433   YZ=             -3.1840

 Normal termination of Gaussian 16 at Wed Sep 22 15:30:43 2021.
