 Gaussian 16, Revision A.03,
 Gaussian 16:  ES64L-G16RevA.03 25-Dec-2016

 -----------------------------------------------------------
 #p cam-b3lyp/Def2SVP td=(nstates=5, root=1) density=current
 -----------------------------------------------------------

 --------------------------------
 TDDFT excited states in gaussian
 --------------------------------
 Symbolic Z-matrix:
 Charge =  0 Multiplicity = 1

                         Standard orientation:
 ---------------------------------------------------------------------
 Center     Atomic      Atomic             Coordinates (Angstroms)
 Number     Number       Type             X           Y           Z
 ---------------------------------------------------------------------
      1         12           0       -0.698684    0.104617    0.126591
      2          6           0        2.722280    0.309396    0.284228
      3          6           0       -0.427539   -3.312761    0.052844
      4          6           0       -4.148732   -0.119959   -0.147061
      5          6           0       -0.890924    3.546606   -0.242352
      6          7           0        0.977712   -1.386847    0.112517
      7          6           0        2.281602   -1.015176    0.277317
      8          6           0        3.149566   -2.176584    0.351772
      9          6           0        2.252036   -3.372497    0.075635
     10          6           0        0.817194   -2.685825    0.037185
     11          6           0        2.530607   -4.247384   -1.195156
     12          6           0        3.900527   -2.252016    1.724688
     13          6           0        5.341676   -2.869253    1.715799
     14          1           0        5.652721   -3.916259    0.628295
     15          7           0       -2.082430   -1.527224    0.090337
     16          6           0       -1.737616   -2.867935    0.086265
     17          6           0       -2.971521   -3.677879    0.031941
     18          6           0       -4.092085   -2.741260   -0.021692
     19          6           0       -3.479019   -1.401723   -0.003980
     20          6           0       -3.007881   -5.196979   -0.004546
     21          6           0       -5.566873   -3.064711    0.034790
     22          8           0       -6.388907   -2.131914    0.059072
     23          6           0       -6.132554   -4.435488    0.029028
     24          7           0       -2.301452    1.496159   -0.232932
     25          6           0       -3.591745    1.149411   -0.240878
     26          6           0       -4.491093    2.395840   -0.288960
     27          6           0       -3.471969    3.641456   -0.064113
     28          6           0       -2.128881    2.830662   -0.102811
     29          6           0       -5.312509    2.453386   -1.613699
     30          6           0       -3.622832    4.393454    1.286646
     31          6           0       -4.153975    5.831639    1.192322
     32          7           0        0.623417    1.663423   -0.036040
     33          6           0        0.411930    3.034314   -0.200233
     34          6           0        1.706869    3.749977   -0.226698
     35          6           0        2.613949    2.677907   -0.054378
     36          6           0        1.913630    1.446001    0.045637
     37          6           0        1.949047    5.174773   -0.330687
     38          6           0        4.042661    2.369117    0.161444
     39          8           0        5.007806    3.079522    0.259229
     40          6           0        4.158381    0.813923    0.344900
     41          6           0        5.142000    0.303503   -0.623467
     42          8           0        4.866889    0.262552   -1.833494
     43          8           0        6.268249   -0.226074   -0.071853
     44          6           0        7.204681   -0.937297   -0.936383
     45          1           0       -0.306630   -4.397854    0.032289
     46          1           0       -5.230096   -0.212289   -0.269812
     47          1           0       -1.007850    4.632176   -0.231488
     48          1           0        3.888406   -2.092558   -0.445941
     49          1           0        2.159179   -4.010463    0.955314
     50          1           0        3.364647   -4.039168   -1.866110
     51          1           0        1.627411   -4.246453   -1.804858
     52          1           0        2.624819   -5.311551   -0.977479
     53          1           0        3.265170   -2.742310    2.462372
     54          1           0        3.890436   -1.263662    2.183820
     55          1           0        5.559228   -3.322041    2.683555
     56          1           0        6.115655   -2.136470    1.489501
     57          1           0       -2.031363   -5.656163    0.145377
     58          1           0       -3.347439   -5.558083   -0.975729
     59          1           0       -3.542468   -5.578624    0.865135
     60          1           0       -7.207392   -4.323148    0.167930
     61          1           0       -5.718367   -5.081373    0.804331
     62          1           0       -5.846857   -4.941613   -0.893256
     63          1           0       -5.106881    2.373902    0.610258
     64          1           0       -3.479626    4.343070   -0.898174
     65          1           0       -6.375861    2.635966   -1.458053
     66          1           0       -5.234347    1.512801   -2.159626
     67          1           0       -4.816316    3.230218   -2.195927
     68          1           0       -2.691899    4.460799    1.848369
     69          1           0       -4.287996    3.867617    1.971945
     70          1           0       -4.784341    5.927931    0.308241
     71          1           0       -3.299232    6.497465    1.077438
     72          1           0       -4.620449    6.053460    2.151281
     73          1           0        2.943163    5.460425    0.012456
     74          1           0        1.222792    5.776597    0.215277
     75          1           0        2.027872    5.418132   -1.390345
     76          1           0        4.496172    0.754973    1.380118
     77          1           0        7.701226   -0.306811   -1.674473
     78          1           0        6.733831   -1.810883   -1.387114
     79          1           0        8.028551   -1.324239   -0.336906
 ---------------------------------------------------------------------

 SCF Done:  E(RCAM-B3LYP) =  -2034.94413259     A.U. after   19 cycles

 Excitation energies and oscillator strengths:

 Excited State   1:      Singlet-A      1.7299 eV  716.71 nm  f=0.3894  <S**2>=0.000
     155 ->158         0.18868
     156 ->157         0.68239
     155 <-158         0.10887
 This state for optimization and/or second-order correction.
 Total Energy, E(TD-HF/TD-DFT) =  -2034.88056008
 Copying the excited state density for this state as the 1-particle RhoCI density.

 Excited State   2:      Singlet-A      2.2550 eV  549.82 nm  f=0.0852  <S**2>=0.000
     155 ->157         0.62547
     156 ->158        -0.31649

 Excited State   3:      Singlet-A      3.4111 eV  363.47 nm  f=0.1637  <S**2>=0.000
     154 ->157         0.55352
     155 ->157         0.15563
     156 ->158         0.39314

 Excited State   4:      Singlet-A      3.5360 eV  350.64 nm  f=0.4261  <S**2>=0.000
     152 ->157         0.10806
     153 ->157         0.28770
     154 ->157        -0.38981
     155 ->157         0.22587
     156 ->158         0.42765

 Excited State   5:      Singlet-A      3.6451 eV  340.14 nm  f=0.0245  <S**2>=0.000
     150 ->157         0.34338
     150 ->158         0.11120
     150 ->159         0.19564
     150 ->160        -0.14904
     151 ->157         0.26145
     151 ->158         0.11677
     151 ->159         0.24968
     151 ->160        -0.10268
     152 ->157         0.28496
     152 ->160        -0.10633
     153 ->157         0.12231

 The electronic state is 1-A.
 Alpha  occ. eigenvalues --  -46.88890 -19.25976 -19.19304 -19.19048 -19.18370
 Alpha  occ. eigenvalues --  -14.41833 -14.41726 -14.39495 -14.39249 -10.39563
 Alpha  occ. eigenvalues --  -10.34966 -10.34855 -10.32321 -10.30918 -10.30652
 Alpha  occ. eigenvalues --  -10.30614 -10.30419 -10.30110 -10.30021 -10.29924
 Alpha  occ. eigenvalues --  -10.29309 -10.29157 -10.28698 -10.28399 -10.28285
 Alpha  occ. eigenvalues --  -10.28006 -10.27905 -10.27771 -10.27530 -10.27462
 Alpha  occ. eigenvalues --  -10.27394 -10.27383 -10.27222 -10.26992 -10.26488
 Alpha  occ. eigenvalues --  -10.26108 -10.26072 -10.26070 -10.26020 -10.26014
 Alpha  occ. eigenvalues --  -10.25514 -10.25359 -10.25256  -3.17313  -1.92234
 Alpha  occ. eigenvalues --   -1.91752  -1.91620  -1.16441  -1.10951  -1.08924
 Alpha  occ. eigenvalues --   -1.07129  -1.05124  -1.04055  -1.03379  -1.00961
 Alpha  occ. eigenvalues --   -0.92491  -0.89131  -0.88284  -0.87712  -0.87197
 Alpha  occ. eigenvalues --   -0.86737  -0.86262  -0.83949  -0.83569  -0.82329
 Alpha  occ. eigenvalues --   -0.81877  -0.81219  -0.80554  -0.78440  -0.77559
 Alpha  occ. eigenvalues --   -0.77312  -0.76240  -0.74894  -0.72600  -0.71511
 Alpha  occ. eigenvalues --   -0.69243  -0.68359  -0.68032  -0.66923  -0.65840
 Alpha  occ. eigenvalues --   -0.65449  -0.65031  -0.64331  -0.62728  -0.59853
 Alpha  occ. eigenvalues --   -0.59591  -0.59223  -0.58754  -0.58226  -0.57291
 Alpha  occ. eigenvalues --   -0.56054  -0.55969  -0.55345  -0.54724  -0.53977
 Alpha  occ. eigenvalues --   -0.53450  -0.52925  -0.52787  -0.52417  -0.52218
 Alpha  occ. eigenvalues --   -0.51664  -0.51507  -0.51282  -0.51170  -0.50210
 Alpha  occ. eigenvalues --   -0.49963  -0.49845  -0.49371  -0.48994  -0.48540
 Alpha  occ. eigenvalues --   -0.48476  -0.48114  -0.47952  -0.47473  -0.47200
 Alpha  occ. eigenvalues --   -0.47107  -0.46699  -0.46289  -0.45870  -0.45707
 Alpha  occ. eigenvalues --   -0.45514  -0.45202  -0.44921  -0.44531  -0.44328
 Alpha  occ. eigenvalues --   -0.43805  -0.43601  -0.43491  -0.43165  -0.43012
 Alpha  occ. eigenvalues --   -0.42621  -0.42145  -0.41844  -0.41489  -0.41155
 Alpha  occ. eigenvalues --   -0.40912  -0.40688  -0.40337  -0.39993  -0.39539
 Alpha  occ. eigenvalues --   -0.38188  -0.37477  -0.37221  -0.36715  -0.36625
 Alpha  occ. eigenvalues --   -0.36025  -0.34041  -0.33972  -0.33116  -0.31135
 Alpha  occ. eigenvalues --   -0.30896  -0.30697  -0.30066  -0.29507  -0.23884
 Alpha  occ. eigenvalues --   -0.20805
 Alpha virt. eigenvalues --   -0.08292  -0.01723   0.00543   0.02543   0.03089
 Alpha virt. eigenvalues --    0.04465   0.05234   0.06002   0.06792   0.08228
 Alpha virt. eigenvalues --    0.08864   0.09206   0.09487   0.10219   0.10742

 Mulliken charges:
               1
     1  Mg   0.805013
     2  C   -0.029028
     3  C   -0.075682
     4  C   -0.057603
     5  C   -0.079121
     6  N   -0.255227
     7  C   -0.036072
     8  C   -0.012600
     9  C    0.008498
    10  C   -0.030453
    11  C    0.066023
    12  C    0.061564
    13  C   -0.064728
    14  H    0.002191
    15  N   -0.384317
    16  C    0.183354
    17  C   -0.152956
    18  C   -0.019462
    19  C    0.102581
    20  C    0.107842
    21  C   -0.010086
    22  O   -0.237350
    23  C    0.075344
    24  N   -0.270484
    25  C    0.059847
    26  C   -0.045716
    27  C   -0.051917
    28  C    0.032113
    29  C    0.079283
    30  C    0.026253
    31  C    0.002694
    32  N   -0.358454
    33  C    0.127080
    34  C   -0.150350
    35  C   -0.005419
    36  C    0.110650
    37  C    0.121992
    38  C    0.008221
    39  O   -0.150361
    40  C    0.027353
    41  C    0.217107
    42  O   -0.249927
    43  O   -0.321752
    44  C    0.184665
    45  H   -0.050352
    46  H   -0.000451
    47  H   -0.028495
    48  H    0.027440
    49  H    0.010953
    50  H    0.028403
    51  H    0.011920
    52  H    0.006331
    53  H   -0.005241
    54  H    0.004263
    55  H    0.032112
    56  H    0.047940
    57  H    0.000064
    58  H    0.039805
    59  H    0.028748
    60  H    0.035805
    61  H    0.018991
    62  H    0.029535
    63  H    0.018267
    64  H    0.018787
    65  H    0.027473
    66  H    0.027784
    67  H    0.008487
    68  H    0.009565
    69  H    0.003945
    70  H    0.020425
    71  H    0.012199
    72  H    0.020020
    73  H    0.025623
    74  H    0.025132
    75  H    0.033164
    76  H    0.036265
    77  H    0.048386
    78  H    0.034298
    79  H    0.031807
 Sum of Mulliken charges =  -0.00000

 Dipole moment (field-independent basis, Debye):
    X=             -0.1879    Y=             -2.8333    Z=              1.8533  Tot=              3.3908
 Quadrupole moment (field-independent basis, Debye-Ang):
   XX=           -272.4694   YY=           -226.2015   ZZ=           -257.8648
   XY=            -26.7705   XZ=              3.5310   YZ=              1.1526

 Normal termination of Gaussian 16 at Tue Oct 12 15:36:37 2021.
