 Gaussian 16, Revision A.03,
 Gaussian 16:  ES64L-G16RevA.03 25-Dec-2016

 ----------------------------------------------------------
 #p cam-b3lyp/Def2SVP td=(nstates=5) density=(transition=1)
 ----------------------------------------------------------

 --------------------------------
 TDDFT excited states in gaussian
 --------------------------------
 Symbolic Z-matrix:
 Charge =  0 Multiplicity = 1

                         Standard orientation:
 ---------------------------------------------------------------------
 Center     Atomic      Atomic             Coordinates (Angstroms)
 Number     Number       Type             X           Y           Z
 ---------------------------------------------------------------------
      1         12           0       -9.792078   -0.850882    0.493227
      2          6           0       -9.898916    2.533349   -0.377234
      3          6           0       -7.878027    0.026598    3.226937
      4          6           0       -9.064579   -4.147472    0.997510
      5          6           0      -11.137453   -1.613095   -2.605479
      6          7           0       -9.099982    1.054824    1.315488
      7          6           0       -9.445049    2.285107    0.914680
      8          6           0       -9.110495    3.402690    1.913415
      9          6           0       -8.284554    2.611698    2.999030
     10          6           0       -8.488754    1.056359    2.558179
     11          6           0       -6.793126    2.977924    3.157819
     12          6           0      -10.325338    4.146747    2.468270
     13          6           0      -10.006287    5.585501    2.913546
     14          1           0       -8.567822    6.107888    2.791780
     15          7           0       -8.737646   -1.937949    1.957660
     16          6           0       -8.054354   -1.389727    3.067586
     17          6           0       -7.527028   -2.481330    3.861535
     18          6           0       -7.809537   -3.726101    3.184740
     19          6           0       -8.592100   -3.319948    2.018432
     20          6           0       -6.894511   -2.229033    5.202483
     21          6           0       -7.538609   -5.232354    3.632120
     22          8           0       -7.954199   -6.195400    3.034692
     23          6           0       -6.693607   -5.421128    4.873246
     24          7           0       -9.973768   -2.597554   -0.670556
     25          6           0       -9.646275   -3.852836   -0.248530
     26          6           0      -10.033701   -4.956016   -1.300950
     27          6           0      -10.735098   -4.116038   -2.367088
     28          6           0      -10.598543   -2.697132   -1.847787
     29          6           0       -8.965838   -5.984972   -1.851522
     30          6           0      -12.213004   -4.541122   -2.532650
     31          6           0      -13.264291   -3.986700   -1.545829
     32          7           0      -10.562595    0.185665   -1.155926
     33          6           0      -11.078883   -0.249007   -2.349105
     34          6           0      -11.472082    0.845814   -3.171353
     35          6           0      -11.011389    2.021488   -2.424523
     36          6           0      -10.477858    1.557087   -1.285857
     37          6           0      -12.134606    0.894819   -4.476537
     38          6           0      -10.810599    3.463218   -2.470136
     39          8           0      -11.204386    4.294201   -3.295491
     40          6           0      -10.090633    3.884329   -1.155252
     41          6           0       -8.834486    4.574516   -1.429772
     42          8           0       -7.776206    4.046305   -1.754238
     43          8           0       -9.068293    5.925305   -1.493149
     44          6           0       -8.087134    6.807300   -2.154580
     45          1           0       -7.261038    0.395097    4.049375
     46          1           0       -8.999723   -5.210613    1.238174
     47          1           0      -11.650025   -1.847400   -3.540759
     48          1           0       -8.387889    4.106321    1.500701
     49          1           0       -8.759069    2.599583    3.979598
     50          1           0       -6.754108    3.167868    4.230285
     51          1           0       -6.555159    3.878702    2.592573
     52          1           0       -6.159981    2.157316    2.820212
     53          1           0      -10.791292    3.611265    3.294580
     54          1           0      -11.105016    4.211212    1.708820
     55          1           0      -10.323175    5.544760    3.955875
     56          1           0      -10.690808    6.310003    2.470066
     57          1           0       -6.773796   -1.147608    5.267133
     58          1           0       -5.937470   -2.749247    5.247261
     59          1           0       -7.495943   -2.598104    6.034601
     60          1           0       -5.620927   -5.251329    4.774833
     61          1           0       -6.897756   -6.418296    5.263205
     62          1           0       -7.130109   -4.688121    5.551586
     63          1           0      -10.732177   -5.554370   -0.716412
     64          1           0      -10.181001   -4.271502   -3.292077
     65          1           0       -8.955202   -6.093880   -2.935375
     66          1           0       -9.221058   -6.972242   -1.467788
     67          1           0       -7.995770   -5.705133   -1.439644
     68          1           0      -12.202445   -5.629929   -2.500664
     69          1           0      -12.468087   -4.254145   -3.553210
     70          1           0      -13.906949   -4.839250   -1.327653
     71          1           0      -13.899822   -3.215258   -1.980053
     72          1           0      -12.843497   -3.515879   -0.658068
     73          1           0      -12.870930    1.697007   -4.441863
     74          1           0      -12.622320   -0.027345   -4.792675
     75          1           0      -11.440465    1.265399   -5.231035
     76          1           0      -10.817869    4.520087   -0.650458
     77          1           0       -7.204049    6.262502   -2.490239
     78          1           0       -7.757671    7.543453   -1.420933
     79          1           0       -8.686516    7.199357   -2.975490
     80         12           0        9.747215   -0.616986   -0.289943
     81          6           0        7.958773    2.501041    0.008723
     82          6           0       12.643907    1.174114    0.545800
     83          6           0       11.374266   -3.464851   -0.439143
     84          6           0        6.807267   -2.143963   -1.406264
     85          7           0       10.197513    1.649376    0.197640
     86          6           0        9.310363    2.644321    0.462780
     87          6           0        9.971696    3.829277    1.147590
     88          6           0       11.566309    3.529853    0.996973
     89          6           0       11.481425    2.047478    0.531466
     90          6           0       12.330729    4.506134    0.068140
     91          6           0        9.507747    4.005677    2.632923
     92          6           0        8.901176    5.398833    2.942535
     93          1           0        9.768488    6.269225    4.022667
     94          7           0       11.672837   -1.066325    0.008924
     95          6           0       12.790414   -0.221065    0.323110
     96          6           0       14.067184   -0.960626    0.462496
     97          6           0       13.644555   -2.309689    0.225997
     98          6           0       12.203083   -2.316920   -0.074821
     99          6           0       15.424273   -0.321310    0.763428
    100          6           0       14.472494   -3.536479    0.164906
    101          8           0       14.048225   -4.686701    0.192138
    102          6           0       16.004680   -3.374513    0.208323
    103          7           0        9.125233   -2.516487   -0.670829
    104          6           0        9.999120   -3.548304   -0.705549
    105          6           0        9.409719   -4.797246   -1.299752
    106          6           0        7.931841   -4.428847   -1.579337
    107          6           0        7.901270   -2.945473   -1.147197
    108          6           0       10.178514   -5.364409   -2.474662
    109          6           0        6.925031   -5.333393   -0.652409
    110          6           0        5.765175   -6.140456   -1.453441
    111          7           0        7.828592    0.069935   -0.896738
    112          6           0        6.714513   -0.726270   -1.256085
    113          6           0        5.551570    0.161108   -1.371263
    114          6           0        5.993696    1.361487   -0.755391
    115          6           0        7.379655    1.293481   -0.605498
    116          6           0        4.160396   -0.115157   -1.933533
    117          6           0        5.551299    2.764108   -0.515163
    118          8           0        4.487939    3.416975   -0.706147
    119          6           0        6.809103    3.485289    0.106703
    120          6           0        7.066040    4.743979   -0.668231
    121          8           0        7.039618    4.818441   -1.864119
    122          8           0        7.211471    5.792080    0.197667
    123          6           0        7.128057    7.108399   -0.484168
    124          1           0       13.530623    1.797763    0.675566
    125          1           0       11.857767   -4.441767   -0.509212
    126          1           0        5.868513   -2.607075   -1.716499
    127          1           0        9.735935    4.699109    0.534423
    128          1           0       12.079055    3.504464    1.958881
    129          1           0       12.705630    3.988462   -0.815278
    130          1           0       13.158502    4.972438    0.604001
    131          1           0       11.774812    5.384509   -0.259841
    132          1           0       10.333386    3.871395    3.332254
    133          1           0        8.736240    3.283523    2.901403
    134          1           0        7.959455    5.343718    3.489257
    135          1           0        8.658037    6.004104    2.069813
    136          1           0       15.416591    0.686808    1.179046
    137          1           0       16.136459   -0.321517   -0.061672
    138          1           0       15.868398   -0.960291    1.527348
    139          1           0       16.350131   -2.801000   -0.651777
    140          1           0       16.521368   -4.332410    0.276937
    141          1           0       16.254821   -2.823721    1.115038
    142          1           0        9.500621   -5.594330   -0.560614
    143          1           0        7.699532   -4.503413   -2.641273
    144          1           0       10.720076   -6.280787   -2.238408
    145          1           0       10.975284   -4.726664   -2.857295
    146          1           0        9.471828   -5.527522   -3.288613
    147          1           0        6.402609   -4.766220    0.117285
    148          1           0        7.453892   -6.104414   -0.092732
    149          1           0        6.122252   -6.216365   -2.480681
    150          1           0        4.804704   -5.625721   -1.405056
    151          1           0        5.707434   -7.179033   -1.128719
    152          1           0        3.389104    0.465005   -1.427330
    153          1           0        3.905051   -1.143152   -1.673760
    154          1           0        4.300112   -0.017249   -3.010195
    155          1           0        6.497924    3.810310    1.099168
    156          1           0        7.858891    7.101231   -1.292601
    157          1           0        7.500384    7.804717    0.267081
    158          1           0        6.185171    7.415250   -0.936754
 ---------------------------------------------------------------------

 SCF Done:  E(RCAM-B3LYP) =  -4069.81628777     A.U. after   19 cycles

 Excitation energies and oscillator strengths:

 Excited State   1:      Singlet-A      1.6716 eV  741.69 nm  f=0.3979  <S**2>=0.000
     309 -> 315        0.18789
     311 -> 313        0.68378
     309 <- 315        0.11178
 This state for optimization and/or second-order correction.
 Total Energy, E(TD-HF/TD-DFT) =  -4069.75485632
 Copying the excited state density for this state as the 1-particle RhoCI density.

 Excited State   2:      Singlet-A      1.7177 eV  721.80 nm  f=0.3898  <S**2>=0.000
     310 -> 316       -0.18129
     312 -> 314        0.68346
     310 <- 316       -0.10660

 Excited State   3:      Singlet-A      2.1347 eV  580.80 nm  f=0.1427  <S**2>=0.000
     310 -> 314        0.65887
     312 -> 316        0.23511

 Excited State   4:      Singlet-A      2.1742 eV  570.26 nm  f=0.1414  <S**2>=0.000
     309 -> 313        0.64666
     311 -> 315       -0.27764

 Excited State   5:      Singlet-A      2.8552 eV  434.24 nm  f=0.0000  <S**2>=0.000
     312 -> 313        0.70696

 The electronic state is 1-A.
 Alpha  occ. eigenvalues --  -46.88494 -46.88114 -19.25611 -19.23690 -19.19841
 Alpha  occ. eigenvalues --  -19.19704 -19.18921 -19.18802 -19.18637 -19.18567
 Alpha  occ. eigenvalues --  -14.42571 -14.42153 -14.41900 -14.41760 -14.40680
 Alpha  occ. eigenvalues --  -14.39303 -14.39210 -14.38034 -10.38779 -10.38503
 Alpha  occ. eigenvalues --  -10.36085 -10.35095 -10.35092 -10.34945 -10.31892
 Alpha  occ. eigenvalues --  -10.31790 -10.31538 -10.31448 -10.31256 -10.30967
 Alpha  occ. eigenvalues --  -10.30827 -10.30763 -10.30763 -10.30738 -10.30629
 Alpha  occ. eigenvalues --  -10.30573 -10.30552 -10.30186 -10.29941 -10.29747
 Alpha  occ. eigenvalues --  -10.29063 -10.29011 -10.28957 -10.28896 -10.28728
 Alpha  occ. eigenvalues --  -10.28727 -10.28602 -10.28502 -10.28453 -10.28412
 Alpha  occ. eigenvalues --  -10.28202 -10.28140 -10.28045 -10.28025 -10.27962
 Alpha  occ. eigenvalues --  -10.27917 -10.27792 -10.27621 -10.27511 -10.27453
 Alpha  occ. eigenvalues --  -10.27438 -10.27316 -10.27312 -10.27201 -10.27107
 Alpha  occ. eigenvalues --  -10.26991 -10.26860 -10.26829 -10.26806 -10.26718
 Alpha  occ. eigenvalues --  -10.26567 -10.26466 -10.26248 -10.26231 -10.26089
 Alpha  occ. eigenvalues --  -10.26030 -10.26029 -10.25887 -10.25867 -10.25794
 Alpha  occ. eigenvalues --  -10.25677 -10.25663 -10.25453 -10.25376 -10.25145
 Alpha  occ. eigenvalues --  -10.24628  -3.17138  -3.16640  -1.92035  -1.91592
 Alpha  occ. eigenvalues --   -1.91540  -1.91459  -1.91092  -1.90946  -1.16924
 Alpha  occ. eigenvalues --   -1.14906  -1.11481  -1.09937  -1.08727  -1.08646
 Alpha  occ. eigenvalues --   -1.07016  -1.06460  -1.04327  -1.03962  -1.03231
 Alpha  occ. eigenvalues --   -1.03194  -1.02545  -1.02315  -1.01978  -1.00894
 Alpha  occ. eigenvalues --   -0.91936  -0.91537  -0.89074  -0.88660  -0.88606
 Alpha  occ. eigenvalues --   -0.88459  -0.88102  -0.88011  -0.87376  -0.86965
 Alpha  occ. eigenvalues --   -0.86959  -0.86339  -0.85962  -0.85585  -0.84059
 Alpha  occ. eigenvalues --   -0.83991  -0.83308  -0.83132  -0.82210  -0.81863
 Alpha  occ. eigenvalues --   -0.81780  -0.81363  -0.80865  -0.80637  -0.80034
 Alpha  occ. eigenvalues --   -0.79726  -0.79060  -0.78006  -0.77057  -0.77023
 Alpha  occ. eigenvalues --   -0.76746  -0.76691  -0.76002  -0.75749  -0.75188
 Alpha  occ. eigenvalues --   -0.74888  -0.72513  -0.72305  -0.71383  -0.70964
 Alpha  occ. eigenvalues --   -0.69710  -0.69141  -0.68707  -0.68308  -0.67570
 Alpha  occ. eigenvalues --   -0.67550  -0.67055  -0.65955  -0.65882  -0.65603
 Alpha  occ. eigenvalues --   -0.64647  -0.64565  -0.64349  -0.64312  -0.63959
 Alpha  occ. eigenvalues --   -0.63587  -0.62330  -0.61244  -0.60766  -0.59652
 Alpha  occ. eigenvalues --   -0.59224  -0.58959  -0.58936  -0.58700  -0.58312
 Alpha  occ. eigenvalues --   -0.58174  -0.57918  -0.57547  -0.57272  -0.57099
 Alpha  occ. eigenvalues --   -0.56101  -0.55736  -0.55301  -0.55240  -0.55030
 Alpha  occ. eigenvalues --   -0.55026  -0.54544  -0.54459  -0.53743  -0.53553
 Alpha  occ. eigenvalues --   -0.53361  -0.53224  -0.52722  -0.52636  -0.52541
 Alpha  occ. eigenvalues --   -0.52519  -0.52212  -0.52121  -0.51994  -0.51861
 Alpha  occ. eigenvalues --   -0.51621  -0.51472  -0.51409  -0.51330  -0.50820
 Alpha  occ. eigenvalues --   -0.50675  -0.50498  -0.50422  -0.50103  -0.50019
 Alpha  occ. eigenvalues --   -0.49932  -0.49763  -0.49556  -0.49464  -0.49396
 Alpha  occ. eigenvalues --   -0.49227  -0.49178  -0.48950  -0.48866  -0.48753
 Alpha  occ. eigenvalues --   -0.48386  -0.48200  -0.48081  -0.48079  -0.48022
 Alpha  occ. eigenvalues --   -0.47965  -0.47529  -0.47485  -0.47431  -0.47010
 Alpha  occ. eigenvalues --   -0.46989  -0.46799  -0.46617  -0.46541  -0.46162
 Alpha  occ. eigenvalues --   -0.46126  -0.45994  -0.45902  -0.45702  -0.45537
 Alpha  occ. eigenvalues --   -0.45516  -0.45118  -0.44952  -0.44895  -0.44779
 Alpha  occ. eigenvalues --   -0.44726  -0.44512  -0.44337  -0.44135  -0.44062
 Alpha  occ. eigenvalues --   -0.43861  -0.43838  -0.43753  -0.43516  -0.43283
 Alpha  occ. eigenvalues --   -0.43280  -0.43057  -0.42917  -0.42821  -0.42667
 Alpha  occ. eigenvalues --   -0.42572  -0.42548  -0.42226  -0.42175  -0.42001
 Alpha  occ. eigenvalues --   -0.41800  -0.41505  -0.41360  -0.41281  -0.40948
 Alpha  occ. eigenvalues --   -0.40757  -0.40731  -0.40654  -0.40506  -0.40396
 Alpha  occ. eigenvalues --   -0.40140  -0.40104  -0.39796  -0.39338  -0.38572
 Alpha  occ. eigenvalues --   -0.38378  -0.38270  -0.38196  -0.37696  -0.37558
 Alpha  occ. eigenvalues --   -0.37454  -0.37304  -0.36499  -0.36342  -0.35997
 Alpha  occ. eigenvalues --   -0.35487  -0.35478  -0.34605  -0.34387  -0.34185
 Alpha  occ. eigenvalues --   -0.33619  -0.33144  -0.32980  -0.31598  -0.31501
 Alpha  occ. eigenvalues --   -0.30961  -0.30756  -0.30677  -0.30548  -0.30234
 Alpha  occ. eigenvalues --   -0.29480  -0.29339  -0.28525  -0.23869  -0.23382
 Alpha  occ. eigenvalues --   -0.21266  -0.21191
 Alpha virt. eigenvalues --   -0.08942  -0.08786  -0.01798  -0.01187   0.00169
 Alpha virt. eigenvalues --    0.00732   0.02096   0.02614   0.02730   0.03584
 Alpha virt. eigenvalues --    0.04239   0.05253   0.05300   0.05498   0.05736

 Mulliken charges:
               1
     1  Mg  11.999981
     2  C    5.998746
     3  C    6.000020
     4  C    6.000995
     5  C    6.000177
     6  N    6.999487
     7  C    6.001367
     8  C    5.999426
     9  C    6.000128
    10  C    5.999156
    11  C    6.000137
    12  C    5.999818
    13  C    5.999950
    14  H    0.999609
    15  N    7.000246
    16  C    5.998429
    17  C    5.998937
    18  C    5.999005
    19  C    5.998515
    20  C    6.000284
    21  C    5.999445
    22  O    7.999281
    23  C    6.000114
    24  N    7.000442
    25  C    5.998172
    26  C    6.000447
    27  C    5.999486
    28  C    6.000907
    29  C    5.999881
    30  C    5.999727
    31  C    5.999582
    32  N    6.999918
    33  C    6.000911
    34  C    6.001634
    35  C    6.000059
    36  C    6.001046
    37  C    5.999636
    38  C    6.000468
    39  O    8.001294
    40  C    6.000150
    41  C    6.000212
    42  O    7.999394
    43  O    8.000315
    44  C    6.000047
    45  H    0.999282
    46  H    1.000080
    47  H    1.000798
    48  H    0.999681
    49  H    1.000487
    50  H    1.000274
    51  H    0.999038
    52  H    0.998999
    53  H    1.000692
    54  H    0.999980
    55  H    1.000567
    56  H    1.000277
    57  H    0.999148
    58  H    0.998693
    59  H    0.999757
    60  H    0.998944
    61  H    0.999999
    62  H    1.000258
    63  H    1.000476
    64  H    1.000016
    65  H    0.999691
    66  H    1.000457
    67  H    0.999463
    68  H    1.000778
    69  H    1.000089
    70  H    1.000821
    71  H    1.000021
    72  H    1.000182
    73  H    1.001263
    74  H    1.001168
    75  H    1.000917
    76  H    1.000651
    77  H    0.999311
    78  H    1.000310
    79  H    1.000455
    80  Mg  12.004477
    81  C    5.971365
    82  C    6.006657
    83  C    6.034322
    84  C    5.988808
    85  N    6.982907
    86  C    6.036131
    87  C    5.989420
    88  C    6.012638
    89  C    5.968460
    90  C    6.002945
    91  C    5.998163
    92  C    5.997897
    93  H    1.007311
    94  N    7.006902
    95  C    5.960343
    96  C    5.975712
    97  C    5.985466
    98  C    5.967622
    99  C    6.004957
   100  C    5.988510
   101  O    7.968075
   102  C    6.004425
   103  N    7.007872
   104  C    5.959678
   105  C    6.010589
   106  C    5.987650
   107  C    6.031842
   108  C    6.000819
   109  C    5.994898
   110  C    5.999061
   111  N    6.995208
   112  C    6.046600
   113  C    6.030314
   114  C    6.004700
   115  C    6.033616
   116  C    6.000178
   117  C    6.009536
   118  O    8.031032
   119  C    6.004778
   120  C    6.006783
   121  O    8.000242
   122  O    8.001911
   123  C    5.997833
   124  H    0.986444
   125  H    0.998923
   126  H    1.012810
   127  H    0.997634
   128  H    0.998759
   129  H    1.000491
   130  H    0.996010
   131  H    0.985642
   132  H    1.009287
   133  H    0.995024
   134  H    0.996964
   135  H    0.998014
   136  H    0.983182
   137  H    0.979630
   138  H    0.983278
   139  H    0.992194
   140  H    0.984942
   141  H    0.994674
   142  H    1.001145
   143  H    1.003988
   144  H    1.002358
   145  H    1.005372
   146  H    0.989918
   147  H    0.999009
   148  H    1.012791
   149  H    1.004022
   150  H    0.997149
   151  H    1.006517
   152  H    1.015865
   153  H    1.017080
   154  H    1.017480
   155  H    1.004766
   156  H    1.004639
   157  H    1.005223
   158  H    1.000120
 Sum of Mulliken charges = 624.00000

 Dipole moment (field-independent basis, Debye):
    X=            -10.8169    Y=              1.8860    Z=             -2.2323  Tot=             11.2047
 Quadrupole moment (field-independent basis, Debye-Ang):
   XX=           -201.9655   YY=              0.5019   ZZ=              2.2903
   XY=             20.5424   XZ=            -10.9323   YZ=              1.6007

 Normal termination of Gaussian 16 at Wed Sep 22 16:16:44 2021.
