 Gaussian 16, Revision A.03,
 Gaussian 16:  ES64L-G16RevA.03 25-Dec-2016

 -----------------------------------
 #p cam-b3lyp/Def2SVP td=(nstates=5)
 -----------------------------------

 --------------------------------
 TDDFT excited states in gaussian
 --------------------------------
 Symbolic Z-matrix:
 Charge =  0 Multiplicity = 1

                         Standard orientation:
 ---------------------------------------------------------------------
 Center     Atomic      Atomic             Coordinates (Angstroms)
 Number     Number       Type             X           Y           Z
 ---------------------------------------------------------------------
      1         12           0       24.605356   -0.810539    0.289893
      2          6           0       24.988814    2.148172   -1.517623
      3          6           0       24.432608    0.935178    3.118232
      4          6           0       25.580079   -3.637053    1.946948
      5          6           0       24.842397   -2.596124   -2.692014
      6          7           0       24.534451    1.341671    0.731923
      7          6           0       24.689276    2.322850   -0.148706
      8          6           0       24.446868    3.698155    0.572071
      9          6           0       24.385134    3.278958    2.060421
     10          6           0       24.477922    1.757300    1.998479
     11          6           0       25.639223    3.780685    2.934529
     12          6           0       23.130095    4.479635    0.121820
     13          6           0       23.362621    5.944674   -0.021353
     14          1           0       22.429451    6.923107    0.675141
     15          7           0       24.929572   -1.272486    2.264400
     16          6           0       24.782439   -0.403156    3.312643
     17          6           0       24.771373   -1.174854    4.563203
     18          6           0       25.108786   -2.510184    4.206043
     19          6           0       25.268641   -2.490317    2.742536
     20          6           0       24.558596   -0.523543    5.966969
     21          6           0       25.348869   -3.736394    5.137478
     22          8           0       25.633350   -4.859623    4.737129
     23          6           0       25.198162   -3.538823    6.598473
     24          7           0       25.151226   -2.758054   -0.256402
     25          6           0       25.592292   -3.782419    0.586726
     26          6           0       26.113905   -4.968097   -0.266508
     27          6           0       25.279485   -4.827879   -1.614436
     28          6           0       25.075661   -3.291693   -1.485195
     29          6           0       27.650633   -4.983259   -0.413424
     30          6           0       23.963472   -5.548949   -1.686253
     31          6           0       22.740913   -4.998704   -1.013799
     32          7           0       24.659222   -0.396166   -1.732736
     33          6           0       24.793899   -1.203143   -2.838764
     34          6           0       24.843799   -0.428178   -4.080653
     35          6           0       25.029060    0.948851   -3.609105
     36          6           0       24.914475    0.877103   -2.166188
     37          6           0       24.962996   -0.953724   -5.418426
     38          6           0       25.277533    2.329198   -4.006871
     39          8           0       25.507070    2.826781   -5.044828
     40          6           0       25.178911    3.180842   -2.636065
     41          6           0       26.309506    4.156527   -2.427854
     42          8           0       27.346560    3.918732   -1.815771
     43          8           0       25.934512    5.389844   -2.959791
     44          6           0       26.889765    6.505625   -2.834780
     45          1           0       24.181344    1.327068    4.106396
     46          1           0       25.901397   -4.495694    2.540834
     47          1           0       24.815374   -3.214186   -3.591454
     48          1           0       25.299310    4.370508    0.472031
     49          1           0       23.519335    3.625401    2.624725
     50          1           0       25.354377    4.738701    3.369940
     51          1           0       26.547518    3.989850    2.370005
     52          1           0       25.800714    3.055061    3.732567
     53          1           0       22.319921    4.352044    0.839954
     54          1           0       22.674706    4.136984   -0.807434
     55          1           0       23.181711    6.117857   -1.081840
     56          1           0       24.361100    6.326806    0.189194
     57          1           0       25.554309   -0.258011    6.321035
     58          1           0       24.007164   -1.183520    6.637071
     59          1           0       24.136322    0.481267    5.931273
     60          1           0       25.567235   -2.642018    7.095846
     61          1           0       25.663745   -4.368626    7.129648
     62          1           0       24.174476   -3.778824    6.887238
     63          1           0       25.762522   -5.843310    0.279211
     64          1           0       25.856261   -5.122318   -2.491032
     65          1           0       28.043873   -5.021762   -1.429307
     66          1           0       28.146548   -5.688695    0.253684
     67          1           0       28.067433   -4.051727   -0.030913
     68          1           0       23.993431   -6.572973   -1.315957
     69          1           0       23.701847   -5.651554   -2.739501
     70          1           0       22.255585   -4.458964   -1.826768
     71          1           0       22.919204   -4.274868   -0.218278
     72          1           0       22.125491   -5.824694   -0.655832
     73          1           0       24.382388   -0.282607   -6.051614
     74          1           0       24.495570   -1.938102   -5.418192
     75          1           0       26.006505   -0.952819   -5.731820
     76          1           0       24.260277    3.764824   -2.692619
     77          1           0       27.841045    6.153917   -3.235026
     78          1           0       27.052191    6.761873   -1.788183
     79          1           0       26.666423    7.461596   -3.308713
     80         12           0      -25.467350   -0.577902   -0.228712
     81          6           0      -23.422566    2.412118    0.021524
     82          6           0      -27.483941    0.898354    2.033792
     83          6           0      -27.219182   -3.242033   -0.419173
     84          6           0      -22.997113   -1.997207   -2.331180
     85          7           0      -25.431574    1.545911    0.907811
     86          6           0      -24.576764    2.573189    0.763399
     87          6           0      -25.093303    3.807559    1.527004
     88          6           0      -26.125564    3.042580    2.479776
     89          6           0      -26.409701    1.797596    1.749816
     90          6           0      -25.829959    2.990065    3.969349
     91          6           0      -25.691691    4.800096    0.515215
     92          6           0      -25.662721    6.272183    1.021925
     93          1           0      -24.828712    6.739907    2.302775
     94          7           0      -27.194666   -1.122163    0.658328
     95          6           0      -27.864535   -0.426752    1.646670
     96          6           0      -28.993675   -1.242668    2.082737
     97          6           0      -28.974693   -2.432752    1.314265
     98          6           0      -27.750656   -2.288605    0.476260
     99          6           0      -29.937080   -0.853287    3.132174
    100          6           0      -30.018599   -3.667808    1.283313
    101          8           0      -29.952319   -4.525393    0.445723
    102          6           0      -31.311101   -3.649436    2.118986
    103          7           0      -24.993291   -2.464464   -1.031547
    104          6           0      -25.984898   -3.349075   -1.099883
    105          6           0      -25.680627   -4.560117   -1.940162
    106          6           0      -24.555749   -3.966658   -2.823076
    107          6           0      -24.065152   -2.804343   -1.892754
    108          6           0      -25.172610   -5.828080   -1.108109
    109          6           0      -24.978535   -3.511804   -4.282744
    110          6           0      -26.149630   -4.232604   -5.011788
    111          7           0      -23.563493   -0.023577   -0.922212
    112          6           0      -22.708860   -0.622160   -1.788270
    113          6           0      -21.660849    0.220671   -2.149407
    114          6           0      -21.889606    1.359123   -1.430611
    115          6           0      -23.055086    1.216419   -0.703872
    116          6           0      -20.573630   -0.086004   -3.175694
    117          6           0      -21.326524    2.700789   -1.217058
    118          8           0      -20.257250    3.213199   -1.512233
    119          6           0      -22.395681    3.444937   -0.303679
    120          6           0      -21.683599    4.006416    0.830896
    121          8           0      -21.288952    3.402582    1.833469
    122          8           0      -21.298431    5.249729    0.475026
    123          6           0      -20.267308    5.783734    1.346639
    124          1           0      -28.026093    1.299668    2.892643
    125          1           0      -27.821838   -4.152012   -0.428451
    126          1           0      -22.313303   -2.441181   -3.057389
    127          1           0      -24.321777    4.235348    2.167318
    128          1           0      -27.043576    3.627572    2.444045
    129          1           0      -26.546908    3.569253    4.550480
    130          1           0      -24.827625    3.369113    4.167829
    131          1           0      -25.794685    1.981167    4.380486
    132          1           0      -26.752944    4.567520    0.424391
    133          1           0      -25.272108    4.720038   -0.487433
    134          1           0      -26.666159    6.691818    1.100354
    135          1           0      -25.371557    6.808898    0.119115
    136          1           0      -29.977840    0.228408    3.258373
    137          1           0      -29.572923   -1.343271    4.035336
    138          1           0      -30.965292   -1.162520    2.943135
    139          1           0      -32.018465   -2.876248    1.819216
    140          1           0      -30.965359   -3.637948    3.152867
    141          1           0      -31.805208   -4.619329    2.056114
    142          1           0      -26.639131   -4.769593   -2.414420
    143          1           0      -23.718368   -4.649497   -2.964604
    144          1           0      -25.766815   -6.628319   -1.548695
    145          1           0      -25.376019   -5.776025   -0.037946
    146          1           0      -24.122293   -6.087972   -1.234345
    147          1           0      -24.094105   -3.520931   -4.918184
    148          1           0      -25.374599   -2.518177   -4.072364
    149          1           0      -27.102154   -3.776508   -4.743111
    150          1           0      -26.011386   -5.277616   -4.732216
    151          1           0      -26.033447   -4.215621   -6.094893
    152          1           0      -21.050750   -0.765537   -3.882272
    153          1           0      -19.729245   -0.632995   -2.757288
    154          1           0      -20.271372    0.851464   -3.642142
    155          1           0      -22.830839    4.231752   -0.921129
    156          1           0      -19.929516    6.778703    1.058160
    157          1           0      -19.442933    5.115084    1.595007
    158          1           0      -20.675422    5.983600    2.337994
 ---------------------------------------------------------------------

 SCF Done:  E(RCAM-B3LYP) =  -4069.79338630     A.U. after   17 cycles

 Excitation energies and oscillator strengths:

 Excited State   1:      Singlet-A      1.6811 eV  737.52 nm  f=0.3782  <S**2>=0.000
     309 -> 315       -0.17703
     312 -> 313        0.68654
     309 <- 315       -0.10856
 This state for optimization and/or second-order correction.
 Total Energy, E(TD-HF/TD-DFT) =  -4069.73160684
 Copying the excited state density for this state as the 1-particle RhoCI density.

 Excited State   2:      Singlet-A      1.8346 eV  675.80 nm  f=0.3724  <S**2>=0.000
     310 -> 316       -0.18806
     311 -> 314        0.68158
     310 <- 316       -0.10395

 Excited State   3:      Singlet-A      2.2402 eV  553.45 nm  f=0.1560  <S**2>=0.000
     310 -> 314        0.65518
     311 -> 316        0.25326

 Excited State   4:      Singlet-A      2.2559 eV  549.59 nm  f=0.1058  <S**2>=0.000
     309 -> 313        0.63266
     312 -> 315        0.30602

 Excited State   5:      Singlet-A      3.2164 eV  385.47 nm  f=0.0000  <S**2>=0.000
     312 -> 314        0.70710

 The electronic state is 1-A.
 Alpha  occ. eigenvalues --  -46.89367 -46.87897 -19.24998 -19.24897 -19.20531
 Alpha  occ. eigenvalues --  -19.20078 -19.19665 -19.19162 -19.18865 -19.18769
 Alpha  occ. eigenvalues --  -14.42171 -14.41487 -14.41401 -14.41135 -14.39959
 Alpha  occ. eigenvalues --  -14.39262 -14.39204 -14.38649 -10.39670 -10.38219
 Alpha  occ. eigenvalues --  -10.36983 -10.35627 -10.35500 -10.34822 -10.31778
 Alpha  occ. eigenvalues --  -10.31311 -10.31254 -10.30801 -10.30739 -10.30627
 Alpha  occ. eigenvalues --  -10.30569 -10.30564 -10.30534 -10.29981 -10.29863
 Alpha  occ. eigenvalues --  -10.29727 -10.29608 -10.29592 -10.29454 -10.29433
 Alpha  occ. eigenvalues --  -10.29365 -10.29209 -10.28758 -10.28642 -10.28506
 Alpha  occ. eigenvalues --  -10.28414 -10.28358 -10.28274 -10.28268 -10.28196
 Alpha  occ. eigenvalues --  -10.27973 -10.27886 -10.27842 -10.27712 -10.27646
 Alpha  occ. eigenvalues --  -10.27538 -10.27531 -10.27516 -10.27511 -10.27488
 Alpha  occ. eigenvalues --  -10.27374 -10.27300 -10.27268 -10.27133 -10.27127
 Alpha  occ. eigenvalues --  -10.27057 -10.26866 -10.26682 -10.26506 -10.26218
 Alpha  occ. eigenvalues --  -10.26099 -10.26090 -10.26063 -10.26031 -10.25995
 Alpha  occ. eigenvalues --  -10.25909 -10.25791 -10.25545 -10.25544 -10.25518
 Alpha  occ. eigenvalues --  -10.25474 -10.25374 -10.25354 -10.25229 -10.24526
 Alpha  occ. eigenvalues --  -10.23725  -3.17868  -3.16600  -1.92769  -1.92341
 Alpha  occ. eigenvalues --   -1.92153  -1.91504  -1.91031  -1.90928  -1.16490
 Alpha  occ. eigenvalues --   -1.15133  -1.12923  -1.12613  -1.10138  -1.09457
 Alpha  occ. eigenvalues --   -1.07430  -1.06639  -1.05788  -1.05207  -1.05158
 Alpha  occ. eigenvalues --   -1.04640  -1.03557  -1.03417  -1.02847  -1.02115
 Alpha  occ. eigenvalues --   -0.92349  -0.91848  -0.89174  -0.89010  -0.88750
 Alpha  occ. eigenvalues --   -0.88609  -0.88111  -0.87998  -0.87526  -0.87161
 Alpha  occ. eigenvalues --   -0.86908  -0.86876  -0.86284  -0.85593  -0.84375
 Alpha  occ. eigenvalues --   -0.84156  -0.83574  -0.83109  -0.82519  -0.82385
 Alpha  occ. eigenvalues --   -0.81944  -0.81845  -0.80977  -0.80733  -0.80343
 Alpha  occ. eigenvalues --   -0.80099  -0.78609  -0.78223  -0.77249  -0.76842
 Alpha  occ. eigenvalues --   -0.76711  -0.76640  -0.75827  -0.75716  -0.75266
 Alpha  occ. eigenvalues --   -0.74842  -0.72759  -0.72224  -0.71665  -0.71446
 Alpha  occ. eigenvalues --   -0.69665  -0.69205  -0.68765  -0.68474  -0.67728
 Alpha  occ. eigenvalues --   -0.67582  -0.66772  -0.66736  -0.65685  -0.65447
 Alpha  occ. eigenvalues --   -0.65074  -0.64671  -0.64593  -0.64216  -0.64075
 Alpha  occ. eigenvalues --   -0.63687  -0.61809  -0.61780  -0.60817  -0.60126
 Alpha  occ. eigenvalues --   -0.59571  -0.59509  -0.59245  -0.58853  -0.58410
 Alpha  occ. eigenvalues --   -0.58080  -0.57921  -0.57744  -0.57481  -0.57210
 Alpha  occ. eigenvalues --   -0.56541  -0.55784  -0.55503  -0.55481  -0.55326
 Alpha  occ. eigenvalues --   -0.55191  -0.54815  -0.54629  -0.54076  -0.54046
 Alpha  occ. eigenvalues --   -0.53789  -0.53613  -0.53546  -0.53356  -0.52961
 Alpha  occ. eigenvalues --   -0.52943  -0.52875  -0.52490  -0.52276  -0.52145
 Alpha  occ. eigenvalues --   -0.51752  -0.51678  -0.51601  -0.51359  -0.51295
 Alpha  occ. eigenvalues --   -0.51215  -0.51161  -0.50659  -0.50466  -0.50384
 Alpha  occ. eigenvalues --   -0.50154  -0.50049  -0.50040  -0.49713  -0.49595
 Alpha  occ. eigenvalues --   -0.49502  -0.49126  -0.49087  -0.48922  -0.48771
 Alpha  occ. eigenvalues --   -0.48615  -0.48584  -0.48299  -0.48294  -0.47968
 Alpha  occ. eigenvalues --   -0.47908  -0.47777  -0.47507  -0.47396  -0.47051
 Alpha  occ. eigenvalues --   -0.46941  -0.46770  -0.46737  -0.46572  -0.46256
 Alpha  occ. eigenvalues --   -0.46212  -0.46074  -0.45763  -0.45725  -0.45483
 Alpha  occ. eigenvalues --   -0.45440  -0.45174  -0.44938  -0.44928  -0.44650
 Alpha  occ. eigenvalues --   -0.44612  -0.44379  -0.44367  -0.44329  -0.44143
 Alpha  occ. eigenvalues --   -0.44065  -0.43903  -0.43808  -0.43707  -0.43311
 Alpha  occ. eigenvalues --   -0.43303  -0.43257  -0.43228  -0.42967  -0.42780
 Alpha  occ. eigenvalues --   -0.42661  -0.42642  -0.42482  -0.42261  -0.42079
 Alpha  occ. eigenvalues --   -0.41860  -0.41552  -0.41507  -0.41420  -0.41358
 Alpha  occ. eigenvalues --   -0.41345  -0.41164  -0.40476  -0.40407  -0.40212
 Alpha  occ. eigenvalues --   -0.39738  -0.39338  -0.39109  -0.38640  -0.38608
 Alpha  occ. eigenvalues --   -0.38256  -0.38086  -0.38045  -0.37656  -0.37452
 Alpha  occ. eigenvalues --   -0.36955  -0.36605  -0.36566  -0.36509  -0.35928
 Alpha  occ. eigenvalues --   -0.35889  -0.35653  -0.34441  -0.34262  -0.34176
 Alpha  occ. eigenvalues --   -0.33728  -0.32785  -0.32485  -0.31934  -0.31528
 Alpha  occ. eigenvalues --   -0.31387  -0.31198  -0.30992  -0.30612  -0.30371
 Alpha  occ. eigenvalues --   -0.30003  -0.29534  -0.29482  -0.23962  -0.23379
 Alpha  occ. eigenvalues --   -0.21370  -0.20757
 Alpha virt. eigenvalues --   -0.08443  -0.08260  -0.01359  -0.01083   0.00423
 Alpha virt. eigenvalues --    0.00562   0.02416   0.02441   0.02738   0.02815
 Alpha virt. eigenvalues --    0.04197   0.04586   0.05604   0.05714   0.05877

 Mulliken charges:
               1
     1  Mg   0.845370
     2  C    0.027394
     3  C   -0.076804
     4  C   -0.074871
     5  C   -0.103105
     6  N   -0.243936
     7  C   -0.032148
     8  C    0.000701
     9  C   -0.076710
    10  C    0.082342
    11  C    0.038844
    12  C    0.070149
    13  C   -0.093389
    14  H    0.009724
    15  N   -0.370811
    16  C    0.094358
    17  C   -0.139757
    18  C   -0.061982
    19  C    0.101673
    20  C    0.093654
    21  C    0.039024
    22  O   -0.200716
    23  C    0.041877
    24  N   -0.293942
    25  C    0.034431
    26  C    0.001868
    27  C   -0.010256
    28  C    0.025386
    29  C    0.092693
    30  C    0.017551
    31  C    0.022129
    32  N   -0.363048
    33  C    0.153941
    34  C   -0.162512
    35  C   -0.039997
    36  C    0.088754
    37  C    0.122995
    38  C    0.056379
    39  O   -0.102375
    40  C   -0.071448
    41  C    0.218762
    42  O   -0.220153
    43  O   -0.352118
    44  C    0.187122
    45  H   -0.036728
    46  H   -0.006464
    47  H   -0.034616
    48  H    0.020330
    49  H    0.017647
    50  H    0.008620
    51  H    0.029578
    52  H    0.017093
    53  H    0.013852
    54  H    0.013012
    55  H    0.031517
    56  H    0.030100
    57  H    0.034904
    58  H    0.042260
    59  H    0.009186
    60  H    0.038114
    61  H    0.012045
    62  H    0.038798
    63  H   -0.003745
    64  H   -0.004003
    65  H    0.017227
    66  H    0.021787
    67  H    0.010539
    68  H    0.001279
    69  H   -0.002063
    70  H    0.005397
    71  H    0.031864
    72  H    0.016208
    73  H    0.033365
    74  H    0.015317
    75  H    0.051193
    76  H    0.046744
    77  H    0.036653
    78  H    0.023048
    79  H    0.042899
    80  Mg   0.824238
    81  C    0.010042
    82  C   -0.058331
    83  C   -0.077496
    84  C   -0.071152
    85  N   -0.187782
    86  C   -0.104797
    87  C   -0.021634
    88  C   -0.036008
    89  C   -0.028543
    90  C    0.088096
    91  C    0.048997
    92  C   -0.037960
    93  H    0.035288
    94  N   -0.382881
    95  C    0.143319
    96  C   -0.138004
    97  C   -0.053134
    98  C    0.096494
    99  C    0.105620
   100  C    0.029682
   101  O   -0.167264
   102  C    0.040802
   103  N   -0.248115
   104  C    0.043887
   105  C   -0.049673
   106  C   -0.064500
   107  C    0.033782
   108  C    0.074629
   109  C    0.034644
   110  C    0.005246
   111  N   -0.317541
   112  C    0.075655
   113  C   -0.206285
   114  C    0.001040
   115  C    0.122219
   116  C    0.136332
   117  C    0.060773
   118  O   -0.161566
   119  C   -0.025072
   120  C    0.186373
   121  O   -0.243535
   122  O   -0.299416
   123  C    0.194951
   124  H   -0.035356
   125  H   -0.014024
   126  H   -0.022077
   127  H    0.018004
   128  H   -0.009345
   129  H    0.017785
   130  H    0.020684
   131  H    0.014762
   132  H    0.007798
   133  H    0.024754
   134  H    0.015710
   135  H    0.014656
   136  H    0.021427
   137  H    0.041745
   138  H    0.018444
   139  H    0.065195
   140  H    0.023184
   141  H    0.024010
   142  H    0.019513
   143  H   -0.009342
   144  H    0.020103
   145  H    0.023939
   146  H    0.021303
   147  H    0.012422
   148  H    0.003383
   149  H    0.029279
   150  H    0.014354
   151  H    0.015700
   152  H    0.005781
   153  H    0.029830
   154  H    0.032437
   155  H    0.043040
   156  H    0.030129
   157  H    0.042713
   158  H    0.006637
 Sum of Mulliken charges =  -0.00000

 Dipole moment (field-independent basis, Debye):
    X=             -8.2462    Y=              0.8787    Z=              3.7535  Tot=              9.1028
 Quadrupole moment (field-independent basis, Debye-Ang):
   XX=           -339.2563   YY=           -490.4336   ZZ=           -491.3057
   XY=             -0.8446   XZ=             19.0331   YZ=             34.9390

 Normal termination of Gaussian 16 at Wed Sep  1 00:30:36 2021.
