 Gaussian 16, Revision A.03,
 Gaussian 16:  ES64L-G16RevA.03 25-Dec-2016

 -----------------------------------
 #p cam-b3lyp/Def2SVP td=(nstates=5)
 -----------------------------------

 --------------------------------
 TDDFT excited states in gaussian
 --------------------------------
 Symbolic Z-matrix:
 Charge =  0 Multiplicity = 1

                         Standard orientation:
 ---------------------------------------------------------------------
 Center     Atomic      Atomic             Coordinates (Angstroms)
 Number     Number       Type             X           Y           Z
 ---------------------------------------------------------------------
      1         12           0      -13.547213   -0.680518   -0.330012
      2          6           0      -12.379938    1.992072    1.583847
      3          6           0      -15.308550    1.428516   -2.207922
      4          6           0      -15.565605   -3.309149   -1.167563
      5          6           0      -11.726060   -2.852405    1.695469
      6          7           0      -13.682666    1.511991   -0.413594
      7          6           0      -13.117856    2.359920    0.437403
      8          6           0      -13.372071    3.828385   -0.061328
      9          6           0      -14.396985    3.612212   -1.200426
     10          6           0      -14.507363    2.092920   -1.286808
     11          6           0      -15.871866    4.161973   -0.867226
     12          6           0      -12.075961    4.607956   -0.570933
     13          6           0      -12.055892    6.028125   -0.119686
     14          1           0      -11.825546    7.134604   -1.137471
     15          7           0      -15.189818   -0.894133   -1.543853
     16          6           0      -15.770744    0.111751   -2.269744
     17          6           0      -16.685133   -0.487213   -3.251923
     18          6           0      -16.751248   -1.872956   -2.935913
     19          6           0      -15.836522   -2.053731   -1.796441
     20          6           0      -17.481557    0.352834   -4.300764
     21          6           0      -17.646275   -2.976320   -3.576473
     22          8           0      -17.632236   -4.155133   -3.240236
     23          6           0      -18.553164   -2.581048   -4.679907
     24          7           0      -13.663996   -2.707557    0.186421
     25          6           0      -14.628085   -3.632631   -0.225278
     26          6           0      -14.468196   -4.944577    0.586605
     27          6           0      -12.921658   -4.941845    0.962162
     28          6           0      -12.778833   -3.393828    0.925292
     29          6           0      -15.457091   -5.054874    1.766971
     30          6           0      -11.978532   -5.600159   -0.004339
     31          6           0      -11.550592   -4.906478   -1.263421
     32          7           0      -12.142037   -0.539023    1.177003
     33          6           0      -11.508110   -1.490160    1.942589
     34          6           0      -10.627191   -0.888740    2.946394
     35          6           0      -11.010057    0.527504    2.922784
     36          6           0      -11.945476    0.651966    1.822881
     37          6           0       -9.803365   -1.590963    3.899409
     38          6           0      -10.827535    1.829537    3.552631
     39          8           0      -10.233317    2.174280    4.504308
     40          6           0      -11.670300    2.857950    2.632715
     41          6           0      -12.562776    3.795462    3.406095
     42          8           0      -13.742419    3.589296    3.675560
     43          8           0      -11.851912    4.965091    3.673101
     44          6           0      -12.553401    6.039028    4.399512
     45          1           0      -15.800976    1.958941   -3.026056
     46          1           0      -16.260173   -4.097016   -1.467647
     47          1           0      -11.111381   -3.581331    2.227034
     48          1           0      -13.868256    4.438769    0.693626
     49          1           0      -14.158239    4.072251   -2.159296
     50          1           0      -15.919804    5.181843   -1.249430
     51          1           0      -16.108513    4.249896    0.192823
     52          1           0      -16.588535    3.540560   -1.405470
     53          1           0      -12.012070    4.616157   -1.659155
     54          1           0      -11.120285    4.168959   -0.284112
     55          1           0      -11.173186    6.069010    0.517897
     56          1           0      -12.890513    6.384813    0.483222
     57          1           0      -18.421675    0.613097   -3.815218
     58          1           0      -17.598449   -0.185176   -5.241809
     59          1           0      -17.098592    1.363847   -4.443675
     60          1           0      -19.112427   -1.645951   -4.653999
     61          1           0      -19.304488   -3.355744   -4.831054
     62          1           0      -18.042843   -2.730078   -5.631895
     63          1           0      -14.652279   -5.721938   -0.154408
     64          1           0      -12.733019   -5.377197    1.943319
     65          1           0      -15.025590   -5.246083    2.749510
     66          1           0      -16.318159   -5.690053    1.557891
     67          1           0      -15.967625   -4.102864    1.911270
     68          1           0      -12.318872   -6.566783   -0.373728
     69          1           0      -11.059538   -5.827383    0.536150
     70          1           0      -10.604256   -4.455062   -0.966009
     71          1           0      -12.193631   -4.093977   -1.602425
     72          1           0      -11.412592   -5.646756   -2.052147
     73          1           0       -8.907953   -0.981113    4.020853
     74          1           0       -9.528548   -2.542436    3.444809
     75          1           0      -10.324299   -1.682875    4.851936
     76          1           0      -10.944593    3.474101    2.101840
     77          1           0      -12.968281    5.591134    5.302892
     78          1           0      -13.388410    6.422398    3.813681
     79          1           0      -12.006954    6.934198    4.696904
     80         12           0       14.014310   -0.593574    0.155871
     81          6           0       11.932345    2.065281   -0.833515
     82          6           0       16.703743    1.595585   -0.099327
     83          6           0       15.968290   -3.206857    0.772542
     84          6           0       11.309106   -2.869366   -0.471128
     85          7           0       14.285642    1.543225   -0.417984
     86          6           0       13.247193    2.452847   -0.662290
     87          6           0       13.773503    3.865890   -0.491739
     88          6           0       15.321847    3.727117   -0.537369
     89          6           0       15.450599    2.187498   -0.332832
     90          6           0       16.035476    4.322005   -1.791793
     91          6           0       13.230573    4.618415    0.772273
     92          6           0       13.101992    6.194474    0.587259
     93          1           0       13.559792    6.797758   -0.743334
     94          7           0       15.974142   -0.740774    0.430088
     95          6           0       16.909799    0.277056    0.361387
     96          6           0       18.206348   -0.197462    0.750642
     97          6           0       18.058009   -1.614794    0.887593
     98          6           0       16.639549   -1.884997    0.734714
     99          6           0       19.479234    0.702057    0.793411
    100          6           0       19.108951   -2.645467    1.141725
    101          8           0       18.852524   -3.871694    1.081829
    102          6           0       20.628548   -2.451635    1.420637
    103          7           0       13.778501   -2.751670   -0.106864
    104          6           0       14.717179   -3.614507    0.325898
    105          6           0       14.125704   -5.041036    0.451741
    106          6           0       12.652840   -4.948948    0.037063
    107          6           0       12.556787   -3.371190   -0.154124
    108          6           0       14.983869   -6.063620   -0.228578
    109          6           0       11.607389   -5.517895    1.020256
    110          6           0       11.605486   -4.875826    2.429484
    111          7           0       12.008517   -0.503491   -0.579119
    112          6           0       11.049416   -1.457938   -0.609711
    113          6           0        9.781136   -0.769936   -0.845973
    114          6           0       10.021038    0.630594   -0.922865
    115          6           0       11.426663    0.753118   -0.801975
    116          6           0        8.402318   -1.424569   -0.860635
    117          6           0        9.424126    1.915370   -1.103096
    118          8           0        8.264700    2.315533   -1.166081
    119          6           0       10.720810    2.959336   -1.116290
    120          6           0       10.678239    3.790563   -2.384711
    121          8           0       11.065706    3.389692   -3.464701
    122          8           0       10.243916    5.069203   -2.118414
    123          6           0        9.770525    5.898314   -3.222057
    124          1           0       17.448882    2.393522   -0.087132
    125          1           0       16.642323   -4.011229    1.073462
    126          1           0       10.507096   -3.608988   -0.511146
    127          1           0       13.455160    4.472975   -1.339084
    128          1           0       15.710154    4.225888    0.350164
    129          1           0       16.585505    3.463002   -2.174619
    130          1           0       16.786688    5.055121   -1.495529
    131          1           0       15.441611    4.733450   -2.607933
    132          1           0       13.914363    4.525031    1.615392
    133          1           0       12.283946    4.165934    1.064864
    134          1           0       13.788180    6.659836    1.295021
    135          1           0       12.062411    6.457738    0.780832
    136          1           0       20.315015    0.104381    0.427564
    137          1           0       19.735249    1.018076    1.804129
    138          1           0       19.520164    1.652530    0.261619
    139          1           0       20.781320   -1.792307    2.275534
    140          1           0       21.172050   -2.097744    0.544626
    141          1           0       21.111911   -3.309354    1.886876
    142          1           0       14.280336   -5.326300    1.491533
    143          1           0       12.630592   -5.328597   -0.985052
    144          1           0       15.593697   -6.636805    0.470005
    145          1           0       15.598967   -5.584414   -0.990401
    146          1           0       14.427011   -6.797444   -0.812319
    147          1           0       11.909475   -6.560144    1.125042
    148          1           0       10.610770   -5.465904    0.580907
    149          1           0       10.606245   -4.457958    2.550296
    150          1           0       12.374226   -4.103056    2.423034
    151          1           0       11.903657   -5.551108    3.231625
    152          1           0        7.656667   -0.843595   -0.318631
    153          1           0        8.402370   -2.367172   -0.314030
    154          1           0        8.143814   -1.643661   -1.896989
    155          1           0       10.527775    3.632189   -0.280372
    156          1           0       10.440426    5.707773   -4.060938
    157          1           0        9.785770    6.970911   -3.028345
    158          1           0        8.730258    5.610837   -3.374909
 ---------------------------------------------------------------------

 SCF Done:  E(RCAM-B3LYP) =  -4069.82481002     A.U. after   17 cycles

 Excitation energies and oscillator strengths:

 Excited State   1:      Singlet-A      1.6589 eV  747.40 nm  f=0.4691  <S**2>=0.000
     309 -> 315        0.16648
     311 -> 313        0.68509
     309 <- 315        0.10485
 This state for optimization and/or second-order correction.
 Total Energy, E(TD-HF/TD-DFT) =  -4069.76384768
 Copying the excited state density for this state as the 1-particle RhoCI density.

 Excited State   2:      Singlet-A      1.6813 eV  737.41 nm  f=0.3189  <S**2>=0.000
     310 -> 316       -0.17625
     312 -> 314        0.68334
     310 <- 316       -0.10806

 Excited State   3:      Singlet-A      2.1919 eV  565.65 nm  f=0.1513  <S**2>=0.000
     309 -> 313        0.65713
     311 -> 315       -0.24516

 Excited State   4:      Singlet-A      2.2559 eV  549.59 nm  f=0.1058  <S**2>=0.000
     310 -> 314        0.63271
     312 -> 316        0.30596

 Excited State   5:      Singlet-A      2.7918 eV  444.09 nm  f=0.0000  <S**2>=0.000
     312 -> 313        0.70706

 The electronic state is 1-A.
 Alpha  occ. eigenvalues --  -46.88895 -46.87867 -19.24970 -19.24244 -19.20051
 Alpha  occ. eigenvalues --  -19.19634 -19.19344 -19.19245 -19.19136 -19.18350
 Alpha  occ. eigenvalues --  -14.42537 -14.42141 -14.41419 -14.41372 -14.40259
 Alpha  occ. eigenvalues --  -14.39365 -14.39231 -14.39174 -10.39642 -10.39106
 Alpha  occ. eigenvalues --  -10.35601 -10.35574 -10.35469 -10.35464 -10.31753
 Alpha  occ. eigenvalues --  -10.31528 -10.31403 -10.31281 -10.30923 -10.30786
 Alpha  occ. eigenvalues --  -10.30718 -10.30538 -10.30536 -10.30455 -10.30338
 Alpha  occ. eigenvalues --  -10.29951 -10.29839 -10.29833 -10.29698 -10.29503
 Alpha  occ. eigenvalues --  -10.29424 -10.29335 -10.29275 -10.29024 -10.28729
 Alpha  occ. eigenvalues --  -10.28613 -10.28327 -10.28240 -10.28237 -10.28230
 Alpha  occ. eigenvalues --  -10.28188 -10.28165 -10.28140 -10.27963 -10.27932
 Alpha  occ. eigenvalues --  -10.27856 -10.27839 -10.27620 -10.27511 -10.27509
 Alpha  occ. eigenvalues --  -10.27506 -10.27490 -10.27459 -10.27444 -10.27029
 Alpha  occ. eigenvalues --  -10.26872 -10.26831 -10.26712 -10.26652 -10.26578
 Alpha  occ. eigenvalues --  -10.26320 -10.26246 -10.26070 -10.26058 -10.26032
 Alpha  occ. eigenvalues --  -10.26001 -10.25882 -10.25768 -10.25601 -10.25586
 Alpha  occ. eigenvalues --  -10.25516 -10.25496 -10.25325 -10.25279 -10.24896
 Alpha  occ. eigenvalues --  -10.24493  -3.17465  -3.16570  -1.92335  -1.91921
 Alpha  occ. eigenvalues --   -1.91779  -1.91474  -1.91001  -1.90897  -1.15436
 Alpha  occ. eigenvalues --   -1.15105  -1.12892  -1.10113  -1.09433  -1.08400
 Alpha  occ. eigenvalues --   -1.07443  -1.07403  -1.05128  -1.04315  -1.03528
 Alpha  occ. eigenvalues --   -1.03455  -1.03203  -1.02817  -1.02101  -1.02085
 Alpha  occ. eigenvalues --   -0.92174  -0.91817  -0.89197  -0.88981  -0.88577
 Alpha  occ. eigenvalues --   -0.88536  -0.88135  -0.87968  -0.87356  -0.87131
 Alpha  occ. eigenvalues --   -0.86848  -0.86788  -0.86256  -0.85302  -0.84126
 Alpha  occ. eigenvalues --   -0.83805  -0.83545  -0.83324  -0.82489  -0.82173
 Alpha  occ. eigenvalues --   -0.81819  -0.81052  -0.80948  -0.80615  -0.80314
 Alpha  occ. eigenvalues --   -0.80027  -0.78696  -0.78194  -0.77221  -0.76938
 Alpha  occ. eigenvalues --   -0.76759  -0.76681  -0.75825  -0.75798  -0.74974
 Alpha  occ. eigenvalues --   -0.74814  -0.72529  -0.72194  -0.71418  -0.71072
 Alpha  occ. eigenvalues --   -0.69913  -0.69176  -0.69124  -0.68445  -0.68321
 Alpha  occ. eigenvalues --   -0.67696  -0.67513  -0.66706  -0.65655  -0.65205
 Alpha  occ. eigenvalues --   -0.64901  -0.64563  -0.64187  -0.64140  -0.64121
 Alpha  occ. eigenvalues --   -0.64047  -0.61752  -0.61623  -0.60895  -0.60098
 Alpha  occ. eigenvalues --   -0.59541  -0.59476  -0.58824  -0.58782  -0.58060
 Alpha  occ. eigenvalues --   -0.58051  -0.57715  -0.57407  -0.57181  -0.56941
 Alpha  occ. eigenvalues --   -0.55886  -0.55756  -0.55751  -0.55475  -0.55297
 Alpha  occ. eigenvalues --   -0.54912  -0.54787  -0.54731  -0.54048  -0.53933
 Alpha  occ. eigenvalues --   -0.53517  -0.53462  -0.53326  -0.53038  -0.52913
 Alpha  occ. eigenvalues --   -0.52764  -0.52532  -0.52463  -0.52336  -0.52116
 Alpha  occ. eigenvalues --   -0.51976  -0.51725  -0.51570  -0.51327  -0.51308
 Alpha  occ. eigenvalues --   -0.51185  -0.51014  -0.50709  -0.50357  -0.50125
 Alpha  occ. eigenvalues --   -0.50022  -0.50005  -0.49567  -0.49504  -0.49473
 Alpha  occ. eigenvalues --   -0.49269  -0.49193  -0.49100  -0.49016  -0.48755
 Alpha  occ. eigenvalues --   -0.48593  -0.48557  -0.48266  -0.48176  -0.47940
 Alpha  occ. eigenvalues --   -0.47862  -0.47749  -0.47740  -0.47404  -0.46913
 Alpha  occ. eigenvalues --   -0.46741  -0.46671  -0.46543  -0.46363  -0.46282
 Alpha  occ. eigenvalues --   -0.46228  -0.46045  -0.45819  -0.45694  -0.45453
 Alpha  occ. eigenvalues --   -0.45451  -0.45191  -0.45145  -0.44897  -0.44706
 Alpha  occ. eigenvalues --   -0.44584  -0.44537  -0.44338  -0.44226  -0.44114
 Alpha  occ. eigenvalues --   -0.44064  -0.43986  -0.43678  -0.43390  -0.43272
 Alpha  occ. eigenvalues --   -0.43200  -0.43122  -0.43031  -0.42753  -0.42626
 Alpha  occ. eigenvalues --   -0.42613  -0.42402  -0.41912  -0.41834  -0.41830
 Alpha  occ. eigenvalues --   -0.41589  -0.41524  -0.41519  -0.41478  -0.41320
 Alpha  occ. eigenvalues --   -0.41135  -0.40723  -0.40594  -0.40447  -0.40183
 Alpha  occ. eigenvalues --   -0.40086  -0.39621  -0.39229  -0.39081  -0.38667
 Alpha  occ. eigenvalues --   -0.38608  -0.38017  -0.37789  -0.37626  -0.37622
 Alpha  occ. eigenvalues --   -0.36924  -0.36810  -0.36539  -0.36479  -0.36298
 Alpha  occ. eigenvalues --   -0.35956  -0.35858  -0.34413  -0.34232  -0.34000
 Alpha  occ. eigenvalues --   -0.33731  -0.33047  -0.32756  -0.31456  -0.31361
 Alpha  occ. eigenvalues --   -0.31168  -0.30962  -0.30780  -0.30725  -0.30283
 Alpha  occ. eigenvalues --   -0.29974  -0.29504  -0.29478  -0.24110  -0.23933
 Alpha  occ. eigenvalues --   -0.21371  -0.20728
 Alpha virt. eigenvalues --   -0.09232  -0.08413  -0.01398  -0.01329  -0.00038
 Alpha virt. eigenvalues --    0.00452   0.01375   0.02179   0.02470   0.02848
 Alpha virt. eigenvalues --    0.04614   0.05219   0.05400   0.05636   0.06087

 Mulliken charges:
               1
     1  Mg   0.845441
     2  C    0.027382
     3  C   -0.076789
     4  C   -0.074880
     5  C   -0.103064
     6  N   -0.243956
     7  C   -0.032102
     8  C    0.000689
     9  C   -0.076674
    10  C    0.082351
    11  C    0.038843
    12  C    0.070099
    13  C   -0.093402
    14  H    0.009741
    15  N   -0.370809
    16  C    0.094325
    17  C   -0.139752
    18  C   -0.062005
    19  C    0.101661
    20  C    0.093655
    21  C    0.039014
    22  O   -0.200765
    23  C    0.041907
    24  N   -0.293938
    25  C    0.034439
    26  C    0.001867
    27  C   -0.010258
    28  C    0.025399
    29  C    0.092709
    30  C    0.017546
    31  C    0.022115
    32  N   -0.363053
    33  C    0.153959
    34  C   -0.162385
    35  C   -0.039976
    36  C    0.088784
    37  C    0.122943
    38  C    0.056441
    39  O   -0.102349
    40  C   -0.071475
    41  C    0.218747
    42  O   -0.220221
    43  O   -0.352066
    44  C    0.187172
    45  H   -0.036751
    46  H   -0.006520
    47  H   -0.034629
    48  H    0.020279
    49  H    0.017667
    50  H    0.008585
    51  H    0.029530
    52  H    0.017056
    53  H    0.013921
    54  H    0.013160
    55  H    0.031589
    56  H    0.030006
    57  H    0.034839
    58  H    0.042237
    59  H    0.009181
    60  H    0.038078
    61  H    0.011980
    62  H    0.038796
    63  H   -0.003770
    64  H   -0.004061
    65  H    0.017175
    66  H    0.021729
    67  H    0.010521
    68  H    0.001222
    69  H   -0.002053
    70  H    0.005513
    71  H    0.031874
    72  H    0.016210
    73  H    0.033512
    74  H    0.015358
    75  H    0.051101
    76  H    0.046870
    77  H    0.036585
    78  H    0.023014
    79  H    0.042886
    80  Mg   0.835558
    81  C    0.031242
    82  C   -0.057078
    83  C   -0.053484
    84  C   -0.058924
    85  N   -0.269269
    86  C   -0.044978
    87  C    0.002013
    88  C   -0.047184
    89  C   -0.014833
    90  C    0.074632
    91  C    0.034716
    92  C   -0.076598
    93  H    0.020564
    94  N   -0.405729
    95  C    0.178226
    96  C   -0.125143
    97  C   -0.000875
    98  C    0.109754
    99  C    0.101757
   100  C   -0.004282
   101  O   -0.244053
   102  C    0.051034
   103  N   -0.270208
   104  C    0.053222
   105  C   -0.078189
   106  C    0.027899
   107  C   -0.007794
   108  C    0.069561
   109  C    0.031249
   110  C    0.009332
   111  N   -0.344260
   112  C    0.135716
   113  C   -0.189185
   114  C    0.048264
   115  C    0.088844
   116  C    0.113922
   117  C    0.043020
   118  O   -0.170915
   119  C   -0.068824
   120  C    0.209026
   121  O   -0.207587
   122  O   -0.347345
   123  C    0.172031
   124  H   -0.027405
   125  H   -0.004058
   126  H   -0.028329
   127  H    0.008131
   128  H    0.006996
   129  H    0.010094
   130  H    0.012677
   131  H    0.036543
   132  H    0.005640
   133  H    0.014558
   134  H    0.032457
   135  H    0.046762
   136  H    0.016005
   137  H    0.027860
   138  H    0.023611
   139  H    0.009476
   140  H    0.052496
   141  H    0.022993
   142  H    0.010422
   143  H    0.009952
   144  H    0.021279
   145  H    0.019795
   146  H   -0.000337
   147  H    0.007260
   148  H    0.015339
   149  H    0.024445
   150  H    0.019945
   151  H    0.019874
   152  H    0.034895
   153  H   -0.002142
   154  H    0.035885
   155  H    0.036192
   156  H    0.043602
   157  H    0.035903
   158  H    0.046340
 Sum of Mulliken charges =  -0.00000

 Dipole moment (field-independent basis, Debye):
    X=              3.0878    Y=              2.9956    Z=              0.1759  Tot=              4.3057
 Quadrupole moment (field-independent basis, Debye-Ang):
   XX=           -429.2209   YY=           -471.7271   ZZ=           -518.5142
   XY=             17.1556   XZ=             91.1996   YZ=            -15.0793

 Normal termination of Gaussian 16 at Tue Aug 31 23:25:03 2021.
