 Gaussian 16, Revision A.03,
 Gaussian 16:  ES64L-G16RevA.03 25-Dec-2016

 -----------------------------------
 #p cam-b3lyp/Def2SVP td=(nstates=5)
 -----------------------------------

 --------------------------------
 TDDFT excited states in gaussian
 --------------------------------
 Symbolic Z-matrix:
 Charge =  0 Multiplicity = 1

                         Standard orientation:
 ---------------------------------------------------------------------
 Center     Atomic      Atomic             Coordinates (Angstroms)
 Number     Number       Type             X           Y           Z
 ---------------------------------------------------------------------
      1         12           0      -30.486762    0.109549    0.047624
      2          6           0      -27.285099   -1.326803   -0.064300
      3          6           0      -30.816687   -1.093420    3.207742
      4          6           0      -33.245378    1.862430    0.165273
      5          6           0      -29.468368    1.907401   -2.901445
      6          7           0      -29.223563   -1.113048    1.344529
      7          6           0      -27.956900   -1.571173    1.115353
      8          6           0      -27.381879   -2.078222    2.446367
      9          6           0      -28.645337   -2.475740    3.201577
     10          6           0      -29.596622   -1.422200    2.602370
     11          6           0      -29.110142   -3.915241    2.881525
     12          6           0      -26.570036   -0.952481    3.187645
     13          6           0      -24.982872   -1.140591    3.357110
     14          1           0      -24.035935   -0.109023    2.720519
     15          7           0      -31.817403    0.400115    1.504936
     16          6           0      -31.798666   -0.203032    2.741535
     17          6           0      -33.022105    0.113379    3.409753
     18          6           0      -33.852599    0.885064    2.531366
     19          6           0      -32.995723    1.101150    1.329639
     20          6           0      -33.362124   -0.375115    4.859465
     21          6           0      -35.326761    1.329599    2.847320
     22          8           0      -35.866872    0.946597    3.839130
     23          6           0      -36.096657    1.970176    1.787967
     24          7           0      -31.109270    1.899321   -1.026758
     25          6           0      -32.445163    2.112921   -0.965498
     26          6           0      -33.012249    2.728014   -2.233962
     27          6           0      -31.767909    3.075747   -3.036657
     28          6           0      -30.679301    2.242633   -2.274885
     29          6           0      -33.969749    1.753039   -3.014015
     30          6           0      -31.346171    4.609759   -3.215814
     31          6           0      -31.494474    5.329420   -4.529461
     32          7           0      -28.870857    0.140143   -1.339395
     33          6           0      -28.591156    0.908515   -2.476775
     34          6           0      -27.281813    0.608995   -3.014853
     35          6           0      -26.756755   -0.281624   -2.111033
     36          6           0      -27.718359   -0.543860   -1.080330
     37          6           0      -26.685707    1.228025   -4.209999
     38          6           0      -25.576939   -1.075280   -1.803070
     39          8           0      -24.540474   -1.234364   -2.459706
     40          6           0      -25.906516   -1.854880   -0.547516
     41          6           0      -25.855752   -3.335547   -0.908198
     42          8           0      -26.575342   -3.794133   -1.792546
     43          8           0      -24.833078   -4.001781   -0.215221
     44          6           0      -24.706053   -5.398795   -0.533864
     45          1           0      -30.952759   -1.623132    4.152578
     46          1           0      -34.293911    2.158721    0.108123
     47          1           0      -29.214002    2.373807   -3.855714
     48          1           0      -26.646577   -2.843843    2.197602
     49          1           0      -28.452267   -2.357665    4.267096
     50          1           0      -29.235892   -4.274813    3.902199
     51          1           0      -28.268374   -4.365348    2.354534
     52          1           0      -30.018790   -4.019314    2.288422
     53          1           0      -26.957270   -0.893563    4.204763
     54          1           0      -26.820020   -0.001867    2.717205
     55          1           0      -24.749467   -2.072231    2.841123
     56          1           0      -24.648724   -1.279748    4.384562
     57          1           0      -33.712805    0.363850    5.579256
     58          1           0      -32.440001   -0.812469    5.243617
     59          1           0      -34.112387   -1.165927    4.871536
     60          1           0      -35.653494    2.888222    1.401480
     61          1           0      -37.090926    2.194128    2.174367
     62          1           0      -36.359529    1.241374    1.022483
     63          1           0      -33.642159    3.595408   -2.033818
     64          1           0      -31.825261    2.634878   -4.031883
     65          1           0      -35.026049    1.940351   -2.821780
     66          1           0      -33.651602    0.723221   -2.851733
     67          1           0      -33.817342    1.941888   -4.077628
     68          1           0      -30.402213    4.935954   -2.780520
     69          1           0      -32.112799    5.002116   -2.547123
     70          1           0      -32.238778    6.124811   -4.507841
     71          1           0      -31.803216    4.622238   -5.299693
     72          1           0      -30.498617    5.721427   -4.734824
     73          1           0      -27.150812    2.205045   -4.343973
     74          1           0      -26.989053    0.596970   -5.045855
     75          1           0      -25.598416    1.244306   -4.150483
     76          1           0      -25.073723   -1.604421    0.108225
     77          1           0      -25.458441   -6.039765   -0.073555
     78          1           0      -23.735722   -5.791846   -0.231744
     79          1           0      -24.746993   -5.622313   -1.599570
     80         12           0       30.353654    0.475661    0.068931
     81          6           0       27.460190   -0.840008   -1.394463
     82          6           0       31.713664   -2.657801    0.180296
     83          6           0       32.903485    1.739170    1.755081
     84          6           0       28.734900    3.662515    0.064960
     85          7           0       29.611670   -1.530825   -0.510082
     86          6           0       28.440594   -1.865040   -1.153179
     87          6           0       28.498597   -3.296578   -1.653470
     88          6           0       29.740293   -3.892804   -0.879790
     89          6           0       30.440245   -2.558444   -0.450485
     90          6           0       29.358059   -4.756909    0.315175
     91          6           0       28.476107   -3.317470   -3.225391
     92          6           0       28.746509   -4.723891   -3.828371
     93          1           0       28.307908   -5.914228   -3.000923
     94          7           0       32.020159   -0.317418    0.816116
     95          6           0       32.382750   -1.657414    0.868698
     96          6           0       33.653138   -1.850972    1.589694
     97          6           0       34.005508   -0.531912    2.011120
     98          6           0       32.949379    0.356075    1.532345
     99          6           0       34.322913   -3.167732    1.717252
    100          6           0       35.225740   -0.151340    2.809346
    101          8           0       35.485393    1.048898    3.101433
    102          6           0       36.238192   -1.182583    3.228338
    103          7           0       30.781717    2.461397    0.759742
    104          6           0       31.918646    2.667989    1.424756
    105          6           0       31.975453    4.161181    1.973641
    106          6           0       30.568987    4.794214    1.448220
    107          6           0       29.981573    3.578520    0.730059
    108          6           0       32.130129    4.112063    3.548938
    109          6           0       30.731373    5.994906    0.421031
    110          6           0       30.903151    7.406891    1.051140
    111          7           0       28.509434    1.282540   -0.449075
    112          6           0       28.006873    2.608942   -0.514823
    113          6           0       26.621378    2.598604   -1.159461
    114          6           0       26.331416    1.270083   -1.453504
    115          6           0       27.555054    0.519813   -1.071830
    116          6           0       25.746783    3.771993   -1.472747
    117          6           0       25.386954    0.351500   -2.045010
    118          8           0       24.265636    0.517223   -2.535495
    119          6           0       26.157047   -1.052152   -2.202675
    120          6           0       25.336494   -2.226923   -1.721602
    121          8           0       25.307527   -2.605659   -0.581866
    122          8           0       24.805861   -2.957294   -2.808886
    123          6           0       24.381126   -4.340822   -2.547782
    124          1           0       31.985524   -3.715734    0.187407
    125          1           0       33.740635    2.147333    2.325473
    126          1           0       28.143041    4.578305    0.125652
    127          1           0       27.583256   -3.791699   -1.331770
    128          1           0       30.456636   -4.442341   -1.491352
    129          1           0       29.828386   -5.724243    0.139304
    130          1           0       28.272166   -4.757046    0.406876
    131          1           0       29.864854   -4.457192    1.232159
    132          1           0       29.094453   -2.450954   -3.457616
    133          1           0       27.469144   -3.005372   -3.500330
    134          1           0       29.826098   -4.721695   -3.978912
    135          1           0       28.229901   -4.783699   -4.786201
    136          1           0       34.287112   -3.343263    2.792292
    137          1           0       35.329010   -3.181415    1.298957
    138          1           0       33.855051   -4.052089    1.282788
    139          1           0       36.696661   -1.609334    2.337323
    140          1           0       35.572082   -1.837758    3.791095
    141          1           0       37.007774   -0.852081    3.925365
    142          1           0       32.835185    4.532649    1.414631
    143          1           0       29.782564    4.956538    2.186529
    144          1           0       32.144104    3.107401    3.971152
    145          1           0       31.298411    4.637914    4.018562
    146          1           0       33.115848    4.527851    3.755595
    147          1           0       29.999229    5.952253   -0.384842
    148          1           0       31.668937    5.806907   -0.101155
    149          1           0       31.826035    7.819110    0.644679
    150          1           0       30.878814    7.305998    2.136265
    151          1           0       30.095061    8.082115    0.768773
    152          1           0       25.784642    3.896147   -2.555210
    153          1           0       26.103264    4.659335   -0.948237
    154          1           0       24.684038    3.689540   -1.245938
    155          1           0       26.399806   -1.142606   -3.261045
    156          1           0       23.410388   -4.245269   -2.062055
    157          1           0       25.157032   -4.889459   -2.013482
    158          1           0       24.308080   -4.822919   -3.522272
 ---------------------------------------------------------------------

 SCF Done:  E(RCAM-B3LYP) =  -4069.82782241     A.U. after   17 cycles

 Excitation energies and oscillator strengths:

 Excited State   1:      Singlet-A      1.7141 eV  723.32 nm  f=0.3920  <S**2>=0.000
     310 -> 316        0.19939
     312 -> 314        0.68016
     310 <- 316        0.11160
 This state for optimization and/or second-order correction.
 Total Energy, E(TD-HF/TD-DFT) =  -4069.76483011
 Copying the excited state density for this state as the 1-particle RhoCI density.

 Excited State   2:      Singlet-A      1.7237 eV  719.28 nm  f=0.3551  <S**2>=0.000
     309 -> 315        0.19166
     311 -> 313        0.68282
     309 <- 315        0.11112

 Excited State   3:      Singlet-A      2.2830 eV  543.07 nm  f=0.0523  <S**2>=0.000
     309 -> 313        0.60481
     311 -> 315       -0.35603

 Excited State   4:      Singlet-A      2.2903 eV  541.35 nm  f=0.0345  <S**2>=0.000
     310 -> 314        0.58797
     312 -> 316       -0.38618

 Excited State   5:      Singlet-A      3.1346 eV  395.53 nm  f=0.0000  <S**2>=0.000
     312 -> 313        0.70711

 The electronic state is 1-A.
 Alpha  occ. eigenvalues --  -46.88686 -46.88057 -19.26023 -19.23962 -19.20578
 Alpha  occ. eigenvalues --  -19.20285 -19.19168 -19.19092 -19.18760 -19.18378
 Alpha  occ. eigenvalues --  -14.42137 -14.42136 -14.42077 -14.41545 -14.39938
 Alpha  occ. eigenvalues --  -14.39863 -14.39384 -14.39348 -10.40248 -10.39405
 Alpha  occ. eigenvalues --  -10.35520 -10.35233 -10.35055 -10.34565 -10.31744
 Alpha  occ. eigenvalues --  -10.31505 -10.31135 -10.31128 -10.30901 -10.30834
 Alpha  occ. eigenvalues --  -10.30741 -10.30656 -10.30597 -10.30550 -10.30352
 Alpha  occ. eigenvalues --  -10.30343 -10.30301 -10.30099 -10.29792 -10.29606
 Alpha  occ. eigenvalues --  -10.29538 -10.29463 -10.29291 -10.29212 -10.29091
 Alpha  occ. eigenvalues --  -10.28614 -10.28527 -10.28410 -10.28284 -10.28178
 Alpha  occ. eigenvalues --  -10.28162 -10.28126 -10.28077 -10.27887 -10.27874
 Alpha  occ. eigenvalues --  -10.27818 -10.27815 -10.27724 -10.27694 -10.27598
 Alpha  occ. eigenvalues --  -10.27562 -10.27543 -10.27254 -10.27148 -10.26928
 Alpha  occ. eigenvalues --  -10.26899 -10.26890 -10.26875 -10.26864 -10.26852
 Alpha  occ. eigenvalues --  -10.26606 -10.26435 -10.26428 -10.26422 -10.26231
 Alpha  occ. eigenvalues --  -10.26229 -10.26206 -10.26001 -10.25972 -10.25751
 Alpha  occ. eigenvalues --  -10.25695 -10.25555 -10.25508 -10.25385 -10.25137
 Alpha  occ. eigenvalues --  -10.25135  -3.17296  -3.16739  -1.92171  -1.91767
 Alpha  occ. eigenvalues --   -1.91644  -1.91596  -1.91180  -1.91070  -1.15963
 Alpha  occ. eigenvalues --   -1.15461  -1.11910  -1.09104  -1.09100  -1.08221
 Alpha  occ. eigenvalues --   -1.07793  -1.07760  -1.04783  -1.04315  -1.04275
 Alpha  occ. eigenvalues --   -1.03453  -1.02859  -1.02784  -1.02075  -1.01362
 Alpha  occ. eigenvalues --   -0.93046  -0.91592  -0.89152  -0.88971  -0.88900
 Alpha  occ. eigenvalues --   -0.88563  -0.88508  -0.87815  -0.87613  -0.87550
 Alpha  occ. eigenvalues --   -0.87106  -0.86712  -0.86308  -0.84998  -0.84608
 Alpha  occ. eigenvalues --   -0.84237  -0.84234  -0.82924  -0.82586  -0.82521
 Alpha  occ. eigenvalues --   -0.82178  -0.81917  -0.81037  -0.80856  -0.80741
 Alpha  occ. eigenvalues --   -0.79988  -0.78949  -0.78003  -0.77404  -0.77227
 Alpha  occ. eigenvalues --   -0.76962  -0.76400  -0.76312  -0.75748  -0.75107
 Alpha  occ. eigenvalues --   -0.74530  -0.72888  -0.72123  -0.72053  -0.71456
 Alpha  occ. eigenvalues --   -0.69397  -0.69031  -0.68618  -0.68602  -0.68261
 Alpha  occ. eigenvalues --   -0.68155  -0.67051  -0.66776  -0.65872  -0.65599
 Alpha  occ. eigenvalues --   -0.65497  -0.65115  -0.64866  -0.64456  -0.63929
 Alpha  occ. eigenvalues --   -0.63750  -0.62720  -0.61250  -0.60623  -0.60250
 Alpha  occ. eigenvalues --   -0.60048  -0.59480  -0.59119  -0.58888  -0.58682
 Alpha  occ. eigenvalues --   -0.58499  -0.57781  -0.57680  -0.57498  -0.56759
 Alpha  occ. eigenvalues --   -0.56238  -0.56137  -0.56073  -0.55932  -0.55289
 Alpha  occ. eigenvalues --   -0.54975  -0.54508  -0.54224  -0.53950  -0.53939
 Alpha  occ. eigenvalues --   -0.53668  -0.53540  -0.53229  -0.53197  -0.52997
 Alpha  occ. eigenvalues --   -0.52783  -0.52680  -0.52497  -0.52195  -0.52190
 Alpha  occ. eigenvalues --   -0.51886  -0.51746  -0.51734  -0.51424  -0.51141
 Alpha  occ. eigenvalues --   -0.51012  -0.50892  -0.50817  -0.50467  -0.50459
 Alpha  occ. eigenvalues --   -0.50140  -0.50049  -0.49826  -0.49645  -0.49520
 Alpha  occ. eigenvalues --   -0.49412  -0.49306  -0.49297  -0.49082  -0.48990
 Alpha  occ. eigenvalues --   -0.48868  -0.48681  -0.48489  -0.48336  -0.48092
 Alpha  occ. eigenvalues --   -0.48089  -0.48039  -0.47515  -0.47371  -0.47126
 Alpha  occ. eigenvalues --   -0.46862  -0.46591  -0.46347  -0.46291  -0.46165
 Alpha  occ. eigenvalues --   -0.46135  -0.46060  -0.45967  -0.45716  -0.45580
 Alpha  occ. eigenvalues --   -0.45426  -0.45339  -0.45190  -0.45144  -0.44841
 Alpha  occ. eigenvalues --   -0.44633  -0.44440  -0.44307  -0.44162  -0.44154
 Alpha  occ. eigenvalues --   -0.43976  -0.43855  -0.43559  -0.43452  -0.43294
 Alpha  occ. eigenvalues --   -0.43107  -0.43063  -0.43055  -0.42878  -0.42576
 Alpha  occ. eigenvalues --   -0.42535  -0.42404  -0.42327  -0.42135  -0.42084
 Alpha  occ. eigenvalues --   -0.41967  -0.41728  -0.41593  -0.41498  -0.41269
 Alpha  occ. eigenvalues --   -0.41077  -0.40894  -0.40867  -0.40718  -0.40373
 Alpha  occ. eigenvalues --   -0.40316  -0.40170  -0.40033  -0.39209  -0.39059
 Alpha  occ. eigenvalues --   -0.38966  -0.38482  -0.38205  -0.37988  -0.37971
 Alpha  occ. eigenvalues --   -0.37463  -0.37141  -0.36684  -0.36635  -0.36524
 Alpha  occ. eigenvalues --   -0.36257  -0.35876  -0.34844  -0.34710  -0.34519
 Alpha  occ. eigenvalues --   -0.34128  -0.33481  -0.33160  -0.31405  -0.31298
 Alpha  occ. eigenvalues --   -0.31211  -0.30944  -0.30914  -0.30498  -0.30473
 Alpha  occ. eigenvalues --   -0.30146  -0.30013  -0.29651  -0.24391  -0.23968
 Alpha  occ. eigenvalues --   -0.20993  -0.20411
 Alpha virt. eigenvalues --   -0.08317  -0.07870  -0.02225  -0.02122  -0.00194
 Alpha virt. eigenvalues --    0.00501   0.01831   0.02186   0.02742   0.03276
 Alpha virt. eigenvalues --    0.04204   0.04507   0.04973   0.05016   0.05878

 Mulliken charges:
               1
     1  Mg   0.819019
     2  C   -0.027517
     3  C   -0.090341
     4  C   -0.046291
     5  C   -0.087354
     6  N   -0.261361
     7  C   -0.073437
     8  C   -0.067264
     9  C   -0.064298
    10  C    0.017945
    11  C    0.108029
    12  C    0.065010
    13  C   -0.081530
    14  H    0.029415
    15  N   -0.432459
    16  C    0.196329
    17  C   -0.155249
    18  C   -0.066226
    19  C    0.129226
    20  C    0.128364
    21  C    0.011629
    22  O   -0.165225
    23  C    0.046957
    24  N   -0.260866
    25  C    0.045580
    26  C   -0.043753
    27  C   -0.029951
    28  C    0.049933
    29  C    0.066779
    30  C    0.022701
    31  C    0.021381
    32  N   -0.342428
    33  C    0.111609
    34  C   -0.193840
    35  C    0.033658
    36  C    0.152500
    37  C    0.142366
    38  C    0.016942
    39  O   -0.185133
    40  C    0.043550
    41  C    0.222880
    42  O   -0.216010
    43  O   -0.330691
    44  C    0.180771
    45  H   -0.024266
    46  H   -0.052567
    47  H   -0.027313
    48  H   -0.005470
    49  H   -0.002404
    50  H    0.020554
    51  H    0.016881
    52  H    0.032964
    53  H    0.008333
    54  H    0.031382
    55  H    0.028586
    56  H    0.035480
    57  H    0.032223
    58  H   -0.009169
    59  H    0.027806
    60  H    0.050346
    61  H    0.014670
    62  H    0.046897
    63  H    0.006558
    64  H    0.001276
    65  H    0.023828
    66  H    0.019666
    67  H    0.008311
    68  H    0.019324
    69  H   -0.007799
    70  H    0.021960
    71  H    0.005689
    72  H    0.020198
    73  H    0.016092
    74  H    0.034083
    75  H    0.041593
    76  H    0.030825
    77  H    0.024040
    78  H    0.031517
    79  H    0.036556
    80  Mg   0.842068
    81  C   -0.020556
    82  C   -0.090084
    83  C   -0.079643
    84  C   -0.078354
    85  N   -0.250695
    86  C   -0.044716
    87  C   -0.012990
    88  C   -0.082138
    89  C   -0.014507
    90  C    0.091553
    91  C    0.015915
    92  C   -0.044484
    93  H    0.032165
    94  N   -0.411431
    95  C    0.200970
    96  C   -0.144015
    97  C   -0.033967
    98  C    0.153126
    99  C    0.122198
   100  C   -0.007215
   101  O   -0.241935
   102  C    0.080565
   103  N   -0.275394
   104  C    0.019550
   105  C   -0.035724
   106  C    0.002839
   107  C    0.012056
   108  C    0.060817
   109  C    0.002625
   110  C    0.023779
   111  N   -0.368239
   112  C    0.111841
   113  C   -0.177372
   114  C    0.032713
   115  C    0.112099
   116  C    0.110963
   117  C    0.072022
   118  O   -0.179420
   119  C   -0.071612
   120  C    0.225330
   121  O   -0.190684
   122  O   -0.375623
   123  C    0.183806
   124  H   -0.034863
   125  H   -0.005896
   126  H   -0.023960
   127  H    0.008539
   128  H    0.003671
   129  H    0.006439
   130  H    0.036716
   131  H    0.014643
   132  H    0.016672
   133  H    0.015054
   134  H    0.036668
   135  H    0.035930
   136  H    0.032159
   137  H    0.035687
   138  H    0.012024
   139  H    0.044592
   140  H    0.019935
   141  H    0.028094
   142  H    0.024688
   143  H    0.018538
   144  H    0.031731
   145  H    0.016260
   146  H    0.027660
   147  H    0.011362
   148  H   -0.004944
   149  H    0.019968
   150  H    0.018632
   151  H    0.014664
   152  H    0.037879
   153  H    0.005621
   154  H    0.037477
   155  H    0.063010
   156  H    0.049893
   157  H    0.033272
   158  H    0.033979
 Sum of Mulliken charges =  -0.00000

 Dipole moment (field-independent basis, Debye):
    X=              1.4699    Y=             -2.2710    Z=             -1.5393  Tot=              3.1125
 Quadrupole moment (field-independent basis, Debye-Ang):
   XX=           -226.1962   YY=           -456.6758   ZZ=           -513.6639
   XY=           -115.3736   XZ=             19.1912   YZ=            -21.2470

 Normal termination of Gaussian 16 at Fri Sep  3 01:19:54 2021.
