 Gaussian 16, Revision A.03,
 Gaussian 16:  ES64L-G16RevA.03 25-Dec-2016

 -----------------------------------
 #p cam-b3lyp/Def2SVP td=(nstates=5)
 -----------------------------------

 --------------------------------
 TDDFT excited states in gaussian
 --------------------------------
 Symbolic Z-matrix:
 Charge =  0 Multiplicity = 1

                         Standard orientation:
 ---------------------------------------------------------------------
 Center     Atomic      Atomic             Coordinates (Angstroms)
 Number     Number       Type             X           Y           Z
 ---------------------------------------------------------------------
      1         12           0      -18.468001    0.395862    0.392031
      2          6           0      -15.650373   -0.729611   -1.108302
      3          6           0      -19.990336   -2.676667   -0.161872
      4          6           0      -21.288178    1.523939    1.887193
      5          6           0      -17.135175    3.588701    0.503379
      6          7           0      -17.807990   -1.432895   -0.416417
      7          6           0      -16.623576   -1.705391   -1.019986
      8          6           0      -16.458849   -3.170556   -1.329110
      9          6           0      -17.936489   -3.716071   -1.279068
     10          6           0      -18.628354   -2.527128   -0.535094
     11          6           0      -18.660708   -4.191811   -2.607201
     12          6           0      -15.566149   -3.909704   -0.233436
     13          6           0      -14.889274   -5.198522   -0.786269
     14          1           0      -15.505229   -6.008954   -1.939068
     15          7           0      -20.444429   -0.408565    0.759468
     16          6           0      -20.832866   -1.736217    0.440637
     17          6           0      -22.180869   -1.954483    0.871385
     18          6           0      -22.605718   -0.716164    1.472236
     19          6           0      -21.397754    0.180556    1.390852
     20          6           0      -22.901703   -3.253435    0.777305
     21          6           0      -23.948671   -0.356618    2.098002
     22          8           0      -24.289522    0.792696    2.505041
     23          6           0      -25.011264   -1.431856    2.249526
     24          7           0      -19.152217    2.283208    1.031460
     25          6           0      -20.297692    2.477342    1.805005
     26          6           0      -20.359892    3.847963    2.539034
     27          6           0      -18.920632    4.450038    2.065943
     28          6           0      -18.339401    3.407868    1.182343
     29          6           0      -21.575553    4.633573    2.030676
     30          6           0      -18.028070    4.877553    3.193548
     31          6           0      -17.583291    6.308862    3.096155
     32          7           0      -16.875262    1.348544   -0.229227
     33          6           0      -16.398307    2.648414   -0.114666
     34          6           0      -15.120952    2.754728   -0.716337
     35          6           0      -14.759102    1.462326   -1.182611
     36          6           0      -15.803928    0.606325   -0.775008
     37          6           0      -14.239916    3.938702   -0.834223
     38          6           0      -13.790472    0.712790   -1.952276
     39          8           0      -12.770411    0.987634   -2.553439
     40          6           0      -14.349240   -0.784711   -1.843649
     41          6           0      -14.204140   -1.536781   -3.117434
     42          8           0      -14.442724   -1.128408   -4.225190
     43          8           0      -13.721594   -2.777817   -2.949542
     44          6           0      -13.580170   -3.559830   -4.210680
     45          1           0      -20.425391   -3.605530   -0.536902
     46          1           0      -22.244671    1.910862    2.244543
     47          1           0      -16.598324    4.534690    0.599301
     48          1           0      -16.144870   -3.346338   -2.357865
     49          1           0      -17.970667   -4.541721   -0.568994
     50          1           0      -17.922632   -4.153020   -3.408435
     51          1           0      -19.551625   -3.649326   -2.919558
     52          1           0      -19.015308   -5.205335   -2.418819
     53          1           0      -16.256985   -4.101420    0.587782
     54          1           0      -14.799205   -3.203747    0.085426
     55          1           0      -14.819270   -5.820887    0.106030
     56          1           0      -13.856495   -4.927374   -1.003637
     57          1           0      -22.689525   -3.972490    1.568596
     58          1           0      -22.650415   -3.649518   -0.205803
     59          1           0      -23.976493   -3.138639    0.639944
     60          1           0      -25.518447   -1.486143    1.286360
     61          1           0      -25.698947   -1.039837    2.998466
     62          1           0      -24.615167   -2.416675    2.497825
     63          1           0      -20.519622    3.616482    3.592195
     64          1           0      -19.102047    5.344015    1.468335
     65          1           0      -22.096414    4.204130    1.174628
     66          1           0      -21.290053    5.676840    1.897922
     67          1           0      -22.315902    4.579867    2.829385
     68          1           0      -17.090732    4.322584    3.234532
     69          1           0      -18.454277    4.742929    4.187773
     70          1           0      -17.714734    6.862251    4.025546
     71          1           0      -18.140271    6.846500    2.329270
     72          1           0      -16.560565    6.243259    2.723742
     73          1           0      -14.741789    4.903654   -0.911551
     74          1           0      -13.858498    3.861409   -1.852789
     75          1           0      -13.503674    3.936981   -0.030382
     76          1           0      -13.584451   -1.153549   -1.159541
     77          1           0      -12.698899   -3.262756   -4.780971
     78          1           0      -14.508025   -3.582947   -4.782459
     79          1           0      -13.415344   -4.604082   -3.944088
     80         12           0       18.974174   -0.258763   -0.111448
     81          6           0       15.436028   -0.680733   -0.282195
     82          6           0       18.530643    2.473927   -1.941113
     83          6           0       22.055703    0.782332    0.806049
     84          6           0       18.867709   -2.618935    2.556595
     85          7           0       17.269834    0.670856   -1.072010
     86          6           0       15.907962    0.299956   -1.099388
     87          6           0       15.026451    1.264241   -1.954049
     88          6           0       16.101078    2.239080   -2.513395
     89          6           0       17.413045    1.725588   -1.883293
     90          6           0       16.002917    2.202644   -4.047590
     91          6           0       13.844473    2.030746   -1.217679
     92          6           0       12.425143    1.672905   -1.643091
     93          1           0       11.518616    2.821984   -2.129606
     94          7           0       20.167465    1.304350   -0.557467
     95          6           0       19.774089    2.373169   -1.362540
     96          6           0       20.859160    3.236308   -1.601835
     97          6           0       21.966385    2.722922   -0.951995
     98          6           0       21.470775    1.593645   -0.191420
     99          6           0       20.904765    4.544462   -2.475641
    100          6           0       23.341680    3.339414   -1.055878
    101          8           0       23.620633    4.240790   -1.789269
    102          6           0       24.492147    2.608654   -0.203762
    103          7           0       20.262400   -0.774117    1.498212
    104          6           0       21.504659   -0.213599    1.619355
    105          6           0       22.129389   -0.763897    2.966273
    106          6           0       21.226134   -1.906777    3.458996
    107          6           0       20.017035   -1.764173    2.457827
    108          6           0       23.599670   -1.066329    2.904659
    109          6           0       20.747946   -1.602556    4.873293
    110          6           0       20.310720   -2.768042    5.720322
    111          7           0       17.518661   -1.615634    0.784419
    112          6           0       17.642182   -2.510855    1.820052
    113          6           0       16.422542   -3.207023    2.014820
    114          6           0       15.470389   -2.600464    1.161762
    115          6           0       16.196442   -1.552376    0.528725
    116          6           0       16.128320   -4.241733    3.025544
    117          6           0       14.085317   -2.518379    0.678806
    118          8           0       13.127692   -3.254576    0.951734
    119          6           0       13.990547   -1.287186   -0.301925
    120          6           0       13.776972   -1.766556   -1.641423
    121          8           0       14.708225   -2.287941   -2.299374
    122          8           0       12.474502   -1.579096   -1.931712
    123          6           0       12.016089   -1.808289   -3.329333
    124          1           0       18.427899    3.358861   -2.573162
    125          1           0       23.074497    1.106882    1.028339
    126          1           0       18.804372   -3.435717    3.278160
    127          1           0       14.577314    0.714806   -2.781334
    128          1           0       15.975676    3.266718   -2.173668
    129          1           0       16.860085    2.756063   -4.430023
    130          1           0       15.101572    2.638786   -4.478030
    131          1           0       16.050536    1.187242   -4.442627
    132          1           0       13.954415    3.061263   -1.555456
    133          1           0       13.971223    1.964362   -0.137057
    134          1           0       11.953007    1.167869   -0.799704
    135          1           0       12.468426    0.979624   -2.483824
    136          1           0       21.305778    5.318956   -1.821526
    137          1           0       19.913883    4.839800   -2.820299
    138          1           0       21.441298    4.466637   -3.421214
    139          1           0       25.421825    3.102853   -0.484252
    140          1           0       24.409864    1.570198   -0.525484
    141          1           0       24.156957    2.782637    0.818680
    142          1           0       22.032194    0.083069    3.646381
    143          1           0       21.654179   -2.909160    3.455587
    144          1           0       23.812795   -1.869743    3.609258
    145          1           0       24.105376   -0.139971    3.177826
    146          1           0       23.976099   -1.273482    1.903596
    147          1           0       19.941841   -0.868941    4.904054
    148          1           0       21.497923   -1.065772    5.454203
    149          1           0       20.571992   -3.731889    5.283852
    150          1           0       19.227014   -2.713226    5.825641
    151          1           0       20.643839   -2.642727    6.750532
    152          1           0       17.021314   -4.805583    3.297094
    153          1           0       15.389744   -4.897178    2.563389
    154          1           0       15.776776   -3.696929    3.902033
    155          1           0       13.291089   -0.510166    0.006490
    156          1           0       11.009216   -2.182379   -3.138303
    157          1           0       12.645952   -2.492927   -3.896588
    158          1           0       11.808015   -0.867958   -3.840921
 ---------------------------------------------------------------------

 SCF Done:  E(RCAM-B3LYP) =  -4069.81316790     A.U. after   18 cycles

 Excitation energies and oscillator strengths:

 Excited State   1:      Singlet-A      1.6462 eV  753.17 nm  f=0.3966  <S**2>=0.000
     309 -> 316       -0.17000
     312 -> 313        0.68912
     309 <- 316       -0.10749
 This state for optimization and/or second-order correction.
 Total Energy, E(TD-HF/TD-DFT) =  -4069.75267281
 Copying the excited state density for this state as the 1-particle RhoCI density.

 Excited State   2:      Singlet-A      1.7225 eV  719.77 nm  f=0.3834  <S**2>=0.000
     310 -> 315       -0.17108
     311 -> 314        0.68746
     310 <- 315       -0.10385

 Excited State   3:      Singlet-A      2.2270 eV  556.73 nm  f=0.1141  <S**2>=0.000
     309 -> 313        0.63821
     312 -> 316        0.29156

 Excited State   4:      Singlet-A      2.2584 eV  549.00 nm  f=0.1170  <S**2>=0.000
     310 -> 314        0.63724
     311 -> 315        0.28972

 Excited State   5:      Singlet-A      3.0883 eV  401.47 nm  f=0.0000  <S**2>=0.000
     311 -> 313        0.70709

 The electronic state is 1-A.
 Alpha  occ. eigenvalues --  -46.88498 -46.87138 -19.26487 -19.25156 -19.19653
 Alpha  occ. eigenvalues --  -19.19622 -19.19214 -19.18750 -19.18720 -19.18485
 Alpha  occ. eigenvalues --  -14.42843 -14.42520 -14.42170 -14.41675 -14.39515
 Alpha  occ. eigenvalues --  -14.39494 -14.38748 -14.38456 -10.39490 -10.38581
 Alpha  occ. eigenvalues --  -10.35466 -10.35376 -10.35214 -10.35136 -10.32819
 Alpha  occ. eigenvalues --  -10.32032 -10.31626 -10.31483 -10.31344 -10.30978
 Alpha  occ. eigenvalues --  -10.30941 -10.30719 -10.30585 -10.30472 -10.30463
 Alpha  occ. eigenvalues --  -10.30103 -10.29844 -10.29604 -10.29329 -10.28985
 Alpha  occ. eigenvalues --  -10.28937 -10.28844 -10.28734 -10.28674 -10.28321
 Alpha  occ. eigenvalues --  -10.28236 -10.28200 -10.28134 -10.28120 -10.28020
 Alpha  occ. eigenvalues --  -10.28010 -10.27939 -10.27856 -10.27843 -10.27786
 Alpha  occ. eigenvalues --  -10.27768 -10.27642 -10.27610 -10.27524 -10.27504
 Alpha  occ. eigenvalues --  -10.27465 -10.27301 -10.27190 -10.27171 -10.27088
 Alpha  occ. eigenvalues --  -10.27076 -10.26909 -10.26825 -10.26802 -10.26422
 Alpha  occ. eigenvalues --  -10.26349 -10.26243 -10.25988 -10.25986 -10.25835
 Alpha  occ. eigenvalues --  -10.25831 -10.25749 -10.25747 -10.25596 -10.25467
 Alpha  occ. eigenvalues --  -10.25427 -10.25373 -10.25228 -10.25160 -10.25112
 Alpha  occ. eigenvalues --  -10.24823  -3.17096  -3.15996  -1.91973  -1.91532
 Alpha  occ. eigenvalues --   -1.91423  -1.90887  -1.90431  -1.90342  -1.17297
 Alpha  occ. eigenvalues --   -1.16625  -1.11970  -1.10130  -1.08652  -1.07399
 Alpha  occ. eigenvalues --   -1.07379  -1.07246  -1.04515  -1.04104  -1.03560
 Alpha  occ. eigenvalues --   -1.03167  -1.02823  -1.02708  -1.01734  -1.01401
 Alpha  occ. eigenvalues --   -0.93364  -0.92198  -0.89708  -0.89657  -0.89329
 Alpha  occ. eigenvalues --   -0.88801  -0.88697  -0.88576  -0.87671  -0.87320
 Alpha  occ. eigenvalues --   -0.87216  -0.86632  -0.86494  -0.86407  -0.84802
 Alpha  occ. eigenvalues --   -0.84323  -0.84224  -0.83809  -0.83281  -0.82470
 Alpha  occ. eigenvalues --   -0.81897  -0.81651  -0.81121  -0.81048  -0.80499
 Alpha  occ. eigenvalues --   -0.80300  -0.78351  -0.77771  -0.77717  -0.77364
 Alpha  occ. eigenvalues --   -0.77350  -0.76669  -0.76521  -0.76241  -0.75210
 Alpha  occ. eigenvalues --   -0.75117  -0.72877  -0.72740  -0.71841  -0.71710
 Alpha  occ. eigenvalues --   -0.69242  -0.69084  -0.68682  -0.68608  -0.68182
 Alpha  occ. eigenvalues --   -0.67739  -0.67229  -0.66694  -0.65854  -0.65683
 Alpha  occ. eigenvalues --   -0.65592  -0.65348  -0.64984  -0.64769  -0.64545
 Alpha  occ. eigenvalues --   -0.64071  -0.62330  -0.62223  -0.60316  -0.60134
 Alpha  occ. eigenvalues --   -0.59926  -0.59619  -0.59415  -0.58961  -0.58503
 Alpha  occ. eigenvalues --   -0.58367  -0.58200  -0.57993  -0.57704  -0.57134
 Alpha  occ. eigenvalues --   -0.56397  -0.56082  -0.56030  -0.55492  -0.55179
 Alpha  occ. eigenvalues --   -0.54970  -0.54961  -0.54674  -0.54266  -0.53937
 Alpha  occ. eigenvalues --   -0.53799  -0.53336  -0.53153  -0.52993  -0.52885
 Alpha  occ. eigenvalues --   -0.52863  -0.52547  -0.52462  -0.52427  -0.52392
 Alpha  occ. eigenvalues --   -0.52140  -0.51969  -0.51669  -0.51460  -0.51304
 Alpha  occ. eigenvalues --   -0.51222  -0.51144  -0.50570  -0.50333  -0.50307
 Alpha  occ. eigenvalues --   -0.50143  -0.50092  -0.49973  -0.49952  -0.49850
 Alpha  occ. eigenvalues --   -0.49604  -0.49163  -0.48999  -0.48907  -0.48868
 Alpha  occ. eigenvalues --   -0.48416  -0.48380  -0.48246  -0.48218  -0.48045
 Alpha  occ. eigenvalues --   -0.47990  -0.47759  -0.47509  -0.47470  -0.47316
 Alpha  occ. eigenvalues --   -0.47208  -0.46945  -0.46702  -0.46594  -0.46404
 Alpha  occ. eigenvalues --   -0.46350  -0.46280  -0.46073  -0.45914  -0.45598
 Alpha  occ. eigenvalues --   -0.45291  -0.45188  -0.45136  -0.44908  -0.44904
 Alpha  occ. eigenvalues --   -0.44766  -0.44719  -0.44539  -0.44301  -0.44111
 Alpha  occ. eigenvalues --   -0.44044  -0.43884  -0.43702  -0.43504  -0.43450
 Alpha  occ. eigenvalues --   -0.43279  -0.43272  -0.43168  -0.43071  -0.42783
 Alpha  occ. eigenvalues --   -0.42545  -0.42402  -0.42340  -0.42293  -0.42036
 Alpha  occ. eigenvalues --   -0.41943  -0.41921  -0.41643  -0.41625  -0.41405
 Alpha  occ. eigenvalues --   -0.40973  -0.40884  -0.40570  -0.40488  -0.40425
 Alpha  occ. eigenvalues --   -0.40381  -0.40203  -0.40100  -0.40043  -0.39143
 Alpha  occ. eigenvalues --   -0.38368  -0.38241  -0.38214  -0.37962  -0.37611
 Alpha  occ. eigenvalues --   -0.37590  -0.37198  -0.37189  -0.37023  -0.36687
 Alpha  occ. eigenvalues --   -0.36606  -0.35983  -0.34588  -0.34321  -0.34153
 Alpha  occ. eigenvalues --   -0.34126  -0.33335  -0.32919  -0.31777  -0.31528
 Alpha  occ. eigenvalues --   -0.30881  -0.30742  -0.30726  -0.30705  -0.30541
 Alpha  occ. eigenvalues --   -0.29941  -0.29569  -0.28916  -0.24307  -0.24258
 Alpha  occ. eigenvalues --   -0.21239  -0.21028
 Alpha virt. eigenvalues --   -0.08957  -0.08740  -0.01686  -0.01611   0.00119
 Alpha virt. eigenvalues --    0.00583   0.02172   0.02196   0.02750   0.03170
 Alpha virt. eigenvalues --    0.04575   0.04769   0.04779   0.05475   0.05656

 Mulliken charges:
               1
     1  Mg   0.841737
     2  C    0.034518
     3  C   -0.092951
     4  C   -0.054395
     5  C   -0.125465
     6  N   -0.303473
     7  C   -0.052251
     8  C    0.000512
     9  C   -0.079176
    10  C    0.037463
    11  C    0.069881
    12  C    0.044548
    13  C   -0.036887
    14  H    0.029746
    15  N   -0.308342
    16  C    0.155174
    17  C   -0.140375
    18  C   -0.029037
    19  C    0.069295
    20  C    0.113466
    21  C    0.008028
    22  O   -0.244611
    23  C    0.041254
    24  N   -0.321002
    25  C    0.036078
    26  C   -0.042176
    27  C    0.024934
    28  C    0.084829
    29  C    0.056678
    30  C    0.036915
    31  C   -0.008388
    32  N   -0.439376
    33  C    0.179114
    34  C   -0.175173
    35  C   -0.013991
    36  C    0.109949
    37  C    0.115584
    38  C    0.073216
    39  O   -0.144989
    40  C   -0.038061
    41  C    0.155654
    42  O   -0.198875
    43  O   -0.329022
    44  C    0.182742
    45  H   -0.027425
    46  H   -0.007719
    47  H   -0.042443
    48  H    0.003901
    49  H    0.010827
    50  H    0.020588
    51  H    0.027084
    52  H    0.015798
    53  H    0.012905
    54  H    0.017213
    55  H    0.020582
    56  H    0.038068
    57  H    0.049725
    58  H    0.012643
    59  H    0.009433
    60  H    0.044192
    61  H    0.032981
    62  H    0.028646
    63  H    0.029416
    64  H    0.012674
    65  H    0.039365
    66  H    0.014840
    67  H    0.019118
    68  H    0.008626
    69  H    0.002710
    70  H    0.020678
    71  H    0.002371
    72  H    0.017154
    73  H    0.004799
    74  H    0.038530
    75  H    0.044850
    76  H    0.038611
    77  H    0.051882
    78  H    0.041592
    79  H    0.022485
    80  Mg   0.849614
    81  C   -0.035879
    82  C   -0.127545
    83  C   -0.088529
    84  C   -0.059191
    85  N   -0.306899
    86  C   -0.024888
    87  C   -0.013029
    88  C   -0.067184
    89  C    0.093621
    90  C    0.060682
    91  C    0.056361
    92  C   -0.082614
    93  H    0.016396
    94  N   -0.421929
    95  C    0.201558
    96  C   -0.158741
    97  C   -0.012285
    98  C    0.124737
    99  C    0.150603
   100  C   -0.039993
   101  O   -0.163484
   102  C    0.032929
   103  N   -0.321052
   104  C    0.081243
   105  C   -0.032046
   106  C   -0.024575
   107  C    0.083678
   108  C    0.078938
   109  C   -0.005211
   110  C    0.032845
   111  N   -0.303148
   112  C    0.079964
   113  C   -0.204871
   114  C    0.040295
   115  C    0.083707
   116  C    0.124732
   117  C    0.054360
   118  O   -0.186647
   119  C   -0.001665
   120  C    0.227744
   121  O   -0.252806
   122  O   -0.319988
   123  C    0.163744
   124  H   -0.038992
   125  H   -0.061755
   126  H   -0.037228
   127  H    0.007733
   128  H    0.019323
   129  H    0.005371
   130  H    0.019965
   131  H    0.021149
   132  H    0.017069
   133  H    0.023268
   134  H    0.047050
   135  H    0.015748
   136  H    0.039271
   137  H   -0.011692
   138  H    0.038976
   139  H    0.030942
   140  H    0.046613
   141  H    0.048725
   142  H    0.020541
   143  H    0.012670
   144  H    0.018321
   145  H    0.010014
   146  H    0.016836
   147  H    0.005635
   148  H   -0.002449
   149  H    0.015917
   150  H    0.008831
   151  H    0.008702
   152  H    0.009129
   153  H    0.043166
   154  H    0.037448
   155  H    0.028217
   156  H    0.043920
   157  H    0.067930
   158  H    0.040082
 Sum of Mulliken charges =  -0.00000

 Dipole moment (field-independent basis, Debye):
    X=             -0.1788    Y=             -2.4349    Z=              2.8892  Tot=              3.7827
 Quadrupole moment (field-independent basis, Debye-Ang):
   XX=           -469.9187   YY=           -490.5813   ZZ=           -503.0368
   XY=             69.9737   XZ=              6.0731   YZ=             14.3836

 Normal termination of Gaussian 16 at Wed Sep 15 21:29:57 2021.
