 Gaussian 16, Revision A.03,
 Gaussian 16:  ES64L-G16RevA.03 25-Dec-2016

 -----------------------------------
 #p cam-b3lyp/Def2SVP td=(nstates=5)
 -----------------------------------

 --------------------------------
 TDDFT excited states in gaussian
 --------------------------------
 Symbolic Z-matrix:
 Charge =  0 Multiplicity = 1

                         Standard orientation:
 ---------------------------------------------------------------------
 Center     Atomic      Atomic             Coordinates (Angstroms)
 Number     Number       Type             X           Y           Z
 ---------------------------------------------------------------------
      1         12           0        4.898852    0.733732    0.130055
      2          6           0        3.050264   -2.210860    0.994303
      3          6           0        7.650861   -1.415397   -0.371205
      4          6           0        6.897730    3.321214    0.013494
      5          6           0        2.215098    2.623869    1.017364
      6          7           0        5.251063   -1.549747    0.252911
      7          6           0        4.295250   -2.472010    0.519647
      8          6           0        4.873624   -3.855561    0.272447
      9          6           0        6.345542   -3.683819   -0.197789
     10          6           0        6.434516   -2.146601   -0.140989
     11          6           0        7.426667   -4.479466    0.729657
     12          6           0        4.056680   -4.678522   -0.813447
     13          6           0        3.691951   -6.118020   -0.449082
     14          1           0        4.649882   -6.999082    0.449217
     15          7           0        7.016495    0.923625   -0.091874
     16          6           0        7.895690   -0.033124   -0.301667
     17          6           0        9.185423    0.587401   -0.415623
     18          6           0        9.040917    1.997176   -0.463300
     19          6           0        7.643957    2.130010   -0.142376
     20          6           0       10.449180   -0.194313   -0.770589
     21          6           0        9.963848    3.148788   -0.829871
     22          8           0        9.636323    4.317240   -0.732579
     23          6           0       11.307331    2.767319   -1.387971
     24          7           0        4.658654    2.648862    0.816688
     25          6           0        5.604924    3.608518    0.452368
     26          6           0        5.057925    5.060232    0.521809
     27          6           0        3.523931    4.741956    0.685881
     28          6           0        3.440515    3.224486    0.850359
     29          6           0        5.710565    5.836397    1.674886
     30          6           0        2.648295    5.130795   -0.597607
     31          6           0        1.775988    6.338975   -0.524211
     32          7           0        3.014670    0.336878    0.734785
     33          6           0        2.030066    1.231608    1.094446
     34          6           0        0.838237    0.577866    1.628691
     35          6           0        1.190500   -0.818777    1.606854
     36          6           0        2.538423   -0.892145    1.183060
     37          6           0       -0.452484    1.269546    1.880799
     38          6           0        0.697856   -2.173839    1.800884
     39          8           0       -0.447703   -2.513657    2.148796
     40          6           0        1.931274   -3.178119    1.430068
     41          6           0        2.210474   -3.895309    2.664099
     42          8           0        2.481555   -3.351440    3.712272
     43          8           0        2.141191   -5.220153    2.488153
     44          6           0        2.329660   -6.186806    3.615013
     45          1           0        8.515421   -2.037610   -0.611344
     46          1           0        7.358483    4.218196   -0.407091
     47          1           0        1.354427    3.267422    1.209716
     48          1           0        4.876528   -4.375136    1.230653
     49          1           0        6.516376   -4.133238   -1.176169
     50          1           0        6.949502   -5.301438    1.263388
     51          1           0        7.826318   -3.720204    1.402393
     52          1           0        8.238168   -4.855072    0.106584
     53          1           0        4.496878   -4.693607   -1.809553
     54          1           0        3.091393   -4.198268   -0.973238
     55          1           0        3.489261   -6.717872   -1.336574
     56          1           0        2.719820   -6.002394    0.030194
     57          1           0       10.704983   -0.172449   -1.830053
     58          1           0       10.425686   -1.204453   -0.360618
     59          1           0       11.259229    0.278293   -0.215564
     60          1           0       11.299240    1.932906   -2.089898
     61          1           0       12.055413    2.506097   -0.640786
     62          1           0       11.640867    3.551143   -2.068077
     63          1           0        5.300588    5.542233   -0.424841
     64          1           0        3.160130    5.294131    1.552498
     65          1           0        6.561906    5.333517    2.133405
     66          1           0        5.011228    6.003973    2.493246
     67          1           0        6.032167    6.813185    1.312077
     68          1           0        1.955293    4.357907   -0.929965
     69          1           0        3.251355    5.241074   -1.498108
     70          1           0        2.108361    7.087401   -1.242442
     71          1           0        1.919512    6.680747    0.500991
     72          1           0        0.742487    6.078143   -0.751921
     73          1           0       -1.299924    0.620291    1.663405
     74          1           0       -0.409304    2.205785    1.324605
     75          1           0       -0.472165    1.511378    2.944331
     76          1           0        1.651787   -3.893198    0.657515
     77          1           0        1.693563   -5.895297    4.450985
     78          1           0        3.358537   -6.216730    3.974487
     79          1           0        2.194305   -7.228662    3.325955
     80         12           0       -5.131047    0.577226   -0.229272
     81          6           0       -2.744864   -1.860458   -1.172863
     82          6           0       -7.411344   -1.896486    0.035792
     83          6           0       -7.328073    2.891150    0.503625
     84          6           0       -2.770326    3.060567   -1.291278
     85          7           0       -5.134673   -1.667745   -0.634229
     86          6           0       -3.973776   -2.413050   -0.755112
     87          6           0       -4.349449   -3.837386   -0.527188
     88          6           0       -5.867158   -3.874218   -0.708904
     89          6           0       -6.215054   -2.396968   -0.397776
     90          6           0       -6.247495   -4.232624   -2.194364
     91          6           0       -3.901201   -4.493877    0.887266
     92          6           0       -3.321647   -5.940694    0.939181
     93          1           0       -4.126844   -7.045033    0.195170
     94          7           0       -7.131254    0.467337    0.199851
     95          6           0       -7.846134   -0.616638    0.270718
     96          6           0       -9.234638   -0.234191    0.580687
     97          6           0       -9.222152    1.147078    0.942193
     98          6           0       -7.857376    1.579511    0.527418
     99          6           0      -10.523719   -1.133990    0.586871
    100          6           0      -10.288956    2.043926    1.569453
    101          8           0      -10.169973    3.274877    1.720321
    102          6           0      -11.604740    1.477712    1.823568
    103          7           0       -5.076777    2.732706   -0.555756
    104          6           0       -6.126126    3.484667   -0.034027
    105          6           0       -5.712921    5.007003   -0.035457
    106          6           0       -4.228398    4.971990   -0.476522
    107          6           0       -3.977603    3.489314   -0.760558
    108          6           0       -6.666053    5.884199   -0.847640
    109          6           0       -3.215271    5.654389    0.476750
    110          6           0       -2.062355    6.466148   -0.158536
    111          7           0       -3.176611    0.648718   -1.073900
    112          6           0       -2.372770    1.703064   -1.495670
    113          6           0       -1.076156    1.179850   -1.843520
    114          6           0       -1.198787   -0.209252   -1.786066
    115          6           0       -2.497368   -0.520382   -1.296668
    116          6           0        0.077891    1.915489   -2.155427
    117          6           0       -0.493021   -1.490302   -1.937072
    118          8           0        0.654978   -1.773932   -2.240442
    119          6           0       -1.485605   -2.621397   -1.511887
    120          6           0       -1.602516   -3.582027   -2.681829
    121          8           0       -2.271867   -3.587954   -3.690065
    122          8           0       -0.788979   -4.603557   -2.284597
    123          6           0       -0.899201   -5.893675   -3.006355
    124          1           0       -8.136922   -2.693949    0.211321
    125          1           0       -8.022099    3.606277    0.949995
    126          1           0       -1.971704    3.796318   -1.402662
    127          1           0       -3.929316   -4.560599   -1.226597
    128          1           0       -6.369939   -4.453053    0.065479
    129          1           0       -7.175057   -4.796188   -2.289171
    130          1           0       -5.538284   -4.911786   -2.668137
    131          1           0       -6.388077   -3.270542   -2.685858
    132          1           0       -4.707226   -4.374073    1.610444
    133          1           0       -3.134827   -3.871120    1.350219
    134          1           0       -3.412226   -6.184120    1.998405
    135          1           0       -2.313310   -5.785646    0.555285
    136          1           0      -10.957724   -1.321428    1.568754
    137          1           0      -10.247117   -2.084574    0.129957
    138          1           0      -11.392705   -0.704187    0.088570
    139          1           0      -11.530607    0.579440    2.437089
    140          1           0      -12.111260    1.239728    0.888121
    141          1           0      -12.124778    2.174559    2.480157
    142          1           0       -5.679406    5.307304    1.011931
    143          1           0       -4.118948    5.372318   -1.484234
    144          1           0       -6.320341    5.923186   -1.881154
    145          1           0       -6.689340    6.930351   -0.544149
    146          1           0       -7.615953    5.362973   -0.961771
    147          1           0       -2.792874    4.986797    1.227591
    148          1           0       -3.720760    6.349098    1.148886
    149          1           0       -1.218805    5.775709   -0.152925
    150          1           0       -1.854156    7.258696    0.560945
    151          1           0       -2.337872    6.788855   -1.162179
    152          1           0        0.874475    1.458333   -2.741988
    153          1           0        0.464505    2.303212   -1.212404
    154          1           0       -0.268158    2.739660   -2.778151
    155          1           0       -1.114818   -3.127530   -0.620759
    156          1           0       -0.883733   -6.648596   -2.220778
    157          1           0       -0.091861   -6.128732   -3.699468
    158          1           0       -1.856363   -5.949528   -3.524170
 ---------------------------------------------------------------------

 SCF Done:  E(RCAM-B3LYP) =  -4069.80812896     A.U. after   18 cycles

 Excitation energies and oscillator strengths:

 Excited State   1:      Singlet-A      1.6421 eV  755.02 nm  f=0.8578  <S**2>=0.000
     310 -> 316       -0.12331
     311 -> 313        0.60394
     312 -> 314        0.32845
 This state for optimization and/or second-order correction.
 Total Energy, E(TD-HF/TD-DFT) =  -4069.74778139
 Copying the excited state density for this state as the 1-particle RhoCI density.

 Excited State   2:      Singlet-A      1.7375 eV  713.57 nm  f=0.0813  <S**2>=0.000
     309 -> 315        0.14996
     311 -> 313       -0.30480
     311 -> 314       -0.11145
     312 -> 313       -0.14992
     312 -> 314        0.58019

 Excited State   3:      Singlet-A      2.1727 eV  570.65 nm  f=0.0767  <S**2>=0.000
     309 -> 313       -0.27249
     309 -> 314       -0.13595
     310 -> 313        0.56636
     311 -> 316        0.24013
     312 -> 313       -0.12039

 Excited State   4:      Singlet-A      2.2516 eV  550.65 nm  f=0.0727  <S**2>=0.000
     309 -> 313       -0.14946
     309 -> 314        0.41843
     310 -> 313        0.10351
     310 -> 314        0.25487
     312 -> 313        0.37855
     312 -> 315       -0.25468

 Excited State   5:      Singlet-A      2.2670 eV  546.90 nm  f=0.0171  <S**2>=0.000
     309 -> 314       -0.31202
     310 -> 314       -0.16942
     312 -> 313        0.56017
     312 -> 314        0.10607
     312 -> 315        0.17470

 The electronic state is 1-A.
 Alpha  occ. eigenvalues --  -46.89082 -46.88374 -19.25266 -19.24371 -19.19911
 Alpha  occ. eigenvalues --  -19.19404 -19.19399 -19.19036 -19.18725 -19.18503
 Alpha  occ. eigenvalues --  -14.41634 -14.41541 -14.41522 -14.41098 -14.39584
 Alpha  occ. eigenvalues --  -14.39137 -14.38901 -14.38731 -10.39086 -10.38461
 Alpha  occ. eigenvalues --  -10.35694 -10.35661 -10.35304 -10.34724 -10.32598
 Alpha  occ. eigenvalues --  -10.31504 -10.31486 -10.31126 -10.30618 -10.30506
 Alpha  occ. eigenvalues --  -10.30443 -10.30379 -10.30175 -10.29965 -10.29718
 Alpha  occ. eigenvalues --  -10.29708 -10.29520 -10.29412 -10.29340 -10.29210
 Alpha  occ. eigenvalues --  -10.29029 -10.28941 -10.28875 -10.28402 -10.28372
 Alpha  occ. eigenvalues --  -10.28054 -10.27942 -10.27900 -10.27895 -10.27867
 Alpha  occ. eigenvalues --  -10.27770 -10.27709 -10.27494 -10.27482 -10.27463
 Alpha  occ. eigenvalues --  -10.27436 -10.27241 -10.27225 -10.27142 -10.27127
 Alpha  occ. eigenvalues --  -10.26988 -10.26923 -10.26908 -10.26526 -10.26440
 Alpha  occ. eigenvalues --  -10.26436 -10.26409 -10.26379 -10.26318 -10.26263
 Alpha  occ. eigenvalues --  -10.26191 -10.26097 -10.26037 -10.25955 -10.25936
 Alpha  occ. eigenvalues --  -10.25916 -10.25847 -10.25770 -10.25519 -10.25432
 Alpha  occ. eigenvalues --  -10.25405 -10.25403 -10.25372 -10.25167 -10.24982
 Alpha  occ. eigenvalues --  -10.24595  -3.17472  -3.16996  -1.92368  -1.91928
 Alpha  occ. eigenvalues --   -1.91861  -1.91765  -1.91458  -1.91309  -1.16557
 Alpha  occ. eigenvalues --   -1.16047  -1.10720  -1.09562  -1.09145  -1.08772
 Alpha  occ. eigenvalues --   -1.07683  -1.07388  -1.04870  -1.04484  -1.03593
 Alpha  occ. eigenvalues --   -1.03322  -1.02900  -1.02839  -1.01839  -1.01658
 Alpha  occ. eigenvalues --   -0.92451  -0.91973  -0.88774  -0.88553  -0.88136
 Alpha  occ. eigenvalues --   -0.88120  -0.87703  -0.87646  -0.87310  -0.86935
 Alpha  occ. eigenvalues --   -0.86878  -0.86849  -0.86647  -0.86266  -0.84063
 Alpha  occ. eigenvalues --   -0.84033  -0.83901  -0.83495  -0.82489  -0.82311
 Alpha  occ. eigenvalues --   -0.82184  -0.81669  -0.81254  -0.81094  -0.80550
 Alpha  occ. eigenvalues --   -0.80337  -0.78176  -0.78125  -0.77602  -0.77340
 Alpha  occ. eigenvalues --   -0.76711  -0.76671  -0.76085  -0.75676  -0.74837
 Alpha  occ. eigenvalues --   -0.74682  -0.72336  -0.72267  -0.71573  -0.71247
 Alpha  occ. eigenvalues --   -0.68876  -0.68604  -0.68520  -0.67734  -0.67503
 Alpha  occ. eigenvalues --   -0.67456  -0.66748  -0.66602  -0.65472  -0.65355
 Alpha  occ. eigenvalues --   -0.65065  -0.64875  -0.64529  -0.64491  -0.64298
 Alpha  occ. eigenvalues --   -0.64045  -0.62360  -0.61807  -0.60377  -0.60255
 Alpha  occ. eigenvalues --   -0.59269  -0.59055  -0.58935  -0.58684  -0.58296
 Alpha  occ. eigenvalues --   -0.58126  -0.57957  -0.57711  -0.57345  -0.57225
 Alpha  occ. eigenvalues --   -0.55999  -0.55918  -0.55703  -0.55640  -0.55040
 Alpha  occ. eigenvalues --   -0.54996  -0.54404  -0.54301  -0.53651  -0.53436
 Alpha  occ. eigenvalues --   -0.53298  -0.53116  -0.53044  -0.52869  -0.52819
 Alpha  occ. eigenvalues --   -0.52763  -0.52672  -0.52530  -0.52484  -0.52111
 Alpha  occ. eigenvalues --   -0.51907  -0.51773  -0.51630  -0.51484  -0.51184
 Alpha  occ. eigenvalues --   -0.51111  -0.51013  -0.50772  -0.50422  -0.50352
 Alpha  occ. eigenvalues --   -0.50201  -0.49985  -0.49869  -0.49740  -0.49353
 Alpha  occ. eigenvalues --   -0.49249  -0.49134  -0.48959  -0.48780  -0.48605
 Alpha  occ. eigenvalues --   -0.48449  -0.48345  -0.48217  -0.48061  -0.47833
 Alpha  occ. eigenvalues --   -0.47638  -0.47555  -0.47270  -0.47104  -0.46951
 Alpha  occ. eigenvalues --   -0.46688  -0.46645  -0.46463  -0.46298  -0.46140
 Alpha  occ. eigenvalues --   -0.46041  -0.45862  -0.45763  -0.45644  -0.45319
 Alpha  occ. eigenvalues --   -0.45239  -0.44969  -0.44825  -0.44707  -0.44539
 Alpha  occ. eigenvalues --   -0.44456  -0.44258  -0.44021  -0.43761  -0.43721
 Alpha  occ. eigenvalues --   -0.43641  -0.43413  -0.43396  -0.43199  -0.42895
 Alpha  occ. eigenvalues --   -0.42855  -0.42727  -0.42635  -0.42566  -0.42415
 Alpha  occ. eigenvalues --   -0.42346  -0.42069  -0.41838  -0.41764  -0.41677
 Alpha  occ. eigenvalues --   -0.41405  -0.41274  -0.41221  -0.41079  -0.40861
 Alpha  occ. eigenvalues --   -0.40787  -0.40697  -0.40390  -0.40180  -0.40092
 Alpha  occ. eigenvalues --   -0.40042  -0.39645  -0.39515  -0.39217  -0.38924
 Alpha  occ. eigenvalues --   -0.38706  -0.38121  -0.37728  -0.37300  -0.36942
 Alpha  occ. eigenvalues --   -0.36797  -0.36468  -0.36418  -0.36060  -0.35951
 Alpha  occ. eigenvalues --   -0.35736  -0.35623  -0.34510  -0.34234  -0.33716
 Alpha  occ. eigenvalues --   -0.33643  -0.32883  -0.32809  -0.31565  -0.31462
 Alpha  occ. eigenvalues --   -0.31218  -0.30877  -0.30824  -0.30400  -0.30298
 Alpha  occ. eigenvalues --   -0.29941  -0.29301  -0.28986  -0.23730  -0.23580
 Alpha  occ. eigenvalues --   -0.20782  -0.20693
 Alpha virt. eigenvalues --   -0.08602  -0.08029  -0.01798  -0.00927   0.00045
 Alpha virt. eigenvalues --    0.00245   0.01963   0.02183   0.02299   0.02609
 Alpha virt. eigenvalues --    0.05032   0.05642   0.05800   0.05979   0.06071

 Mulliken charges:
               1
     1  Mg   0.833713
     2  C   -0.011740
     3  C   -0.080746
     4  C   -0.049325
     5  C   -0.095381
     6  N   -0.249516
     7  C   -0.025981
     8  C    0.002509
     9  C   -0.058148
    10  C    0.028976
    11  C    0.039232
    12  C    0.025212
    13  C   -0.057330
    14  H   -0.001906
    15  N   -0.302938
    16  C    0.146860
    17  C   -0.168873
    18  C   -0.020205
    19  C    0.094088
    20  C    0.100099
    21  C    0.033888
    22  O   -0.187218
    23  C    0.024051
    24  N   -0.332594
    25  C    0.000141
    26  C   -0.024750
    27  C   -0.003292
    28  C    0.078445
    29  C    0.078843
    30  C   -0.007491
    31  C    0.026269
    32  N   -0.394526
    33  C    0.142309
    34  C   -0.182941
    35  C    0.028980
    36  C    0.125215
    37  C    0.144153
    38  C    0.048929
    39  O   -0.206990
    40  C    0.011167
    41  C    0.181069
    42  O   -0.215872
    43  O   -0.324038
    44  C    0.186194
    45  H   -0.034277
    46  H   -0.002227
    47  H   -0.030508
    48  H    0.017797
    49  H    0.021834
    50  H    0.027229
    51  H    0.022865
    52  H    0.015530
    53  H    0.006994
    54  H    0.025564
    55  H    0.017892
    56  H    0.031312
    57  H    0.044913
    58  H    0.015496
    59  H    0.008137
    60  H    0.015715
    61  H    0.051788
    62  H    0.023437
    63  H    0.017615
    64  H    0.011131
    65  H    0.031356
    66  H    0.003980
    67  H    0.019057
    68  H   -0.002871
    69  H   -0.003849
    70  H    0.011941
    71  H    0.003758
    72  H    0.010499
    73  H    0.047587
    74  H    0.015613
    75  H    0.025077
    76  H    0.034009
    77  H    0.050700
    78  H    0.030832
    79  H    0.042077
    80  Mg   0.808589
    81  C   -0.022796
    82  C   -0.089179
    83  C   -0.053490
    84  C   -0.087649
    85  N   -0.256453
    86  C    0.017120
    87  C   -0.056734
    88  C   -0.028036
    89  C   -0.031682
    90  C    0.087898
    91  C    0.008044
    92  C   -0.054129
    93  H    0.004562
    94  N   -0.338655
    95  C    0.178643
    96  C   -0.150739
    97  C   -0.029701
    98  C    0.090836
    99  C    0.102941
   100  C    0.020544
   101  O   -0.220458
   102  C    0.059540
   103  N   -0.287072
   104  C    0.009873
   105  C   -0.007363
   106  C   -0.008025
   107  C    0.040545
   108  C    0.096930
   109  C    0.012016
   110  C    0.002795
   111  N   -0.353929
   112  C    0.116550
   113  C   -0.187934
   114  C    0.035234
   115  C    0.131249
   116  C    0.110952
   117  C    0.035415
   118  O   -0.171296
   119  C   -0.022562
   120  C    0.214372
   121  O   -0.195550
   122  O   -0.344285
   123  C    0.166849
   124  H   -0.039099
   125  H   -0.001531
   126  H   -0.044420
   127  H   -0.000540
   128  H   -0.005495
   129  H    0.005234
   130  H    0.023652
   131  H    0.034487
   132  H   -0.004461
   133  H    0.023652
   134  H    0.042572
   135  H    0.050165
   136  H    0.022041
   137  H    0.018291
   138  H    0.018990
   139  H    0.017296
   140  H    0.053310
   141  H    0.027723
   142  H    0.011729
   143  H    0.008562
   144  H   -0.006512
   145  H    0.023160
   146  H    0.026502
   147  H   -0.001176
   148  H   -0.002888
   149  H    0.035086
   150  H    0.017586
   151  H    0.024862
   152  H    0.030459
   153  H    0.036655
   154  H    0.012419
   155  H    0.064241
   156  H    0.031321
   157  H    0.041980
   158  H    0.043825
 Sum of Mulliken charges =  -0.00000

 Dipole moment (field-independent basis, Debye):
    X=              0.6568    Y=             -2.9165    Z=             -0.4203  Tot=              3.0190
 Quadrupole moment (field-independent basis, Debye-Ang):
   XX=           -476.7194   YY=           -467.9089   ZZ=           -530.4648
   XY=             -3.2931   XZ=            -18.5698   YZ=             -7.4359

 Normal termination of Gaussian 16 at Wed Sep 15 07:40:46 2021.
