 Gaussian 16, Revision A.03,
 Gaussian 16:  ES64L-G16RevA.03 25-Dec-2016

 -----------------------------------
 #p cam-b3lyp/Def2SVP td=(nstates=5)
 -----------------------------------

 --------------------------------
 TDDFT excited states in gaussian
 --------------------------------
 Symbolic Z-matrix:
 Charge =  0 Multiplicity = 1

                         Standard orientation:
 ---------------------------------------------------------------------
 Center     Atomic      Atomic             Coordinates (Angstroms)
 Number     Number       Type             X           Y           Z
 ---------------------------------------------------------------------
      1         12           0      -28.184107    0.096610   -0.048683
      2          6           0      -25.112925   -1.599057    0.088536
      3          6           0      -28.975215   -1.280676    2.954575
      4          6           0      -30.792708    2.068466   -0.106825
      5          6           0      -26.689889    1.992061   -2.720945
      6          7           0      -27.180804   -1.313450    1.284543
      7          6           0      -25.935496   -1.862543    1.163974
      8          6           0      -25.561862   -2.504392    2.508509
      9          6           0      -26.932292   -2.841078    3.085792
     10          6           0      -27.721825   -1.672209    2.465856
     11          6           0      -27.466867   -4.210854    2.607692
     12          6           0      -24.757550   -1.504318    3.418898
     13          6           0      -23.220719   -1.839013    3.749540
     14          1           0      -22.128263   -0.852693    3.302570
     15          7           0      -29.649936    0.403101    1.268968
     16          6           0      -29.823437   -0.280186    2.450632
     17          6           0      -31.088507    0.095170    3.000309
     18          6           0      -31.747609    0.992001    2.095843
     19          6           0      -30.741416    1.212926    1.017026
     20          6           0      -31.633286   -0.457449    4.361828
     21          6           0      -33.209591    1.539662    2.278230
     22          8           0      -33.890520    1.139513    3.171714
     23          6           0      -33.797657    2.312966    1.191267
     24          7           0      -28.535104    2.000637   -1.046972
     25          6           0      -29.848264    2.323752   -1.119044
     26          6           0      -30.212979    3.068170   -2.392524
     27          6           0      -28.859776    3.360161   -3.022765
     28          6           0      -27.936223    2.387816   -2.209723
     29          6           0      -31.145220    2.233066   -3.346146
     30          6           0      -28.301896    4.860735   -3.036951
     31          6           0      -28.238563    5.676100   -4.300574
     32          7           0      -26.419127    0.080188   -1.240522
     33          6           0      -25.948954    0.895479   -2.278067
     34          6           0      -24.612798    0.520891   -2.687934
     35          6           0      -24.268325   -0.469601   -1.801344
     36          6           0      -25.361719   -0.716046   -0.907166
     37          6           0      -23.834207    1.164356   -3.758757
     38          6           0      -23.198139   -1.380435   -1.424804
     39          8           0      -22.107305   -1.584088   -1.971927
     40          6           0      -23.732435   -2.210445   -0.276577
     41          6           0      -23.755011   -3.662770   -0.740565
     42          8           0      -24.399306   -3.998069   -1.731848
     43          8           0      -22.875680   -4.458987    0.009610
     44          6           0      -22.821182   -5.837501   -0.397877
     45          1           0      -29.262029   -1.858283    3.835447
     46          1           0      -31.801043    2.456939   -0.257913
     47          1           0      -26.289777    2.497194   -3.602771
     48          1           0      -24.864239   -3.312181    2.285963
     49          1           0      -26.857021   -2.811039    4.172061
     50          1           0      -27.739129   -4.625251    3.577759
     51          1           0      -26.606642   -4.695678    2.145254
     52          1           0      -28.304945   -4.196821    1.910790
     53          1           0      -25.255722   -1.479984    4.388013
     54          1           0      -24.875888   -0.506606    2.996952
     55          1           0      -23.001542   -2.750950    3.193658
     56          1           0      -23.021315   -2.074285    4.794318
     57          1           0      -32.007477    0.259505    5.091967
     58          1           0      -30.799455   -0.996993    4.812139
     59          1           0      -32.439001   -1.179884    4.230169
     60          1           0      -33.242141    3.213140    0.927332
     61          1           0      -34.809953    2.595417    1.480245
     62          1           0      -34.024752    1.661895    0.348205
     63          1           0      -30.792638    3.971298   -2.198686
     64          1           0      -28.834039    2.992904   -4.048722
     65          1           0      -32.198990    2.497317   -3.259254
     66          1           0      -30.929390    1.171217   -3.227947
     67          1           0      -30.854807    2.478308   -4.368731
     68          1           0      -27.393061    5.074950   -2.475638
     69          1           0      -29.108852    5.272282   -2.430107
     70          1           0      -28.916123    6.529336   -4.301844
     71          1           0      -28.508832    5.050780   -5.151817
     72          1           0      -27.198033    5.993808   -4.363290
     73          1           0      -24.202962    2.184474   -3.869296
     74          1           0      -24.085511    0.618605   -4.668652
     75          1           0      -22.763468    1.083116   -3.577306
     76          1           0      -22.965422   -2.076597    0.485030
     77          1           0      -23.669956   -6.440556   -0.074269
     78          1           0      -21.926549   -6.331703   -0.020114
     79          1           0      -22.754018   -5.985426   -1.475362
     80         12           0       27.145796    0.687284    0.273490
     81          6           0       28.136070   -2.557112   -0.204856
     82          6           0       24.634479    0.255958   -1.895984
     83          6           0       26.447659    3.961671    0.666104
     84          6           0       30.180868    1.228357    2.200884
     85          7           0       26.637248   -0.945621   -1.136079
     86          6           0       27.088567   -2.204597   -1.082689
     87          6           0       26.260289   -3.150290   -2.095266
     88          6           0       25.155245   -2.134213   -2.570080
     89          6           0       25.492527   -0.806825   -1.861508
     90          6           0       25.005653   -2.052603   -4.101717
     91          6           0       25.683693   -4.431210   -1.428112
     92          6           0       24.578598   -5.231690   -2.191598
     93          1           0       25.007476   -6.565378   -2.913144
     94          7           0       25.748468    1.958463   -0.555088
     95          6           0       24.752245    1.589267   -1.333036
     96          6           0       23.917544    2.750517   -1.601285
     97          6           0       24.465894    3.901956   -0.960371
     98          6           0       25.604332    3.297306   -0.234342
     99          6           0       22.739587    2.787772   -2.560806
    100          6           0       24.052441    5.368651   -1.023153
    101          8           0       24.810022    6.256907   -0.643547
    102          6           0       22.706864    5.710370   -1.560537
    103          7           0       28.206459    2.368564    1.259714
    104          6           0       27.677153    3.585191    1.309430
    105          6           0       28.459391    4.517836    2.248993
    106          6           0       29.470787    3.541351    2.843688
    107          6           0       29.288644    2.320252    2.021815
    108          6           0       29.075842    5.791685    1.652036
    109          6           0       29.425466    3.446879    4.347807
    110          6           0       30.717145    3.910326    5.111226
    111          7           0       28.759804   -0.388664    0.919136
    112          6           0       29.881243   -0.085759    1.762113
    113          6           0       30.658825   -1.272414    2.043665
    114          6           0       29.953236   -2.242249    1.278443
    115          6           0       28.855222   -1.659277    0.633394
    116          6           0       31.778460   -1.518468    2.992442
    117          6           0       29.916508   -3.673741    1.115968
    118          8           0       30.495661   -4.622125    1.666427
    119          6           0       28.864375   -3.976290    0.078501
    120          6           0       29.574341   -4.402885   -1.225283
    121          8           0       30.581217   -3.893490   -1.740787
    122          8           0       28.886289   -5.461306   -1.739943
    123          6           0       29.405963   -6.084249   -2.998445
    124          1           0       23.713952    0.213499   -2.481905
    125          1           0       26.417079    5.052979    0.690037
    126          1           0       30.994508    1.434032    2.898751
    127          1           0       26.974097   -3.363894   -2.890022
    128          1           0       24.207528   -2.458896   -2.140585
    129          1           0       23.937157   -2.034637   -4.313638
    130          1           0       25.407323   -2.935830   -4.598497
    131          1           0       25.490870   -1.158433   -4.493217
    132          1           0       25.133769   -4.072201   -0.558187
    133          1           0       26.488162   -5.136187   -1.218805
    134          1           0       24.260339   -4.608034   -3.027615
    135          1           0       23.792514   -5.499200   -1.486316
    136          1           0       22.562954    1.811315   -3.011787
    137          1           0       22.939704    3.504605   -3.356804
    138          1           0       21.822446    3.104138   -2.065573
    139          1           0       22.015459    5.052567   -1.033147
    140          1           0       22.449599    5.626047   -2.615943
    141          1           0       22.428227    6.746824   -1.373287
    142          1           0       27.774110    4.847108    3.029318
    143          1           0       30.463349    3.930496    2.617473
    144          1           0       28.918040    6.545378    2.423097
    145          1           0       28.629537    6.017128    0.683596
    146          1           0       30.123728    5.694214    1.368424
    147          1           0       29.361184    2.375324    4.534160
    148          1           0       28.598903    3.997625    4.795851
    149          1           0       31.482233    4.216189    4.397154
    150          1           0       31.093247    3.046821    5.660727
    151          1           0       30.560225    4.665376    5.881668
    152          1           0       31.917568   -0.653789    3.640813
    153          1           0       32.673821   -1.549611    2.372659
    154          1           0       31.486791   -2.416871    3.538327
    155          1           0       28.288318   -4.792540    0.514796
    156          1           0       29.675953   -5.381305   -3.786908
    157          1           0       28.756132   -6.848201   -3.424012
    158          1           0       30.350632   -6.550402   -2.718961
 ---------------------------------------------------------------------

 SCF Done:  E(RCAM-B3LYP) =  -4069.81724282     A.U. after   19 cycles

 Excitation energies and oscillator strengths:

 Excited State   1:      Singlet-A      1.7215 eV  720.20 nm  f=0.4415  <S**2>=0.000
     310 -> 316        0.17434
     311 -> 313        0.67819
     310 <- 316        0.10234
 This state for optimization and/or second-order correction.
 Total Energy, E(TD-HF/TD-DFT) =  -4069.75397767
 Copying the excited state density for this state as the 1-particle RhoCI density.

 Excited State   2:      Singlet-A      1.7237 eV  719.28 nm  f=0.3243  <S**2>=0.000
     309 -> 315        0.19014
     312 -> 314        0.67739
     309 <- 315        0.11024

 Excited State   3:      Singlet-A      2.2690 eV  546.42 nm  f=0.1127  <S**2>=0.000
     310 -> 313        0.63910
     311 -> 316       -0.28652

 Excited State   4:      Singlet-A      2.2830 eV  543.07 nm  f=0.0524  <S**2>=0.000
     309 -> 314        0.60482
     312 -> 315       -0.35603

 Excited State   5:      Singlet-A      3.2272 eV  384.18 nm  f=0.0000  <S**2>=0.000
     312 -> 313        0.70710

 The electronic state is 1-A.
 Alpha  occ. eigenvalues --  -46.89176 -46.88718 -19.26057 -19.25612 -19.20612
 Alpha  occ. eigenvalues --  -19.19526 -19.19440 -19.19121 -19.18793 -19.17665
 Alpha  occ. eigenvalues --  -14.42168 -14.42109 -14.42056 -14.41719 -14.40075
 Alpha  occ. eigenvalues --  -14.39415 -14.39379 -14.39266 -10.40282 -10.39542
 Alpha  occ. eigenvalues --  -10.36085 -10.35084 -10.34598 -10.33330 -10.32168
 Alpha  occ. eigenvalues --  -10.31669 -10.31539 -10.31165 -10.31159 -10.30957
 Alpha  occ. eigenvalues --  -10.30866 -10.30687 -10.30582 -10.30478 -10.30372
 Alpha  occ. eigenvalues --  -10.30299 -10.30009 -10.29973 -10.29823 -10.29570
 Alpha  occ. eigenvalues --  -10.29337 -10.29326 -10.28792 -10.28645 -10.28570
 Alpha  occ. eigenvalues --  -10.28443 -10.28373 -10.28192 -10.28108 -10.28086
 Alpha  occ. eigenvalues --  -10.28053 -10.27978 -10.27919 -10.27906 -10.27849
 Alpha  occ. eigenvalues --  -10.27847 -10.27758 -10.27575 -10.27527 -10.27481
 Alpha  occ. eigenvalues --  -10.27287 -10.27014 -10.27013 -10.26959 -10.26930
 Alpha  occ. eigenvalues --  -10.26905 -10.26895 -10.26881 -10.26740 -10.26695
 Alpha  occ. eigenvalues --  -10.26513 -10.26481 -10.26465 -10.26264 -10.26260
 Alpha  occ. eigenvalues --  -10.26247 -10.26233 -10.26215 -10.26168 -10.26029
 Alpha  occ. eigenvalues --  -10.25725 -10.25703 -10.25652 -10.25538 -10.25167
 Alpha  occ. eigenvalues --  -10.24386  -3.17701  -3.17328  -1.92593  -1.92202
 Alpha  occ. eigenvalues --   -1.92150  -1.92015  -1.91798  -1.91627  -1.15997
 Alpha  occ. eigenvalues --   -1.15547  -1.11939  -1.10376  -1.09137  -1.08255
 Alpha  occ. eigenvalues --   -1.07955  -1.06526  -1.05717  -1.04814  -1.04373
 Alpha  occ. eigenvalues --   -1.04306  -1.03864  -1.02943  -1.02890  -1.02106
 Alpha  occ. eigenvalues --   -0.93078  -0.91258  -0.89908  -0.89183  -0.89003
 Alpha  occ. eigenvalues --   -0.88716  -0.88539  -0.88158  -0.87645  -0.87539
 Alpha  occ. eigenvalues --   -0.87144  -0.87138  -0.86990  -0.85028  -0.84639
 Alpha  occ. eigenvalues --   -0.84269  -0.84177  -0.83322  -0.82618  -0.82552
 Alpha  occ. eigenvalues --   -0.82346  -0.82154  -0.81095  -0.81069  -0.80888
 Alpha  occ. eigenvalues --   -0.80027  -0.78523  -0.78035  -0.77545  -0.77259
 Alpha  occ. eigenvalues --   -0.76727  -0.76431  -0.76344  -0.76085  -0.75339
 Alpha  occ. eigenvalues --   -0.75138  -0.72919  -0.72621  -0.72154  -0.71673
 Alpha  occ. eigenvalues --   -0.69432  -0.69099  -0.69061  -0.68650  -0.68188
 Alpha  occ. eigenvalues --   -0.67698  -0.67564  -0.66807  -0.65903  -0.65834
 Alpha  occ. eigenvalues --   -0.65630  -0.64897  -0.64876  -0.64488  -0.64449
 Alpha  occ. eigenvalues --   -0.63932  -0.62752  -0.62624  -0.60718  -0.60281
 Alpha  occ. eigenvalues --   -0.60079  -0.59645  -0.59150  -0.58920  -0.58869
 Alpha  occ. eigenvalues --   -0.58626  -0.58531  -0.57975  -0.57711  -0.57426
 Alpha  occ. eigenvalues --   -0.56298  -0.56269  -0.56105  -0.55648  -0.55322
 Alpha  occ. eigenvalues --   -0.55131  -0.55008  -0.54528  -0.54181  -0.53982
 Alpha  occ. eigenvalues --   -0.53730  -0.53571  -0.53388  -0.53227  -0.53029
 Alpha  occ. eigenvalues --   -0.52814  -0.52788  -0.52710  -0.52562  -0.52221
 Alpha  occ. eigenvalues --   -0.52153  -0.51778  -0.51671  -0.51176  -0.51102
 Alpha  occ. eigenvalues --   -0.51044  -0.50924  -0.50694  -0.50490  -0.50470
 Alpha  occ. eigenvalues --   -0.50169  -0.49956  -0.49857  -0.49778  -0.49681
 Alpha  occ. eigenvalues --   -0.49678  -0.49355  -0.49328  -0.49115  -0.49030
 Alpha  occ. eigenvalues --   -0.48957  -0.48713  -0.48557  -0.48367  -0.48155
 Alpha  occ. eigenvalues --   -0.48120  -0.47781  -0.47646  -0.47546  -0.47289
 Alpha  occ. eigenvalues --   -0.47156  -0.46776  -0.46623  -0.46379  -0.46371
 Alpha  occ. eigenvalues --   -0.46323  -0.46167  -0.46129  -0.45998  -0.45957
 Alpha  occ. eigenvalues --   -0.45456  -0.45371  -0.44972  -0.44685  -0.44507
 Alpha  occ. eigenvalues --   -0.44471  -0.44395  -0.44338  -0.44185  -0.44118
 Alpha  occ. eigenvalues --   -0.43997  -0.43887  -0.43851  -0.43591  -0.43582
 Alpha  occ. eigenvalues --   -0.43324  -0.43096  -0.42910  -0.42747  -0.42609
 Alpha  occ. eigenvalues --   -0.42434  -0.42196  -0.42166  -0.42007  -0.41998
 Alpha  occ. eigenvalues --   -0.41976  -0.41825  -0.41759  -0.41625  -0.41517
 Alpha  occ. eigenvalues --   -0.41108  -0.41085  -0.40899  -0.40828  -0.40750
 Alpha  occ. eigenvalues --   -0.40415  -0.40404  -0.40065  -0.39267  -0.39079
 Alpha  occ. eigenvalues --   -0.38997  -0.38255  -0.38020  -0.37857  -0.37496
 Alpha  occ. eigenvalues --   -0.37174  -0.37041  -0.36716  -0.36668  -0.36556
 Alpha  occ. eigenvalues --   -0.36193  -0.35946  -0.34878  -0.34741  -0.34276
 Alpha  occ. eigenvalues --   -0.33991  -0.33512  -0.33348  -0.31956  -0.31435
 Alpha  occ. eigenvalues --   -0.31241  -0.31097  -0.30977  -0.30579  -0.30178
 Alpha  occ. eigenvalues --   -0.29959  -0.29681  -0.29658  -0.24423  -0.23903
 Alpha  occ. eigenvalues --   -0.21095  -0.21024
 Alpha virt. eigenvalues --   -0.08542  -0.08349  -0.02257  -0.01761   0.00469
 Alpha virt. eigenvalues --    0.00586   0.01797   0.01905   0.02561   0.02712
 Alpha virt. eigenvalues --    0.04171   0.04912   0.04984   0.05689   0.05844

 Mulliken charges:
               1
     1  Mg   0.819070
     2  C   -0.027549
     3  C   -0.090321
     4  C   -0.046294
     5  C   -0.087371
     6  N   -0.261351
     7  C   -0.073411
     8  C   -0.067273
     9  C   -0.064302
    10  C    0.017936
    11  C    0.108026
    12  C    0.065022
    13  C   -0.081509
    14  H    0.029360
    15  N   -0.432497
    16  C    0.196313
    17  C   -0.155235
    18  C   -0.066215
    19  C    0.129249
    20  C    0.128361
    21  C    0.011640
    22  O   -0.165197
    23  C    0.046946
    24  N   -0.260911
    25  C    0.045593
    26  C   -0.043766
    27  C   -0.029931
    28  C    0.049943
    29  C    0.066777
    30  C    0.022693
    31  C    0.021387
    32  N   -0.342432
    33  C    0.111602
    34  C   -0.193850
    35  C    0.033642
    36  C    0.152524
    37  C    0.142366
    38  C    0.016924
    39  O   -0.185191
    40  C    0.043563
    41  C    0.222869
    42  O   -0.215991
    43  O   -0.330704
    44  C    0.180776
    45  H   -0.024249
    46  H   -0.052543
    47  H   -0.027324
    48  H   -0.005479
    49  H   -0.002404
    50  H    0.020567
    51  H    0.016877
    52  H    0.032984
    53  H    0.008339
    54  H    0.031375
    55  H    0.028578
    56  H    0.035472
    57  H    0.032241
    58  H   -0.009171
    59  H    0.027836
    60  H    0.050343
    61  H    0.014702
    62  H    0.046909
    63  H    0.006573
    64  H    0.001277
    65  H    0.023853
    66  H    0.019673
    67  H    0.008319
    68  H    0.019304
    69  H   -0.007789
    70  H    0.021974
    71  H    0.005696
    72  H    0.020175
    73  H    0.016085
    74  H    0.034081
    75  H    0.041552
    76  H    0.030793
    77  H    0.024062
    78  H    0.031487
    79  H    0.036551
    80  Mg   0.832111
    81  C   -0.058927
    82  C   -0.068390
    83  C   -0.048462
    84  C   -0.064240
    85  N   -0.282677
    86  C   -0.070733
    87  C    0.037205
    88  C   -0.103335
    89  C    0.096663
    90  C    0.074351
    91  C    0.030385
    92  C   -0.078904
    93  H   -0.000464
    94  N   -0.351745
    95  C    0.093651
    96  C   -0.163037
    97  C   -0.023594
    98  C    0.114221
    99  C    0.115756
   100  C    0.042806
   101  O   -0.195752
   102  C    0.027076
   103  N   -0.202733
   104  C   -0.029781
   105  C   -0.063776
   106  C   -0.010474
   107  C   -0.014912
   108  C    0.083994
   109  C    0.049325
   110  C   -0.014698
   111  N   -0.364374
   112  C    0.117920
   113  C   -0.165068
   114  C   -0.033230
   115  C    0.166909
   116  C    0.154756
   117  C    0.031413
   118  O   -0.204152
   119  C    0.011461
   120  C    0.227306
   121  O   -0.237198
   122  O   -0.334639
   123  C    0.179440
   124  H   -0.045381
   125  H    0.005815
   126  H   -0.021667
   127  H    0.012732
   128  H    0.012080
   129  H    0.012186
   130  H    0.020278
   131  H    0.026671
   132  H    0.007757
   133  H    0.051198
   134  H    0.027695
   135  H    0.042487
   136  H    0.007548
   137  H    0.029960
   138  H    0.019398
   139  H    0.028808
   140  H    0.041999
   141  H    0.025824
   142  H    0.012607
   143  H   -0.000592
   144  H    0.024221
   145  H    0.022912
   146  H    0.008027
   147  H    0.006253
   148  H    0.012161
   149  H    0.013267
   150  H    0.012261
   151  H    0.019497
   152  H   -0.002872
   153  H    0.041547
   154  H    0.058656
   155  H    0.040262
   156  H    0.041157
   157  H    0.045321
   158  H    0.038477
 Sum of Mulliken charges =  -0.00000

 Dipole moment (field-independent basis, Debye):
    X=             -6.7008    Y=              2.3643    Z=             -1.4697  Tot=              7.2561
 Quadrupole moment (field-independent basis, Debye-Ang):
   XX=           -686.1683   YY=           -505.1241   ZZ=           -490.1315
   XY=             40.1775   XZ=             46.9766   YZ=             -6.0548

 Normal termination of Gaussian 16 at Fri Sep  3 00:53:08 2021.
