 Gaussian 16, Revision A.03,
 Gaussian 16:  ES64L-G16RevA.03 25-Dec-2016

 ----------------------------------------------------------
 #p cam-b3lyp/Def2SVP td=(nstates=5) density=(transition=1)
 ----------------------------------------------------------

 --------------------------------
 TDDFT excited states in gaussian
 --------------------------------
 Symbolic Z-matrix:
 Charge =  0 Multiplicity = 1

                         Standard orientation:
 ---------------------------------------------------------------------
 Center     Atomic      Atomic             Coordinates (Angstroms)
 Number     Number       Type             X           Y           Z
 ---------------------------------------------------------------------
      1         12           0      -28.745393   -0.153916   -0.643078
      2          6           0      -25.365062    0.639495    0.544138
      3          6           0      -28.084670   -3.347012    0.517640
      4          6           0      -31.900784   -0.615671   -0.655547
      5          6           0      -29.058869    3.371066   -1.265975
      6          7           0      -26.875257   -1.181938    0.581887
      7          6           0      -25.639265   -0.682101    0.929374
      8          6           0      -24.852478   -1.765865    1.753507
      9          6           0      -25.609052   -3.078537    1.485749
     10          6           0      -26.926899   -2.517653    0.828055
     11          6           0      -24.950186   -4.150146    0.521159
     12          6           0      -24.683549   -1.405221    3.269187
     13          6           0      -23.350279   -1.748688    3.897860
     14          1           0      -23.303713   -3.029341    4.789107
     15          7           0      -29.834262   -1.763687   -0.268502
     16          6           0      -29.413492   -3.015495    0.089903
     17          6           0      -30.585437   -3.924219    0.218581
     18          6           0      -31.700753   -3.107473   -0.102756
     19          6           0      -31.171241   -1.762846   -0.316150
     20          6           0      -30.577456   -5.389852    0.682878
     21          6           0      -33.190946   -3.443308    0.005274
     22          8           0      -33.485960   -4.596289    0.308109
     23          6           0      -34.242800   -2.539521   -0.247635
     24          7           0      -30.292881    1.296463   -0.667422
     25          6           0      -31.525801    0.729873   -0.923145
     26          6           0      -32.522772    1.887425   -1.317396
     27          6           0      -31.646886    3.185768   -1.196735
     28          6           0      -30.229595    2.567201   -1.137024
     29          6           0      -33.216790    1.737299   -2.698998
     30          6           0      -31.939977    4.198896   -0.017754
     31          6           0      -33.116862    5.176609   -0.179865
     32          7           0      -27.525509    1.689310   -0.487124
     33          6           0      -27.768538    2.983949   -0.900432
     34          6           0      -26.582001    3.802083   -0.832628
     35          6           0      -25.594671    2.904614   -0.277551
     36          6           0      -26.182974    1.619408   -0.009633
     37          6           0      -26.540812    5.256268   -1.188475
     38          6           0      -24.279022    2.848911    0.181005
     39          8           0      -23.452596    3.732792    0.362487
     40          6           0      -24.091433    1.454787    0.846542
     41          6           0      -22.902218    0.852630    0.135242
     42          8           0      -21.946091    0.341337    0.723452
     43          8           0      -23.020765    0.757985   -1.309752
     44          6           0      -22.027137   -0.141936   -1.893166
     45          1           0      -27.879218   -4.379086    0.807605
     46          1           0      -32.969242   -0.664787   -0.875617
     47          1           0      -29.287065    4.392928   -1.575826
     48          1           0      -23.897456   -1.948022    1.258643
     49          1           0      -25.932259   -3.556010    2.410760
     50          1           0      -24.609093   -4.943351    1.186093
     51          1           0      -24.065649   -3.746355    0.029419
     52          1           0      -25.587273   -4.512840   -0.285418
     53          1           0      -25.344140   -1.951342    3.943077
     54          1           0      -24.802705   -0.331869    3.418462
     55          1           0      -23.005543   -0.854130    4.416568
     56          1           0      -22.644326   -1.933043    3.087454
     57          1           0      -31.280516   -5.970002    0.084596
     58          1           0      -30.828813   -5.328059    1.741636
     59          1           0      -29.603168   -5.847445    0.516670
     60          1           0      -34.225631   -2.291923   -1.309482
     61          1           0      -34.254990   -1.658727    0.394433
     62          1           0      -35.098212   -3.124366    0.092220
     63          1           0      -33.349420    2.010789   -0.618531
     64          1           0      -31.646035    3.751663   -2.128012
     65          1           0      -32.954330    2.641687   -3.248079
     66          1           0      -34.293512    1.697416   -2.537110
     67          1           0      -32.795197    0.812454   -3.094625
     68          1           0      -31.012348    4.766904    0.059944
     69          1           0      -32.197115    3.667024    0.898502
     70          1           0      -33.430446    4.944529   -1.198064
     71          1           0      -32.769289    6.209839   -0.221934
     72          1           0      -33.948666    5.073116    0.516487
     73          1           0      -27.291276    5.727116   -0.554848
     74          1           0      -26.884432    5.466163   -2.201218
     75          1           0      -25.613714    5.741974   -0.883806
     76          1           0      -23.814069    1.636520    1.884700
     77          1           0      -22.612968   -0.385342   -2.780348
     78          1           0      -21.715204   -0.919160   -1.195546
     79          1           0      -21.204492    0.489580   -2.228867
     80         12           0       28.174487    0.612730   -0.340138
     81          6           0       27.022128   -2.696106    0.081829
     82          6           0       25.303496    1.757713    1.276682
     83          6           0       29.774368    3.583651    0.137761
     84          6           0       31.248263   -0.823354   -1.488799
     85          7           0       26.404293   -0.358616    0.516261
     86          6           0       26.166221   -1.684743    0.600109
     87          6           0       24.868327   -1.971607    1.423130
     88          6           0       24.206818   -0.517266    1.425821
     89          6           0       25.386595    0.417199    1.003924
     90          6           0       23.020475   -0.184360    0.492827
     91          6           0       25.276194   -2.504198    2.848690
     92          6           0       24.317234   -3.585780    3.418999
     93          1           0       23.995342   -3.467009    4.964292
     94          7           0       27.540829    2.537670    0.417533
     95          6           0       26.310385    2.757221    0.977722
     96          6           0       26.250084    4.133518    1.294535
     97          6           0       27.529088    4.719938    1.059181
     98          6           0       28.363249    3.625452    0.459008
     99          6           0       25.048178    4.834905    1.881842
    100          6           0       27.980393    6.078654    1.474456
    101          8           0       27.273397    6.818256    2.139955
    102          6           0       29.283312    6.630391    1.208342
    103          7           0       30.297182    1.227240   -0.550803
    104          6           0       30.616786    2.588130   -0.434778
    105          6           0       32.008565    2.845183   -0.921777
    106          6           0       32.534422    1.437848   -1.389559
    107          6           0       31.327656    0.548936   -1.143029
    108          6           0       31.961734    3.904296   -2.030537
    109          6           0       33.939180    1.054037   -0.789239
    110          6           0       35.030410    0.738645   -1.766858
    111          7           0       29.020549   -1.374678   -0.699531
    112          6           0       30.239446   -1.749310   -1.209315
    113          6           0       30.264913   -3.205660   -1.468411
    114          6           0       29.020696   -3.582541   -0.896796
    115          6           0       28.299938   -2.457647   -0.542054
    116          6           0       31.396423   -4.076413   -1.991722
    117          6           0       28.259799   -4.736431   -0.497115
    118          8           0       28.540805   -5.942417   -0.577672
    119          6           0       26.943507   -4.271161    0.125031
    120          6           0       25.784824   -4.861123   -0.571033
    121          8           0       24.989092   -5.531695   -0.019918
    122          8           0       25.617878   -4.399542   -1.844632
    123          6           0       24.308206   -4.821667   -2.386924
    124          1           0       24.383266    2.157377    1.708911
    125          1           0       30.193529    4.586578    0.232687
    126          1           0       32.101996   -1.437871   -1.783923
    127          1           0       24.282720   -2.714858    0.881792
    128          1           0       24.064689   -0.072799    2.410749
    129          1           0       23.035547   -0.830689   -0.385484
    130          1           0       22.939024    0.851240    0.162523
    131          1           0       22.124011   -0.437048    1.058042
    132          1           0       25.386137   -1.679297    3.553218
    133          1           0       26.267403   -2.934216    2.704534
    134          1           0       24.841083   -4.518842    3.210704
    135          1           0       23.455646   -3.513462    2.754901
    136          1           0       25.000297    5.914433    1.738346
    137          1           0       25.111088    4.595800    2.943088
    138          1           0       24.076642    4.377285    1.695187
    139          1           0       29.389736    6.674376    0.123685
    140          1           0       30.066174    6.042383    1.688235
    141          1           0       29.323560    7.635854    1.627402
    142          1           0       32.663896    3.104244   -0.090538
    143          1           0       32.558671    1.238141   -2.461060
    144          1           0       31.014349    4.442215   -2.072926
    145          1           0       32.088955    3.460801   -3.018073
    146          1           0       32.620703    4.731926   -1.769756
    147          1           0       33.735735    0.192957   -0.152633
    148          1           0       34.423194    1.863547   -0.244085
    149          1           0       35.413681   -0.248632   -1.510416
    150          1           0       35.869722    1.428262   -1.675045
    151          1           0       34.724099    0.857921   -2.806157
    152          1           0       32.106007   -4.357503   -1.213267
    153          1           0       31.910038   -3.644056   -2.851345
    154          1           0       30.854889   -4.991542   -2.230943
    155          1           0       26.847510   -4.683199    1.128754
    156          1           0       24.227846   -4.427465   -3.400299
    157          1           0       23.495059   -4.451162   -1.762883
    158          1           0       24.215816   -5.894257   -2.554029
 ---------------------------------------------------------------------

 SCF Done:  E(RCAM-B3LYP) =  -4069.73458233     A.U. after   19 cycles

 Excitation energies and oscillator strengths:

 Excited State   1:      Singlet-A      1.6804 eV  737.81 nm  f=0.4057  <S**2>=0.000
     309 -> 316        0.17287
     311 -> 313        0.68701
     309 <- 316        0.10657
 This state for optimization and/or second-order correction.
 Total Energy, E(TD-HF/TD-DFT) =  -4069.67282775
 Copying the excited state density for this state as the 1-particle RhoCI density.

 Excited State   2:      Singlet-A      1.7224 eV  719.84 nm  f=0.3555  <S**2>=0.000
     310 -> 315        0.19688
     312 -> 314        0.67936
     310 <- 315        0.11036

 Excited State   3:      Singlet-A      2.2017 eV  563.14 nm  f=0.1138  <S**2>=0.000
     309 -> 313        0.64204
     311 -> 316       -0.28114

 Excited State   4:      Singlet-A      2.2417 eV  553.08 nm  f=0.0693  <S**2>=0.000
     310 -> 314        0.61606
     312 -> 315       -0.33057

 Excited State   5:      Singlet-A      3.1218 eV  397.15 nm  f=0.0000  <S**2>=0.000
     312 -> 313        0.70711

 The electronic state is 1-A.
 Alpha  occ. eigenvalues --  -46.90838 -46.90767 -19.25114 -19.23719 -19.20092
 Alpha  occ. eigenvalues --  -19.19919 -19.18846 -19.18795 -19.17872 -19.17321
 Alpha  occ. eigenvalues --  -14.42977 -14.42720 -14.42703 -14.42021 -14.40816
 Alpha  occ. eigenvalues --  -14.39908 -14.39302 -14.39145 -10.39393 -10.38732
 Alpha  occ. eigenvalues --  -10.34939 -10.34774 -10.33512 -10.33505 -10.32317
 Alpha  occ. eigenvalues --  -10.32244 -10.31986 -10.31890 -10.31862 -10.31823
 Alpha  occ. eigenvalues --  -10.31592 -10.31532 -10.31372 -10.31065 -10.31016
 Alpha  occ. eigenvalues --  -10.30990 -10.30785 -10.30185 -10.29860 -10.29660
 Alpha  occ. eigenvalues --  -10.29401 -10.29309 -10.29243 -10.29084 -10.29034
 Alpha  occ. eigenvalues --  -10.28919 -10.28918 -10.28910 -10.28839 -10.28772
 Alpha  occ. eigenvalues --  -10.28532 -10.28507 -10.28463 -10.28426 -10.28408
 Alpha  occ. eigenvalues --  -10.28328 -10.28325 -10.28221 -10.28171 -10.28149
 Alpha  occ. eigenvalues --  -10.28068 -10.27750 -10.27541 -10.27481 -10.27467
 Alpha  occ. eigenvalues --  -10.27347 -10.27043 -10.26983 -10.26971 -10.26858
 Alpha  occ. eigenvalues --  -10.26855 -10.26809 -10.26808 -10.26662 -10.26662
 Alpha  occ. eigenvalues --  -10.26652 -10.26519 -10.26391 -10.26244 -10.26188
 Alpha  occ. eigenvalues --  -10.25850 -10.25753 -10.25451 -10.25291 -10.25259
 Alpha  occ. eigenvalues --  -10.25241  -3.19178  -3.18985  -1.94023  -1.93899
 Alpha  occ. eigenvalues --   -1.93686  -1.93443  -1.93421  -1.93281  -1.17975
 Alpha  occ. eigenvalues --   -1.13949  -1.10464  -1.09553  -1.09042  -1.08987
 Alpha  occ. eigenvalues --   -1.08957  -1.06352  -1.05116  -1.05038  -1.03752
 Alpha  occ. eigenvalues --   -1.03438  -1.03374  -1.03348  -1.02538  -1.01089
 Alpha  occ. eigenvalues --   -0.92894  -0.92631  -0.89427  -0.89022  -0.89012
 Alpha  occ. eigenvalues --   -0.88951  -0.88516  -0.88237  -0.88064  -0.87017
 Alpha  occ. eigenvalues --   -0.87000  -0.86936  -0.85939  -0.85825  -0.85029
 Alpha  occ. eigenvalues --   -0.84884  -0.84658  -0.83879  -0.83704  -0.82715
 Alpha  occ. eigenvalues --   -0.82540  -0.82517  -0.81161  -0.80930  -0.80554
 Alpha  occ. eigenvalues --   -0.79889  -0.78662  -0.78264  -0.77616  -0.77367
 Alpha  occ. eigenvalues --   -0.77050  -0.76871  -0.76499  -0.75837  -0.75434
 Alpha  occ. eigenvalues --   -0.75282  -0.73148  -0.72848  -0.72522  -0.71933
 Alpha  occ. eigenvalues --   -0.69377  -0.69268  -0.69152  -0.68609  -0.67961
 Alpha  occ. eigenvalues --   -0.67724  -0.67022  -0.66902  -0.66355  -0.65715
 Alpha  occ. eigenvalues --   -0.65579  -0.65386  -0.65059  -0.64999  -0.64653
 Alpha  occ. eigenvalues --   -0.64037  -0.63311  -0.61913  -0.60394  -0.60083
 Alpha  occ. eigenvalues --   -0.60027  -0.59822  -0.59279  -0.58996  -0.58931
 Alpha  occ. eigenvalues --   -0.58892  -0.58313  -0.57174  -0.57082  -0.57009
 Alpha  occ. eigenvalues --   -0.56772  -0.56513  -0.56084  -0.55617  -0.55559
 Alpha  occ. eigenvalues --   -0.55139  -0.54795  -0.54557  -0.54343  -0.53951
 Alpha  occ. eigenvalues --   -0.53794  -0.53560  -0.53509  -0.53386  -0.53309
 Alpha  occ. eigenvalues --   -0.53201  -0.52901  -0.52827  -0.52659  -0.52495
 Alpha  occ. eigenvalues --   -0.52269  -0.52000  -0.51760  -0.51751  -0.51475
 Alpha  occ. eigenvalues --   -0.51449  -0.51335  -0.51032  -0.50894  -0.50631
 Alpha  occ. eigenvalues --   -0.50049  -0.49901  -0.49869  -0.49861  -0.49568
 Alpha  occ. eigenvalues --   -0.49528  -0.49271  -0.49133  -0.49042  -0.48964
 Alpha  occ. eigenvalues --   -0.48650  -0.48623  -0.48401  -0.48400  -0.48207
 Alpha  occ. eigenvalues --   -0.48170  -0.47972  -0.47747  -0.47530  -0.47333
 Alpha  occ. eigenvalues --   -0.47286  -0.46965  -0.46798  -0.46743  -0.46685
 Alpha  occ. eigenvalues --   -0.46535  -0.46358  -0.46334  -0.46153  -0.45912
 Alpha  occ. eigenvalues --   -0.45761  -0.45378  -0.45140  -0.45092  -0.44980
 Alpha  occ. eigenvalues --   -0.44857  -0.44696  -0.44686  -0.44482  -0.44353
 Alpha  occ. eigenvalues --   -0.44341  -0.44127  -0.44017  -0.43812  -0.43602
 Alpha  occ. eigenvalues --   -0.43597  -0.43332  -0.43199  -0.43006  -0.42881
 Alpha  occ. eigenvalues --   -0.42649  -0.42572  -0.42463  -0.42316  -0.42299
 Alpha  occ. eigenvalues --   -0.42071  -0.41942  -0.41784  -0.41499  -0.41358
 Alpha  occ. eigenvalues --   -0.41281  -0.41030  -0.40795  -0.40276  -0.40221
 Alpha  occ. eigenvalues --   -0.40138  -0.39971  -0.39635  -0.39317  -0.39237
 Alpha  occ. eigenvalues --   -0.38868  -0.38678  -0.37901  -0.37872  -0.37640
 Alpha  occ. eigenvalues --   -0.37532  -0.37238  -0.37175  -0.36890  -0.36404
 Alpha  occ. eigenvalues --   -0.36345  -0.35373  -0.34924  -0.34487  -0.34136
 Alpha  occ. eigenvalues --   -0.33868  -0.33494  -0.33205  -0.31759  -0.31495
 Alpha  occ. eigenvalues --   -0.31407  -0.31048  -0.30976  -0.30393  -0.30163
 Alpha  occ. eigenvalues --   -0.30009  -0.29201  -0.28749  -0.24511  -0.24476
 Alpha  occ. eigenvalues --   -0.21576  -0.21464
 Alpha virt. eigenvalues --   -0.09385  -0.08796  -0.02709  -0.02255  -0.00372
 Alpha virt. eigenvalues --    0.00284   0.00576   0.01211   0.02161   0.02427
 Alpha virt. eigenvalues --    0.04372   0.04689   0.04813   0.05444   0.05475

 Mulliken charges:
               1
     1  Mg  12.000003
     2  C    5.999881
     3  C    5.999940
     4  C    6.000172
     5  C    6.000014
     6  N    6.999975
     7  C    6.000141
     8  C    5.999979
     9  C    6.000017
    10  C    5.999906
    11  C    6.000052
    12  C    5.999981
    13  C    5.999996
    14  H    1.000031
    15  N    7.000029
    16  C    5.999827
    17  C    5.999844
    18  C    6.000007
    19  C    5.999738
    20  C    6.000036
    21  C    5.999943
    22  O    7.999889
    23  C    6.000025
    24  N    6.999984
    25  C    5.999816
    26  C    6.000070
    27  C    5.999978
    28  C    6.000109
    29  C    6.000005
    30  C    5.999973
    31  C    6.000007
    32  N    7.000014
    33  C    6.000123
    34  C    6.000206
    35  C    5.999935
    36  C    6.000253
    37  C    5.999964
    38  C    6.000126
    39  O    8.000188
    40  C    5.999976
    41  C    6.000023
    42  O    8.000064
    43  O    7.999980
    44  C    5.999987
    45  H    0.999933
    46  H    0.999952
    47  H    1.000043
    48  H    1.000004
    49  H    0.999990
    50  H    0.999951
    51  H    0.999929
    52  H    0.999999
    53  H    1.000044
    54  H    0.999972
    55  H    1.000011
    56  H    0.999998
    57  H    0.999894
    58  H    0.999894
    59  H    0.999898
    60  H    0.999950
    61  H    0.999946
    62  H    0.999924
    63  H    0.999969
    64  H    0.999987
    65  H    0.999940
    66  H    0.999983
    67  H    1.000009
    68  H    0.999977
    69  H    1.000049
    70  H    1.000017
    71  H    1.000008
    72  H    1.000025
    73  H    1.000126
    74  H    1.000126
    75  H    1.000109
    76  H    1.000062
    77  H    1.000009
    78  H    1.000029
    79  H    1.000036
    80  Mg  11.998349
    81  C    5.974432
    82  C    6.019860
    83  C    6.023279
    84  C    5.991116
    85  N    6.996281
    86  C    6.037434
    87  C    5.991666
    88  C    6.002440
    89  C    5.968717
    90  C    6.009100
    91  C    5.997968
    92  C    5.998846
    93  H    1.007898
    94  N    7.013680
    95  C    5.947650
    96  C    5.980723
    97  C    5.991847
    98  C    5.947365
    99  C    6.005196
   100  C    5.988620
   101  O    7.978244
   102  C    6.005455
   103  N    7.001118
   104  C    5.964786
   105  C    6.013500
   106  C    5.991825
   107  C    6.033354
   108  C    6.002952
   109  C    5.999430
   110  C    5.997644
   111  N    6.994980
   112  C    6.041886
   113  C    6.032953
   114  C    6.001424
   115  C    6.034118
   116  C    5.998547
   117  C    6.015871
   118  O    8.032268
   119  C    5.999001
   120  C    6.004783
   121  O    8.008460
   122  O    7.996074
   123  C    5.996836
   124  H    0.990218
   125  H    0.992747
   126  H    1.008023
   127  H    0.998234
   128  H    1.003307
   129  H    0.985325
   130  H    1.005426
   131  H    0.991507
   132  H    1.012414
   133  H    0.991616
   134  H    0.994993
   135  H    1.003387
   136  H    0.983818
   137  H    0.977885
   138  H    0.977876
   139  H    0.990255
   140  H    0.988372
   141  H    0.986640
   142  H    0.996938
   143  H    0.995741
   144  H    1.007913
   145  H    0.988885
   146  H    0.997497
   147  H    0.997050
   148  H    1.011689
   149  H    0.997823
   150  H    1.006366
   151  H    1.002345
   152  H    1.022259
   153  H    1.019211
   154  H    1.013160
   155  H    1.008934
   156  H    1.004344
   157  H    1.007529
   158  H    1.002298
 Sum of Mulliken charges = 624.00000

 Dipole moment (field-independent basis, Debye):
    X=              3.9704    Y=            -10.1430    Z=             -2.9486  Tot=             11.2844
 Quadrupole moment (field-independent basis, Debye-Ang):
   XX=            222.1718   YY=             -9.8224   ZZ=              0.7850
   XY=           -286.7819   XZ=            -83.9331   YZ=             -2.8669

 Normal termination of Gaussian 16 at Thu Sep 23 02:45:42 2021.
