 Gaussian 16, Revision A.03,
 Gaussian 16:  ES64L-G16RevA.03 25-Dec-2016

 -----------------------------------
 #p cam-b3lyp/Def2SVP td=(nstates=5)
 -----------------------------------

 --------------------------------
 TDDFT excited states in gaussian
 --------------------------------
 Symbolic Z-matrix:
 Charge =  0 Multiplicity = 1

                         Standard orientation:
 ---------------------------------------------------------------------
 Center     Atomic      Atomic             Coordinates (Angstroms)
 Number     Number       Type             X           Y           Z
 ---------------------------------------------------------------------
      1         12           0       -9.741977   -0.860334    0.468114
      2          6           0       -9.184244    2.732843   -0.300992
      3          6           0       -7.693076   -0.277093    3.092185
      4          6           0      -10.055737   -3.989984    0.861143
      5          6           0      -11.113227   -1.101058   -2.808415
      6          7           0       -8.558955    0.999754    1.232977
      7          6           0       -8.647476    2.333065    0.870184
      8          6           0       -8.009143    3.309160    1.865067
      9          6           0       -7.157591    2.288619    2.681584
     10          6           0       -7.811224    0.894554    2.337556
     11          6           0       -5.691444    2.298265    2.382876
     12          6           0       -8.975691    4.215166    2.699240
     13          6           0       -8.489722    5.562756    3.117041
     14          1           0       -8.942138    6.019293    4.500409
     15          7           0       -9.004254   -2.025498    1.854419
     16          6           0       -8.199047   -1.608043    2.934785
     17          6           0       -8.054087   -2.722913    3.825805
     18          6           0       -8.891803   -3.760712    3.225911
     19          6           0       -9.333235   -3.264981    1.972429
     20          6           0       -7.309065   -2.683116    5.211159
     21          6           0       -9.194883   -5.091120    3.844356
     22          8           0       -9.871613   -5.964169    3.248347
     23          6           0       -8.770260   -5.466005    5.217219
     24          7           0      -10.316905   -2.389599   -0.805006
     25          6           0      -10.389862   -3.658335   -0.397656
     26          6           0      -10.970977   -4.635640   -1.469218
     27          6           0      -11.683227   -3.578785   -2.393189
     28          6           0      -10.965466   -2.253157   -2.018944
     29          6           0       -9.849252   -5.408415   -2.234954
     30          6           0      -13.235776   -3.461241   -2.089076
     31          6           0      -14.110284   -4.732584   -2.106930
     32          7           0      -10.131980    0.508421   -1.206648
     33          6           0      -10.752686    0.239868   -2.421281
     34          6           0      -10.795573    1.442239   -3.220145
     35          6           0      -10.231066    2.441881   -2.417617
     36          6           0       -9.756440    1.824233   -1.227987
     37          6           0      -11.450840    1.611252   -4.549578
     38          6           0       -9.913400    3.863037   -2.369600
     39          8           0      -10.115527    4.804991   -3.124466
     40          6           0       -9.290328    4.062567   -0.891977
     41          6           0       -8.039166    4.774296   -1.088821
     42          8           0       -7.042571    4.371959   -1.709468
     43          8           0       -8.278626    6.101252   -0.873500
     44          6           0       -7.222879    7.043342   -1.064095
     45          1           0       -7.149733    0.014692    3.993545
     46          1           0      -10.188093   -5.069522    0.956851
     47          1           0      -11.558224   -1.234885   -3.796995
     48          1           0       -7.337837    3.952201    1.295506
     49          1           0       -7.349133    2.398102    3.748613
     50          1           0       -5.479717    1.398733    1.804814
     51          1           0       -5.127245    2.211841    3.311372
     52          1           0       -5.300454    3.147963    1.823541
     53          1           0       -9.180569    3.683385    3.627961
     54          1           0       -9.914868    4.276720    2.150114
     55          1           0       -8.914464    6.228806    2.366262
     56          1           0       -7.427743    5.706051    2.917146
     57          1           0       -7.951984   -2.685602    6.090861
     58          1           0       -6.600906   -1.856241    5.257778
     59          1           0       -6.720684   -3.600088    5.160047
     60          1           0       -7.703438   -5.689954    5.195017
     61          1           0       -9.343818   -6.358964    5.467218
     62          1           0       -9.066439   -4.643298    5.867163
     63          1           0      -11.625698   -5.316888   -0.924721
     64          1           0      -11.557794   -3.727965   -3.465193
     65          1           0       -9.944195   -6.454820   -1.943841
     66          1           0       -8.834280   -5.038227   -2.094093
     67          1           0      -10.170038   -5.284389   -3.270247
     68          1           0      -13.688187   -2.828628   -2.852397
     69          1           0      -13.317057   -2.907387   -1.153969
     70          1           0      -14.545775   -4.780020   -1.108946
     71          1           0      -13.393493   -5.544603   -2.232465
     72          1           0      -14.901095   -4.687593   -2.855574
     73          1           0      -12.061069    0.714994   -4.663462
     74          1           0      -10.643602    1.627595   -5.281781
     75          1           0      -12.006187    2.542960   -4.657188
     76          1           0       -9.978836    4.647621   -0.282520
     77          1           0       -6.289733    6.554227   -1.344434
     78          1           0       -7.076981    7.503867   -0.086911
     79          1           0       -7.527748    7.850363   -1.728810
     80         12           0        9.730317   -0.697384    0.067388
     81          6           0        7.816550    2.233696   -0.443168
     82          6           0       12.207569    1.248959    0.988344
     83          6           0       11.669648   -3.313809   -0.502998
     84          6           0        7.113414   -2.403147   -1.626885
     85          7           0        9.833453    1.542033    0.392734
     86          6           0        8.987132    2.491651    0.224632
     87          6           0        9.494582    3.800495    0.864097
     88          6           0       11.094017    3.593885    0.889570
     89          6           0       11.088049    2.023780    0.670682
     90          6           0       11.924625    4.368979   -0.208386
     91          6           0        8.946063    3.949141    2.378005
     92          6           0        8.641104    5.360818    2.975746
     93          1           0        9.492154    6.555064    2.406234
     94          7           0       11.642972   -1.059051    0.419353
     95          6           0       12.513983   -0.081796    0.877022
     96          6           0       13.872291   -0.706406    1.053410
     97          6           0       13.683529   -2.089556    0.634922
     98          6           0       12.318820   -2.283194    0.137412
     99          6           0       15.060574    0.113155    1.520015
    100          6           0       14.707554   -3.202131    0.682859
    101          8           0       14.513388   -4.355741    0.275080
    102          6           0       16.024635   -2.926367    1.286792
    103          7           0        9.389629   -2.698527   -0.866156
    104          6           0       10.402917   -3.536235   -0.992175
    105          6           0        9.868097   -4.985120   -1.383524
    106          6           0        8.335009   -4.622171   -1.777218
    107          6           0        8.259213   -3.154912   -1.363608
    108          6           0       10.707661   -5.690685   -2.499274
    109          6           0        7.189920   -5.464536   -1.125111
    110          6           0        6.407949   -6.376613   -2.035095
    111          7           0        7.721665   -0.282483   -0.684086
    112          6           0        6.826735   -1.108403   -1.334735
    113          6           0        5.721888   -0.365904   -1.778786
    114          6           0        6.092622    0.959705   -1.483649
    115          6           0        7.313897    1.003583   -0.853832
    116          6           0        4.538163   -0.839898   -2.459467
    117          6           0        5.570238    2.269675   -1.540809
    118          8           0        4.473748    2.792719   -1.878917
    119          6           0        6.799576    3.189237   -1.109349
    120          6           0        6.335015    4.290717   -0.228856
    121          8           0        5.821895    4.202116    0.884689
    122          8           0        6.699589    5.519041   -0.865166
    123          6           0        6.330993    6.763674   -0.178575
    124          1           0       12.953091    1.921567    1.418579
    125          1           0       12.309433   -4.189224   -0.627455
    126          1           0        6.281127   -2.950427   -2.075848
    127          1           0        9.363488    4.587945    0.122367
    128          1           0       11.475079    4.009932    1.821569
    129          1           0       11.284833    4.776906   -0.990625
    130          1           0       12.612386    3.706585   -0.733754
    131          1           0       12.435041    5.173186    0.321429
    132          1           0        9.595702    3.425460    3.079485
    133          1           0        8.034993    3.356515    2.463085
    134          1           0        8.767784    5.416083    4.057426
    135          1           0        7.654380    5.645787    2.608576
    136          1           0       15.642557   -0.404397    2.283448
    137          1           0       14.780649    1.092503    1.908174
    138          1           0       15.641479    0.428881    0.653782
    139          1           0       16.529477   -2.107811    0.772984
    140          1           0       16.644387   -3.822150    1.245922
    141          1           0       16.013742   -2.674007    2.347123
    142          1           0        9.803237   -5.654797   -0.526031
    143          1           0        8.197467   -4.536963   -2.856150
    144          1           0       11.465977   -5.011924   -2.889995
    145          1           0        9.913111   -6.024646   -3.166859
    146          1           0       11.100836   -6.607461   -2.061824
    147          1           0        6.475189   -4.760951   -0.697656
    148          1           0        7.594962   -6.045468   -0.296281
    149          1           0        6.972242   -6.341957   -2.966071
    150          1           0        5.436098   -5.914265   -2.211687
    151          1           0        6.377957   -7.409995   -1.691887
    152          1           0        4.141951   -1.660858   -1.862450
    153          1           0        4.706679   -1.383339   -3.389230
    154          1           0        3.802308   -0.037573   -2.516381
    155          1           0        7.249303    3.598542   -2.014521
    156          1           0        6.576942    7.630504   -0.792496
    157          1           0        6.991810    6.892898    0.678786
    158          1           0        5.254550    6.774069   -0.010794
 ---------------------------------------------------------------------

 SCF Done:  E(RCAM-B3LYP) =  -4069.77505996     A.U. after   19 cycles

 Excitation energies and oscillator strengths:

 Excited State   1:      Singlet-A      1.6589 eV  747.39 nm  f=0.3879  <S**2>=0.000
     310 -> 316       -0.15606
     312 -> 313        0.69168
     310 <- 316       -0.10430
 This state for optimization and/or second-order correction.
 Total Energy, E(TD-HF/TD-DFT) =  -4069.71409695
 Copying the excited state density for this state as the 1-particle RhoCI density.

 Excited State   2:      Singlet-A      1.7996 eV  688.94 nm  f=0.3702  <S**2>=0.000
     309 -> 315       -0.21210
     311 -> 314        0.67497
     309 <- 315       -0.10953

 Excited State   3:      Singlet-A      2.1783 eV  569.19 nm  f=0.2032  <S**2>=0.000
     310 -> 313        0.66732
     312 -> 316        0.21679

 Excited State   4:      Singlet-A      2.2249 eV  557.26 nm  f=0.0859  <S**2>=0.000
     309 -> 314        0.62886
     311 -> 315        0.30813

 Excited State   5:      Singlet-A      2.8239 eV  439.05 nm  f=0.0000  <S**2>=0.000
     311 -> 313        0.70704

 The electronic state is 1-A.
 Alpha  occ. eigenvalues --  -46.89393 -46.88740 -19.24586 -19.23953 -19.20232
 Alpha  occ. eigenvalues --  -19.19720 -19.19191 -19.19000 -19.18439 -19.17308
 Alpha  occ. eigenvalues --  -14.42154 -14.42143 -14.41722 -14.41275 -14.39974
 Alpha  occ. eigenvalues --  -14.39553 -14.39410 -14.38565 -10.39304 -10.38922
 Alpha  occ. eigenvalues --  -10.35803 -10.35128 -10.34477 -10.33867 -10.31524
 Alpha  occ. eigenvalues --  -10.31260 -10.31104 -10.30963 -10.30881 -10.30750
 Alpha  occ. eigenvalues --  -10.30713 -10.30626 -10.30616 -10.30561 -10.30549
 Alpha  occ. eigenvalues --  -10.30308 -10.30292 -10.30247 -10.30208 -10.29705
 Alpha  occ. eigenvalues --  -10.29364 -10.28909 -10.28908 -10.28768 -10.28675
 Alpha  occ. eigenvalues --  -10.28654 -10.28569 -10.28393 -10.28385 -10.28303
 Alpha  occ. eigenvalues --  -10.28111 -10.28017 -10.27995 -10.27988 -10.27950
 Alpha  occ. eigenvalues --  -10.27836 -10.27817 -10.27803 -10.27760 -10.27625
 Alpha  occ. eigenvalues --  -10.27591 -10.27541 -10.27515 -10.27462 -10.27257
 Alpha  occ. eigenvalues --  -10.27229 -10.26976 -10.26867 -10.26568 -10.26383
 Alpha  occ. eigenvalues --  -10.26380 -10.26274 -10.26224 -10.26045 -10.26026
 Alpha  occ. eigenvalues --  -10.25874 -10.25833 -10.25828 -10.25806 -10.25518
 Alpha  occ. eigenvalues --  -10.25459 -10.25446 -10.25425 -10.25392 -10.25378
 Alpha  occ. eigenvalues --  -10.24635  -3.17847  -3.17401  -1.92751  -1.92313
 Alpha  occ. eigenvalues --   -1.92270  -1.92133  -1.91853  -1.91723  -1.16313
 Alpha  occ. eigenvalues --   -1.13978  -1.10052  -1.09424  -1.07342  -1.07278
 Alpha  occ. eigenvalues --   -1.06793  -1.06735  -1.05785  -1.05210  -1.04760
 Alpha  occ. eigenvalues --   -1.03865  -1.03510  -1.03486  -1.02372  -1.01469
 Alpha  occ. eigenvalues --   -0.93529  -0.92956  -0.89496  -0.89357  -0.88660
 Alpha  occ. eigenvalues --   -0.88609  -0.87898  -0.87895  -0.87547  -0.87380
 Alpha  occ. eigenvalues --   -0.87304  -0.86910  -0.86687  -0.86085  -0.84554
 Alpha  occ. eigenvalues --   -0.84278  -0.83970  -0.83866  -0.83004  -0.82724
 Alpha  occ. eigenvalues --   -0.82071  -0.81927  -0.81512  -0.80897  -0.80717
 Alpha  occ. eigenvalues --   -0.80673  -0.78967  -0.78421  -0.77710  -0.77302
 Alpha  occ. eigenvalues --   -0.77133  -0.76977  -0.76039  -0.75894  -0.75289
 Alpha  occ. eigenvalues --   -0.75237  -0.73218  -0.73198  -0.72256  -0.70781
 Alpha  occ. eigenvalues --   -0.69138  -0.68931  -0.68589  -0.68482  -0.68002
 Alpha  occ. eigenvalues --   -0.67937  -0.67236  -0.66789  -0.65926  -0.65663
 Alpha  occ. eigenvalues --   -0.65599  -0.65516  -0.64995  -0.64734  -0.64602
 Alpha  occ. eigenvalues --   -0.64322  -0.61859  -0.61261  -0.60609  -0.60537
 Alpha  occ. eigenvalues --   -0.60146  -0.59618  -0.59341  -0.59286  -0.58678
 Alpha  occ. eigenvalues --   -0.58349  -0.58239  -0.57740  -0.57523  -0.57337
 Alpha  occ. eigenvalues --   -0.56994  -0.55768  -0.55724  -0.55481  -0.55461
 Alpha  occ. eigenvalues --   -0.54703  -0.54463  -0.54453  -0.54074  -0.53794
 Alpha  occ. eigenvalues --   -0.53539  -0.53503  -0.53220  -0.53058  -0.52965
 Alpha  occ. eigenvalues --   -0.52722  -0.52611  -0.52484  -0.52395  -0.52244
 Alpha  occ. eigenvalues --   -0.52240  -0.51603  -0.51570  -0.51269  -0.51106
 Alpha  occ. eigenvalues --   -0.51067  -0.50911  -0.50873  -0.50553  -0.50340
 Alpha  occ. eigenvalues --   -0.50162  -0.49866  -0.49720  -0.49675  -0.49586
 Alpha  occ. eigenvalues --   -0.49563  -0.49318  -0.49207  -0.49062  -0.48780
 Alpha  occ. eigenvalues --   -0.48669  -0.48581  -0.48377  -0.48152  -0.48049
 Alpha  occ. eigenvalues --   -0.47988  -0.47807  -0.47708  -0.47616  -0.47436
 Alpha  occ. eigenvalues --   -0.47319  -0.47135  -0.47033  -0.46793  -0.46340
 Alpha  occ. eigenvalues --   -0.46298  -0.46224  -0.46098  -0.46046  -0.45781
 Alpha  occ. eigenvalues --   -0.45578  -0.45334  -0.45217  -0.44966  -0.44905
 Alpha  occ. eigenvalues --   -0.44781  -0.44642  -0.44239  -0.44229  -0.43929
 Alpha  occ. eigenvalues --   -0.43909  -0.43785  -0.43563  -0.43551  -0.43338
 Alpha  occ. eigenvalues --   -0.43118  -0.42991  -0.42941  -0.42702  -0.42616
 Alpha  occ. eigenvalues --   -0.42522  -0.41962  -0.41938  -0.41839  -0.41705
 Alpha  occ. eigenvalues --   -0.41585  -0.41431  -0.41179  -0.41163  -0.41057
 Alpha  occ. eigenvalues --   -0.40748  -0.40646  -0.40555  -0.40507  -0.40287
 Alpha  occ. eigenvalues --   -0.40055  -0.39676  -0.39318  -0.39079  -0.39044
 Alpha  occ. eigenvalues --   -0.38485  -0.38450  -0.38062  -0.37831  -0.37603
 Alpha  occ. eigenvalues --   -0.37399  -0.37019  -0.36449  -0.36240  -0.36122
 Alpha  occ. eigenvalues --   -0.35661  -0.35600  -0.34483  -0.34453  -0.34093
 Alpha  occ. eigenvalues --   -0.33906  -0.33549  -0.32976  -0.31794  -0.31409
 Alpha  occ. eigenvalues --   -0.31297  -0.31225  -0.30497  -0.30241  -0.29995
 Alpha  occ. eigenvalues --   -0.29737  -0.29671  -0.29287  -0.24160  -0.24114
 Alpha  occ. eigenvalues --   -0.21670  -0.21571
 Alpha virt. eigenvalues --   -0.09500  -0.08610  -0.02649  -0.00616  -0.00235
 Alpha virt. eigenvalues --    0.00448   0.01891   0.02260   0.02316   0.02401
 Alpha virt. eigenvalues --    0.04136   0.04572   0.05157   0.05483   0.05602

 Mulliken charges:
               1
     1  Mg   0.846861
     2  C    0.005673
     3  C   -0.054769
     4  C   -0.031641
     5  C   -0.072856
     6  N   -0.231463
     7  C   -0.075500
     8  C   -0.050082
     9  C   -0.049571
    10  C   -0.041698
    11  C    0.095110
    12  C    0.083196
    13  C   -0.057958
    14  H    0.036684
    15  N   -0.406810
    16  C    0.180079
    17  C   -0.159224
    18  C   -0.027723
    19  C    0.117558
    20  C    0.116889
    21  C   -0.040835
    22  O   -0.245141
    23  C    0.073655
    24  N   -0.320089
    25  C    0.020800
    26  C   -0.057411
    27  C   -0.052456
    28  C    0.068322
    29  C    0.098158
    30  C    0.007980
    31  C    0.024837
    32  N   -0.315216
    33  C    0.106006
    34  C   -0.190345
    35  C    0.005637
    36  C    0.086825
    37  C    0.131678
    38  C    0.080080
    39  O   -0.155729
    40  C    0.008027
    41  C    0.184132
    42  O   -0.239478
    43  O   -0.319237
    44  C    0.169961
    45  H   -0.033208
    46  H   -0.013851
    47  H   -0.021144
    48  H    0.011021
    49  H   -0.000596
    50  H    0.023021
    51  H    0.012156
    52  H    0.027918
    53  H    0.007892
    54  H    0.007032
    55  H    0.024442
    56  H    0.021761
    57  H    0.046045
    58  H    0.017494
    59  H    0.021780
    60  H    0.041653
    61  H    0.028183
    62  H    0.025051
    63  H    0.021727
    64  H   -0.000354
    65  H    0.023302
    66  H    0.038118
    67  H    0.006995
    68  H   -0.000390
    69  H    0.009472
    70  H    0.020033
    71  H    0.016480
    72  H    0.025295
    73  H    0.010207
    74  H    0.036273
    75  H    0.041196
    76  H    0.041736
    77  H    0.050687
    78  H    0.015969
    79  H    0.043686
    80  Mg   0.815417
    81  C    0.016144
    82  C   -0.078706
    83  C   -0.039493
    84  C   -0.091578
    85  N   -0.224073
    86  C   -0.122447
    87  C    0.024867
    88  C   -0.108502
    89  C    0.025530
    90  C    0.065592
    91  C    0.060488
    92  C   -0.072491
    93  H   -0.016480
    94  N   -0.489138
    95  C    0.213653
    96  C   -0.139533
    97  C   -0.019722
    98  C    0.151431
    99  C    0.115755
   100  C    0.006941
   101  O   -0.211201
   102  C    0.033148
   103  N   -0.209858
   104  C    0.015552
   105  C   -0.071822
   106  C   -0.031080
   107  C   -0.009465
   108  C    0.089629
   109  C    0.026574
   110  C    0.020938
   111  N   -0.334522
   112  C    0.140897
   113  C   -0.143408
   114  C    0.021257
   115  C    0.107330
   116  C    0.141223
   117  C    0.059977
   118  O   -0.215734
   119  C   -0.028737
   120  C    0.225931
   121  O   -0.218857
   122  O   -0.379368
   123  C    0.184934
   124  H   -0.030893
   125  H   -0.007180
   126  H   -0.039567
   127  H    0.000492
   128  H    0.019114
   129  H    0.015758
   130  H    0.018208
   131  H    0.022186
   132  H    0.004486
   133  H    0.032871
   134  H    0.041934
   135  H    0.060289
   136  H    0.034264
   137  H    0.007939
   138  H    0.037087
   139  H    0.032545
   140  H    0.024216
   141  H    0.038587
   142  H    0.021560
   143  H    0.009607
   144  H    0.040280
   145  H    0.007298
   146  H    0.016171
   147  H    0.010485
   148  H   -0.000395
   149  H    0.002986
   150  H    0.019147
   151  H    0.023604
   152  H    0.007307
   153  H    0.022120
   154  H    0.047592
   155  H    0.051958
   156  H    0.025165
   157  H    0.027111
   158  H    0.048676
 Sum of Mulliken charges =  -0.00000

 Dipole moment (field-independent basis, Debye):
    X=              4.1244    Y=             -0.0377    Z=              4.5776  Tot=              6.1617
 Quadrupole moment (field-independent basis, Debye-Ang):
   XX=           -433.5867   YY=           -516.6976   ZZ=           -497.2146
   XY=             36.0308   XZ=              6.0416   YZ=             35.6424

 Normal termination of Gaussian 16 at Tue Sep 14 19:50:54 2021.
