 Gaussian 16, Revision A.03,
 Gaussian 16:  ES64L-G16RevA.03 25-Dec-2016

 ----------------------------------------------------------
 #p cam-b3lyp/Def2SVP td=(nstates=5) density=(transition=1)
 ----------------------------------------------------------

 --------------------------------
 TDDFT excited states in gaussian
 --------------------------------
 Symbolic Z-matrix:
 Charge =  0 Multiplicity = 1

                         Standard orientation:
 ---------------------------------------------------------------------
 Center     Atomic      Atomic             Coordinates (Angstroms)
 Number     Number       Type             X           Y           Z
 ---------------------------------------------------------------------
      1         12           0      -33.061616   -0.017455   -0.108153
      2          6           0      -29.741497    0.879409   -0.028704
      3          6           0      -32.310117   -3.272406    0.645472
      4          6           0      -36.459972   -0.860948   -0.002751
      5          6           0      -33.984156    3.309259   -0.018121
      6          7           0      -31.197061   -0.962170    0.468245
      7          6           0      -29.897713   -0.487484    0.269613
      8          6           0      -28.852883   -1.533526    0.666352
      9          6           0      -29.750224   -2.797144    0.674583
     10          6           0      -31.222047   -2.335815    0.680527
     11          6           0      -29.377647   -3.812273   -0.428044
     12          6           0      -28.199978   -1.219707    2.027084
     13          6           0      -26.651674   -1.440029    2.136411
     14          1           0      -26.141766   -1.841899    3.465102
     15          7           0      -34.178090   -1.793707    0.209833
     16          6           0      -33.690476   -3.038960    0.413300
     17          6           0      -34.693365   -4.056043    0.307632
     18          6           0      -35.893936   -3.403153   -0.016680
     19          6           0      -35.541128   -1.923692    0.023951
     20          6           0      -34.410798   -5.558492    0.369495
     21          6           0      -37.293425   -4.067432   -0.282033
     22          8           0      -37.405960   -5.309326   -0.118516
     23          6           0      -38.557965   -3.274231   -0.827378
     24          7           0      -34.952972    1.077645    0.279552
     25          6           0      -36.177078    0.517258    0.123853
     26          6           0      -37.284099    1.536838    0.043195
     27          6           0      -36.525888    2.881127    0.085414
     28          6           0      -35.066642    2.418640    0.075670
     29          6           0      -38.252421    1.355685   -1.172525
     30          6           0      -36.978519    3.825710    1.298491
     31          6           0      -37.858249    5.013233    0.890824
     32          7           0      -32.102923    1.757202   -0.094369
     33          6           0      -32.581320    3.085989   -0.089554
     34          6           0      -31.463453    4.003787   -0.345609
     35          6           0      -30.365652    3.156262   -0.399238
     36          6           0      -30.811473    1.854463   -0.117370
     37          6           0      -31.450631    5.483876   -0.486361
     38          6           0      -28.906039    3.133246   -0.570956
     39          8           0      -28.107915    3.991411   -0.982298
     40          6           0      -28.439877    1.634308   -0.380246
     41          6           0      -27.780344    1.093335   -1.641702
     42          8           0      -28.171836    1.210532   -2.807199
     43          8           0      -26.633629    0.519414   -1.178944
     44          6           0      -25.688143    0.058634   -2.181877
     45          1           0      -32.082962   -4.314478    0.879475
     46          1           0      -37.541409   -0.998748   -0.066544
     47          1           0      -34.207301    4.377944   -0.002943
     48          1           0      -28.059971   -1.559481   -0.081861
     49          1           0      -29.519169   -3.259520    1.634181
     50          1           0      -28.383077   -3.781269   -0.872930
     51          1           0      -30.047544   -3.595790   -1.260057
     52          1           0      -29.507802   -4.843260   -0.099900
     53          1           0      -28.691025   -1.724250    2.858752
     54          1           0      -28.484442   -0.189253    2.241391
     55          1           0      -26.142785   -0.523153    1.839096
     56          1           0      -26.373632   -2.261197    1.474271
     57          1           0      -34.793775   -5.965730   -0.565959
     58          1           0      -34.751722   -5.957391    1.324953
     59          1           0      -33.324984   -5.630743    0.307775
     60          1           0      -39.037848   -2.836238    0.047036
     61          1           0      -39.212831   -4.021287   -1.275278
     62          1           0      -38.199243   -2.662684   -1.655727
     63          1           0      -37.899478    1.433731    0.937031
     64          1           0      -36.530292    3.469298   -0.831969
     65          1           0      -38.446085    2.302673   -1.675569
     66          1           0      -39.214320    0.932787   -0.883259
     67          1           0      -37.838228    0.607772   -1.847409
     68          1           0      -36.131944    4.296518    1.798076
     69          1           0      -37.452414    3.229699    2.078347
     70          1           0      -38.632390    5.171299    1.641913
     71          1           0      -38.330035    4.808393   -0.069954
     72          1           0      -37.311668    5.948664    0.772588
     73          1           0      -32.487169    5.820875   -0.473678
     74          1           0      -30.785015    5.774466   -1.299384
     75          1           0      -31.046054    5.867776    0.450757
     76          1           0      -27.775179    1.511307    0.475240
     77          1           0      -26.148751   -0.487178   -3.006284
     78          1           0      -24.855531   -0.553158   -1.834699
     79          1           0      -25.172776    0.913856   -2.619769
     80         12           0       32.982427    0.327732   -0.640900
     81          6           0       30.309532   -1.392749    0.978133
     82          6           0       31.972334    3.024801    1.007590
     83          6           0       35.975152    1.763103   -1.277146
     84          6           0       34.259924   -2.909981   -1.406021
     85          7           0       31.322243    0.774495    0.676611
     86          6           0       30.277346   -0.044019    1.157486
     87          6           0       29.271309    0.720591    2.074334
     88          6           0       29.835679    2.167659    2.000293
     89          6           0       31.079701    2.021163    1.098678
     90          6           0       28.706443    3.077475    1.488650
     91          6           0       29.107630    0.215051    3.572493
     92          6           0       27.752010   -0.367302    3.955484
     93          1           0       27.018837    0.268911    5.154049
     94          7           0       33.827061    2.127222   -0.302340
     95          6           0       33.217074    3.141933    0.434912
     96          6           0       33.985754    4.319303    0.384107
     97          6           0       35.100425    4.069916   -0.395072
     98          6           0       35.046996    2.652762   -0.692040
     99          6           0       33.683684    5.722973    1.028583
    100          6           0       36.114513    5.133239   -0.746160
    101          8           0       35.989021    6.293266   -0.487812
    102          6           0       37.354040    4.636726   -1.640997
    103          7           0       34.882014   -0.453715   -1.185905
    104          6           0       35.946343    0.372275   -1.424663
    105          6           0       37.195275   -0.557047   -1.714205
    106          6           0       36.670622   -1.992360   -1.885784
    107          6           0       35.168234   -1.798958   -1.449869
    108          6           0       38.117830   -0.059990   -2.790687
    109          6           0       37.369665   -2.910960   -0.891317
    110          6           0       37.408984   -4.380252   -1.217840
    111          7           0       32.305526   -1.743308   -0.519259
    112          6           0       32.920727   -2.914055   -0.893549
    113          6           0       32.061492   -4.016883   -0.657773
    114          6           0       30.934499   -3.510779    0.032128
    115          6           0       31.219845   -2.124390    0.183390
    116          6           0       32.339616   -5.444465   -0.909586
    117          6           0       29.652743   -3.763096    0.704323
    118          8           0       29.021934   -4.825293    0.789987
    119          6           0       29.163624   -2.402055    1.332797
    120          6           0       27.997421   -1.947280    0.623701
    121          8           0       28.089760   -1.447279   -0.522356
    122          8           0       26.927031   -2.219061    1.395865
    123          6           0       25.600884   -1.677145    0.991295
    124          1           0       31.646626    3.941414    1.504466
    125          1           0       36.904947    2.276795   -1.530694
    126          1           0       34.545013   -3.913770   -1.726854
    127          1           0       28.278081    0.701115    1.625865
    128          1           0       30.190347    2.546202    2.958466
    129          1           0       29.154780    4.049371    1.284498
    130          1           0       27.870413    3.229295    2.171237
    131          1           0       28.261993    2.707523    0.564008
    132          1           0       29.162028    1.130421    4.161803
    133          1           0       29.924514   -0.458578    3.831610
    134          1           0       27.898759   -1.431893    4.140920
    135          1           0       27.064042   -0.251801    3.117210
    136          1           0       34.570192    5.973760    1.611445
    137          1           0       32.815412    5.691605    1.686595
    138          1           0       33.393210    6.512302    0.335317
    139          1           0       37.910940    5.538308   -1.894414
    140          1           0       36.864557    4.148185   -2.483849
    141          1           0       37.857393    3.948212   -0.962325
    142          1           0       37.766582   -0.496927   -0.787201
    143          1           0       36.763255   -2.435299   -2.877363
    144          1           0       38.586977   -0.922461   -3.263340
    145          1           0       38.846760    0.575488   -2.287372
    146          1           0       37.651197    0.612146   -3.509872
    147          1           0       36.977247   -2.822370    0.122143
    148          1           0       38.401176   -2.609889   -0.708563
    149          1           0       37.095715   -4.596893   -2.238966
    150          1           0       36.735939   -4.891076   -0.528940
    151          1           0       38.374298   -4.809418   -0.949530
    152          1           0       33.034762   -5.579659   -1.738803
    153          1           0       31.373465   -5.891130   -1.145664
    154          1           0       32.806753   -5.812750    0.004074
    155          1           0       29.045102   -2.415590    2.416260
    156          1           0       24.953102   -2.479908    1.346511
    157          1           0       25.511902   -1.471198   -0.074962
    158          1           0       25.295616   -0.848644    1.631323
 ---------------------------------------------------------------------

 SCF Done:  E(RCAM-B3LYP) =  -4069.82766554     A.U. after   19 cycles

 Excitation energies and oscillator strengths:

 Excited State   1:      Singlet-A      1.7088 eV  725.55 nm  f=0.3595  <S**2>=0.000
     310 -> 315        0.17446
     312 -> 314        0.68609
     310 <- 315        0.10518
 This state for optimization and/or second-order correction.
 Total Energy, E(TD-HF/TD-DFT) =  -4069.76486755
 Copying the excited state density for this state as the 1-particle RhoCI density.

 Excited State   2:      Singlet-A      1.7225 eV  719.79 nm  f=0.3903  <S**2>=0.000
     309 -> 316       -0.17109
     311 -> 313        0.68746
     309 <- 316       -0.10386

 Excited State   3:      Singlet-A      2.2476 eV  551.64 nm  f=0.0941  <S**2>=0.000
     310 -> 314        0.62547
     312 -> 315       -0.31550

 Excited State   4:      Singlet-A      2.2584 eV  549.00 nm  f=0.1166  <S**2>=0.000
     309 -> 313        0.63725
     311 -> 316        0.28973

 Excited State   5:      Singlet-A      3.2147 eV  385.68 nm  f=0.0000  <S**2>=0.000
     312 -> 313        0.70711

 The electronic state is 1-A.
 Alpha  occ. eigenvalues --  -46.89180 -46.88512 -19.26508 -19.26368 -19.20271
 Alpha  occ. eigenvalues --  -19.19691 -19.19665 -19.19641 -19.18735 -19.18452
 Alpha  occ. eigenvalues --  -14.42535 -14.42413 -14.42183 -14.42179 -14.40234
 Alpha  occ. eigenvalues --  -14.39507 -14.39115 -14.38470 -10.39962 -10.39508
 Alpha  occ. eigenvalues --  -10.36682 -10.35479 -10.35392 -10.34758 -10.32843
 Alpha  occ. eigenvalues --  -10.32206 -10.32056 -10.31638 -10.31599 -10.31496
 Alpha  occ. eigenvalues --  -10.31191 -10.31099 -10.30991 -10.30601 -10.30486
 Alpha  occ. eigenvalues --  -10.30478 -10.30406 -10.29681 -10.29618 -10.29011
 Alpha  occ. eigenvalues --  -10.28820 -10.28688 -10.28499 -10.28485 -10.28356
 Alpha  occ. eigenvalues --  -10.28340 -10.28214 -10.28164 -10.28138 -10.28026
 Alpha  occ. eigenvalues --  -10.28025 -10.28021 -10.27978 -10.27956 -10.27920
 Alpha  occ. eigenvalues --  -10.27779 -10.27749 -10.27717 -10.27621 -10.27617
 Alpha  occ. eigenvalues --  -10.27477 -10.27314 -10.27301 -10.27186 -10.27110
 Alpha  occ. eigenvalues --  -10.27090 -10.26995 -10.26922 -10.26920 -10.26839
 Alpha  occ. eigenvalues --  -10.26741 -10.26576 -10.26442 -10.26360 -10.26286
 Alpha  occ. eigenvalues --  -10.26258 -10.26060 -10.26000 -10.25979 -10.25845
 Alpha  occ. eigenvalues --  -10.25768 -10.25756 -10.25438 -10.25168 -10.24837
 Alpha  occ. eigenvalues --  -10.24593  -3.17713  -3.17110  -1.92579  -1.92155
 Alpha  occ. eigenvalues --   -1.92043  -1.91987  -1.91545  -1.91436  -1.16843
 Alpha  occ. eigenvalues --   -1.16645  -1.11982  -1.08667  -1.08623  -1.08366
 Alpha  occ. eigenvalues --   -1.07758  -1.07398  -1.04681  -1.04119  -1.04010
 Alpha  occ. eigenvalues --   -1.03526  -1.03181  -1.02837  -1.02157  -1.01747
 Alpha  occ. eigenvalues --   -0.92214  -0.91425  -0.89668  -0.89348  -0.88882
 Alpha  occ. eigenvalues --   -0.88843  -0.88711  -0.88701  -0.87334  -0.87285
 Alpha  occ. eigenvalues --   -0.86993  -0.86645  -0.86507  -0.86398  -0.84818
 Alpha  occ. eigenvalues --   -0.84319  -0.84239  -0.83902  -0.83298  -0.82513
 Alpha  occ. eigenvalues --   -0.81912  -0.81644  -0.81136  -0.81127  -0.80314
 Alpha  occ. eigenvalues --   -0.80197  -0.77943  -0.77730  -0.77483  -0.77379
 Alpha  occ. eigenvalues --   -0.76750  -0.76685  -0.76258  -0.75894  -0.75299
 Alpha  occ. eigenvalues --   -0.75131  -0.72754  -0.72712  -0.71730  -0.71724
 Alpha  occ. eigenvalues --   -0.69259  -0.69203  -0.68975  -0.68619  -0.67891
 Alpha  occ. eigenvalues --   -0.67757  -0.67257  -0.67244  -0.66135  -0.65699
 Alpha  occ. eigenvalues --   -0.65604  -0.65084  -0.64999  -0.64999  -0.64562
 Alpha  occ. eigenvalues --   -0.64561  -0.62693  -0.62240  -0.60147  -0.59952
 Alpha  occ. eigenvalues --   -0.59634  -0.59601  -0.59432  -0.58928  -0.58612
 Alpha  occ. eigenvalues --   -0.58520  -0.58214  -0.57735  -0.57240  -0.57147
 Alpha  occ. eigenvalues --   -0.56412  -0.56046  -0.55972  -0.55763  -0.55350
 Alpha  occ. eigenvalues --   -0.55022  -0.54976  -0.54692  -0.54280  -0.53816
 Alpha  occ. eigenvalues --   -0.53772  -0.53376  -0.53169  -0.53145  -0.52876
 Alpha  occ. eigenvalues --   -0.52800  -0.52603  -0.52478  -0.52406  -0.52019
 Alpha  occ. eigenvalues --   -0.51683  -0.51592  -0.51478  -0.51361  -0.51237
 Alpha  occ. eigenvalues --   -0.51186  -0.51105  -0.50877  -0.50579  -0.50350
 Alpha  occ. eigenvalues --   -0.50158  -0.49966  -0.49949  -0.49866  -0.49468
 Alpha  occ. eigenvalues --   -0.49334  -0.49176  -0.49061  -0.48923  -0.48516
 Alpha  occ. eigenvalues --   -0.48429  -0.48272  -0.48259  -0.48151  -0.48062
 Alpha  occ. eigenvalues --   -0.47852  -0.47689  -0.47520  -0.47484  -0.47480
 Alpha  occ. eigenvalues --   -0.47185  -0.46959  -0.46868  -0.46583  -0.46419
 Alpha  occ. eigenvalues --   -0.46391  -0.46296  -0.46088  -0.46010  -0.45614
 Alpha  occ. eigenvalues --   -0.45574  -0.45306  -0.45258  -0.45153  -0.44924
 Alpha  occ. eigenvalues --   -0.44779  -0.44734  -0.44439  -0.44317  -0.44125
 Alpha  occ. eigenvalues --   -0.44125  -0.43796  -0.43776  -0.43714  -0.43487
 Alpha  occ. eigenvalues --   -0.43466  -0.43288  -0.43285  -0.43084  -0.42949
 Alpha  occ. eigenvalues --   -0.42798  -0.42561  -0.42476  -0.42458  -0.42307
 Alpha  occ. eigenvalues --   -0.42125  -0.41963  -0.41935  -0.41660  -0.41639
 Alpha  occ. eigenvalues --   -0.41585  -0.41155  -0.40802  -0.40609  -0.40586
 Alpha  occ. eigenvalues --   -0.40214  -0.40113  -0.39720  -0.39366  -0.39158
 Alpha  occ. eigenvalues --   -0.38687  -0.38390  -0.38387  -0.38225  -0.38160
 Alpha  occ. eigenvalues --   -0.37607  -0.37387  -0.37217  -0.36859  -0.36703
 Alpha  occ. eigenvalues --   -0.36421  -0.36001  -0.34875  -0.34800  -0.34339
 Alpha  occ. eigenvalues --   -0.34166  -0.33038  -0.32933  -0.31791  -0.31588
 Alpha  occ. eigenvalues --   -0.31204  -0.30894  -0.30757  -0.30554  -0.30499
 Alpha  occ. eigenvalues --   -0.30458  -0.29841  -0.28930  -0.24272  -0.24205
 Alpha  occ. eigenvalues --   -0.21253  -0.21088
 Alpha virt. eigenvalues --   -0.08754  -0.08587  -0.02028  -0.01699   0.00166
 Alpha virt. eigenvalues --    0.00568   0.01633   0.01974   0.02183   0.02736
 Alpha virt. eigenvalues --    0.04555   0.04749   0.04981   0.05042   0.05637

 Mulliken charges:
               1
     1  Mg  12.002037
     2  C    5.967251
     3  C    6.018431
     4  C    6.032193
     5  C    5.994947
     6  N    6.983794
     7  C    6.038671
     8  C    5.992292
     9  C    6.009503
    10  C    5.965648
    11  C    6.003176
    12  C    6.000322
    13  C    5.998564
    14  H    1.004122
    15  N    7.009775
    16  C    5.958180
    17  C    5.980622
    18  C    5.986709
    19  C    5.951992
    20  C    6.003254
    21  C    5.990225
    22  O    7.979547
    23  C    5.998680
    24  N    7.007866
    25  C    5.959127
    26  C    6.013498
    27  C    5.991146
    28  C    6.032585
    29  C    6.000615
    30  C    5.996541
    31  C    5.999125
    32  N    6.997617
    33  C    6.043555
    34  C    6.023518
    35  C    6.005524
    36  C    6.031156
    37  C    5.996289
    38  C    6.015928
    39  O    8.031985
    40  C    6.001556
    41  C    6.005282
    42  O    8.002141
    43  O    8.001702
    44  C    5.997878
    45  H    0.989822
    46  H    0.994597
    47  H    1.013919
    48  H    0.998268
    49  H    0.994039
    50  H    0.985993
    51  H    0.999104
    52  H    1.000565
    53  H    1.009426
    54  H    0.992122
    55  H    0.995013
    56  H    1.004336
    57  H    0.984485
    58  H    0.982016
    59  H    0.983208
    60  H    0.989749
    61  H    0.988666
    62  H    0.991649
    63  H    0.997813
    64  H    0.996767
    65  H    0.988903
    66  H    1.001740
    67  H    1.003142
    68  H    0.996300
    69  H    1.012112
    70  H    1.005629
    71  H    1.005799
    72  H    0.997592
    73  H    1.016661
    74  H    1.016982
    75  H    1.020397
    76  H    1.007631
    77  H    1.005122
    78  H    1.005454
    79  H    1.000415
    80  Mg  11.999999
    81  C    5.999797
    82  C    5.999997
    83  C    6.000225
    84  C    5.999980
    85  N    6.999916
    86  C    6.000217
    87  C    5.999940
    88  C    6.000065
    89  C    5.999855
    90  C    6.000027
    91  C    5.999993
    92  C    5.999997
    93  H    1.000018
    94  N    7.000000
    95  C    5.999865
    96  C    5.999849
    97  C    5.999965
    98  C    5.999744
    99  C    6.000031
   100  C    5.999950
   101  O    7.999904
   102  C    5.999987
   103  N    7.000033
   104  C    5.999813
   105  C    6.000009
   106  C    5.999987
   107  C    6.000127
   108  C    6.000003
   109  C    5.999941
   110  C    5.999986
   111  N    7.000046
   112  C    6.000152
   113  C    6.000152
   114  C    6.000039
   115  C    6.000178
   116  C    5.999962
   117  C    6.000098
   118  O    8.000166
   119  C    6.000026
   120  C    6.000001
   121  O    8.000022
   122  O    8.000007
   123  C    5.999994
   124  H    0.999917
   125  H    0.999960
   126  H    1.000067
   127  H    0.999993
   128  H    0.999978
   129  H    1.000022
   130  H    0.999920
   131  H    0.999937
   132  H    1.000041
   133  H    0.999998
   134  H    0.999984
   135  H    0.999985
   136  H    0.999914
   137  H    0.999895
   138  H    0.999882
   139  H    0.999946
   140  H    0.999963
   141  H    0.999969
   142  H    1.000004
   143  H    1.000026
   144  H    0.999964
   145  H    1.000027
   146  H    1.000008
   147  H    1.000014
   148  H    1.000080
   149  H    1.000005
   150  H    0.999975
   151  H    1.000045
   152  H    1.000106
   153  H    1.000084
   154  H    1.000133
   155  H    1.000056
   156  H    1.000010
   157  H    1.000008
   158  H    1.000021
 Sum of Mulliken charges = 624.00000

 Dipole moment (field-independent basis, Debye):
    X=              4.7667    Y=              9.3739    Z=             -0.5951  Tot=             10.5331
 Quadrupole moment (field-independent basis, Debye-Ang):
   XX=           -315.6786   YY=             -0.0945   ZZ=              0.4329
   XY=           -315.1944   XZ=             16.4484   YZ=             -0.4647

 Normal termination of Gaussian 16 at Thu Sep 23 12:10:17 2021.
