 Gaussian 16, Revision A.03,
 Gaussian 16:  ES64L-G16RevA.03 25-Dec-2016

 -----------------------------------
 #p cam-b3lyp/Def2SVP td=(nstates=5)
 -----------------------------------

 --------------------------------
 TDDFT excited states in gaussian
 --------------------------------
 Symbolic Z-matrix:
 Charge =  0 Multiplicity = 1

                         Standard orientation:
 ---------------------------------------------------------------------
 Center     Atomic      Atomic             Coordinates (Angstroms)
 Number     Number       Type             X           Y           Z
 ---------------------------------------------------------------------
      1         12           0      -14.412834   -0.149627    0.524879
      2          6           0      -12.554796    1.867642   -1.667061
      3          6           0      -16.112099   -1.346869   -2.162395
      4          6           0      -15.745700   -2.275600    2.622520
      5          6           0      -11.893618    0.677239    2.961321
      6          7           0      -14.364659    0.283376   -1.615814
      7          6           0      -13.524687    1.117171   -2.298504
      8          6           0      -13.662579    0.814563   -3.798091
      9          6           0      -15.086074    0.274286   -3.878419
     10          6           0      -15.146712   -0.384693   -2.487014
     11          6           0      -16.145676    1.389964   -4.030550
     12          6           0      -12.594317   -0.238892   -4.272351
     13          6           0      -11.451774    0.239430   -5.296557
     14          1           0       -9.977935    0.155257   -4.864373
     15          7           0      -15.702052   -1.648637    0.260913
     16          6           0      -16.317559   -1.979184   -0.924500
     17          6           0      -17.308029   -2.972670   -0.649925
     18          6           0      -17.350275   -3.217892    0.762471
     19          6           0      -16.240013   -2.380837    1.302595
     20          6           0      -18.206687   -3.621190   -1.757961
     21          6           0      -18.387244   -4.154672    1.482003
     22          8           0      -19.276881   -4.649610    0.860971
     23          6           0      -18.404525   -4.174190    2.939614
     24          7           0      -13.697319   -0.953526    2.418785
     25          6           0      -14.680883   -1.523964    3.154441
     26          6           0      -14.494959   -1.336821    4.650882
     27          6           0      -13.101425   -0.736014    4.754396
     28          6           0      -12.853511   -0.300318    3.268411
     29          6           0      -15.591412   -0.409766    5.294488
     30          6           0      -11.901126   -1.619974    5.338392
     31          6           0      -11.309339   -1.362427    6.698183
     32          7           0      -12.739945    1.152379    0.730134
     33          6           0      -11.820100    1.384878    1.760712
     34          6           0      -10.783820    2.308832    1.353218
     35          6           0      -11.058335    2.538431    0.027434
     36          6           0      -12.234900    1.812465   -0.352660
     37          6           0       -9.672543    2.775307    2.198427
     38          6           0      -10.601634    3.255315   -1.153328
     39          8           0       -9.681974    4.074446   -1.271595
     40          6           0      -11.597504    2.942917   -2.250354
     41          6           0      -12.251351    4.259385   -2.655867
     42          8           0      -12.855028    4.943477   -1.832597
     43          8           0      -11.950994    4.598251   -3.984363
     44          6           0      -12.509281    5.849099   -4.423691
     45          1           0      -16.740672   -1.591784   -3.020730
     46          1           0      -16.423007   -2.750953    3.333697
     47          1           0      -11.200494    1.007444    3.738115
     48          1           0      -13.410999    1.734267   -4.326845
     49          1           0      -15.134825   -0.424235   -4.712829
     50          1           0      -16.694680    0.976801   -4.875991
     51          1           0      -15.570609    2.284553   -4.271173
     52          1           0      -16.787496    1.580674   -3.170351
     53          1           0      -13.132088   -1.027792   -4.798078
     54          1           0      -12.174161   -0.705862   -3.381913
     55          1           0      -11.627458    1.305561   -5.442069
     56          1           0      -11.513221   -0.208477   -6.287658
     57          1           0      -18.279371   -4.707949   -1.786520
     58          1           0      -17.788713   -3.283698   -2.706938
     59          1           0      -19.236670   -3.265522   -1.725439
     60          1           0      -17.461590   -4.474537    3.397040
     61          1           0      -19.187716   -4.859370    3.263913
     62          1           0      -18.811683   -3.239271    3.322199
     63          1           0      -14.595007   -2.270334    5.205644
     64          1           0      -13.131719    0.191419    5.326303
     65          1           0      -16.395479   -0.964238    5.778065
     66          1           0      -15.920985    0.326951    4.561886
     67          1           0      -15.100616    0.161903    6.083461
     68          1           0      -11.073228   -1.863379    4.673350
     69          1           0      -12.481602   -2.540110    5.410557
     70          1           0      -11.495346   -2.164089    7.412215
     71          1           0      -11.740967   -0.453191    7.117313
     72          1           0      -10.243552   -1.237899    6.508011
     73          1           0       -9.497067    2.017792    2.962769
     74          1           0      -10.042928    3.671817    2.696413
     75          1           0       -8.798621    3.032898    1.601841
     76          1           0      -10.955167    2.585182   -3.053908
     77          1           0      -13.574101    5.814592   -4.655602
     78          1           0      -12.008166    6.219348   -5.317620
     79          1           0      -12.393266    6.667297   -3.713439
     80         12           0       14.103480   -0.781959   -0.666059
     81          6           0       14.328769    2.417177    0.706127
     82          6           0       10.941061   -0.196251   -1.522170
     83          6           0       13.618315   -4.165501   -0.702870
     84          6           0       17.400768   -1.364771    0.295446
     85          7           0       12.822805    1.002556   -0.577722
     86          6           0       13.135730    2.157764   -0.003473
     87          6           0       11.984034    3.191605   -0.276448
     88          6           0       10.880220    2.295219   -0.887030
     89          6           0       11.556823    0.931808   -0.992919
     90          6           0        9.596498    2.098726    0.062698
     91          6           0       12.369533    4.399539   -1.245786
     92          6           0       11.815459    5.700863   -0.776248
     93          1           0       11.023608    6.569982   -1.741052
     94          7           0       12.499025   -1.993641   -1.084078
     95          6           0       11.253142   -1.555805   -1.447771
     96          6           0       10.493567   -2.694998   -1.981460
     97          6           0       11.288044   -3.849381   -1.735034
     98          6           0       12.515417   -3.345031   -1.097079
     99          6           0        9.046575   -2.563373   -2.554982
    100          6           0       10.937419   -5.345972   -1.992092
    101          8           0       11.692603   -6.281080   -1.751005
    102          6           0        9.617738   -5.657284   -2.590241
    103          7           0       15.271054   -2.470534   -0.248070
    104          6           0       14.862192   -3.807476   -0.260068
    105          6           0       15.980014   -4.697215    0.343885
    106          6           0       17.300793   -3.865571    0.032851
    107          6           0       16.586765   -2.484283    0.014850
    108          6           0       15.735535   -5.061674    1.824001
    109          6           0       17.993760   -4.138818   -1.271803
    110          6           0       17.475858   -3.568034   -2.558504
    111          7           0       15.676822    0.305153    0.113953
    112          6           0       16.949674   -0.052752    0.493947
    113          6           0       17.690732    1.076025    1.061439
    114          6           0       16.650014    2.089005    1.270404
    115          6           0       15.451428    1.533775    0.674253
    116          6           0       19.049945    1.057681    1.543357
    117          6           0       16.349774    3.402319    1.827517
    118          8           0       16.986511    4.162052    2.456012
    119          6           0       14.818369    3.695075    1.399469
    120          6           0       13.944264    4.195597    2.521510
    121          8           0       13.256089    3.489163    3.252291
    122          8           0       13.977040    5.589718    2.521038
    123          6           0       13.159236    6.291723    3.526766
    124          1           0        9.975743   -0.136496   -2.029878
    125          1           0       13.385853   -5.232675   -0.720590
    126          1           0       18.453345   -1.585770    0.482441
    127          1           0       11.575786    3.605196    0.646049
    128          1           0       10.455040    2.628946   -1.833558
    129          1           0        8.880939    2.873453   -0.213501
    130          1           0        9.775695    2.250996    1.126719
    131          1           0        9.169133    1.118837   -0.153289
    132          1           0       11.997689    4.238977   -2.257877
    133          1           0       13.436880    4.548317   -1.409909
    134          1           0       12.710650    6.286392   -0.568544
    135          1           0       11.223689    5.704232    0.138690
    136          1           0        8.379897   -2.715432   -1.706612
    137          1           0        8.878630   -3.250914   -3.384297
    138          1           0        8.755548   -1.540497   -2.796358
    139          1           0        8.712912   -5.131594   -2.285620
    140          1           0        9.392113   -6.713927   -2.448527
    141          1           0        9.720357   -5.707209   -3.674628
    142          1           0       15.962427   -5.584984   -0.287648
    143          1           0       18.047292   -3.964002    0.820781
    144          1           0       16.540086   -4.832571    2.522819
    145          1           0       15.331227   -6.064121    1.966272
    146          1           0       14.904292   -4.475975    2.216151
    147          1           0       18.098123   -5.196608   -1.510193
    148          1           0       19.019540   -3.781425   -1.180402
    149          1           0       18.074940   -2.663931   -2.665651
    150          1           0       16.431661   -3.254632   -2.555077
    151          1           0       17.666093   -4.274544   -3.367082
    152          1           0       19.460138    2.039435    1.306016
    153          1           0       19.582586    0.299769    0.969468
    154          1           0       19.065326    0.897378    2.620945
    155          1           0       14.846430    4.479457    0.643110
    156          1           0       13.422621    5.871558    4.497807
    157          1           0       12.098535    6.100270    3.366549
    158          1           0       13.221730    7.376894    3.609663
 ---------------------------------------------------------------------

 SCF Done:  E(RCAM-B3LYP) =  -4069.82271456     A.U. after   17 cycles

 Excitation energies and oscillator strengths:

 Excited State   1:      Singlet-A      1.6810 eV  737.57 nm  f=0.4005  <S**2>=0.000
     310 -> 316        0.17694
     312 -> 313        0.68629
     310 <- 316        0.10852
 This state for optimization and/or second-order correction.
 Total Energy, E(TD-HF/TD-DFT) =  -4069.76093994
 Copying the excited state density for this state as the 1-particle RhoCI density.

 Excited State   2:      Singlet-A      1.7236 eV  719.33 nm  f=0.3443  <S**2>=0.000
     309 -> 315        0.19165
     311 -> 314        0.68278
     309 <- 315        0.11113

 Excited State   3:      Singlet-A      2.2560 eV  549.58 nm  f=0.1048  <S**2>=0.000
     310 -> 313        0.63273
     312 -> 316       -0.30595

 Excited State   4:      Singlet-A      2.2830 eV  543.08 nm  f=0.0522  <S**2>=0.000
     309 -> 314        0.60484
     311 -> 315       -0.35600

 Excited State   5:      Singlet-A      3.0308 eV  409.08 nm  f=0.0000  <S**2>=0.000
     312 -> 314        0.70707

 The electronic state is 1-A.
 Alpha  occ. eigenvalues --  -46.88740 -46.87890 -19.26085 -19.24988 -19.20639
 Alpha  occ. eigenvalues --  -19.20068 -19.19658 -19.19155 -19.19139 -19.18821
 Alpha  occ. eigenvalues --  -14.42189 -14.42163 -14.42132 -14.41395 -14.39437
 Alpha  occ. eigenvalues --  -14.39403 -14.39255 -14.39196 -10.40309 -10.39660
 Alpha  occ. eigenvalues --  -10.35620 -10.35493 -10.35102 -10.34626 -10.31767
 Alpha  occ. eigenvalues --  -10.31568 -10.31301 -10.31186 -10.31180 -10.30889
 Alpha  occ. eigenvalues --  -10.30710 -10.30606 -10.30560 -10.30558 -10.29976
 Alpha  occ. eigenvalues --  -10.29857 -10.29845 -10.29720 -10.29593 -10.29445
 Alpha  occ. eigenvalues --  -10.29362 -10.29358 -10.28751 -10.28669 -10.28634
 Alpha  occ. eigenvalues --  -10.28471 -10.28349 -10.28256 -10.28253 -10.28210
 Alpha  occ. eigenvalues --  -10.28188 -10.28125 -10.27945 -10.27932 -10.27871
 Alpha  occ. eigenvalues --  -10.27870 -10.27870 -10.27644 -10.27599 -10.27536
 Alpha  occ. eigenvalues --  -10.27501 -10.27318 -10.27050 -10.26980 -10.26952
 Alpha  occ. eigenvalues --  -10.26927 -10.26918 -10.26897 -10.26850 -10.26673
 Alpha  occ. eigenvalues --  -10.26481 -10.26291 -10.26283 -10.26092 -10.26060
 Alpha  occ. eigenvalues --  -10.26044 -10.26023 -10.25887 -10.25782 -10.25738
 Alpha  occ. eigenvalues --  -10.25557 -10.25546 -10.25518 -10.25348 -10.25192
 Alpha  occ. eigenvalues --  -10.24526  -3.17350  -3.16593  -1.92224  -1.91821
 Alpha  occ. eigenvalues --   -1.91650  -1.91497  -1.91024  -1.90920  -1.16025
 Alpha  occ. eigenvalues --   -1.15123  -1.12916  -1.11956  -1.10132  -1.09165
 Alpha  occ. eigenvalues --   -1.08282  -1.07420  -1.05149  -1.04838  -1.04328
 Alpha  occ. eigenvalues --   -1.03551  -1.02913  -1.02840  -1.02128  -1.02108
 Alpha  occ. eigenvalues --   -0.93103  -0.91839  -0.89200  -0.89029  -0.89007
 Alpha  occ. eigenvalues --   -0.88594  -0.88561  -0.87990  -0.87669  -0.87160
 Alpha  occ. eigenvalues --   -0.87155  -0.86869  -0.86275  -0.85049  -0.84660
 Alpha  occ. eigenvalues --   -0.84289  -0.84145  -0.83570  -0.82643  -0.82572
 Alpha  occ. eigenvalues --   -0.82508  -0.81835  -0.81094  -0.80969  -0.80912
 Alpha  occ. eigenvalues --   -0.80334  -0.78213  -0.78056  -0.77283  -0.77245
 Alpha  occ. eigenvalues --   -0.76700  -0.76453  -0.76370  -0.75816  -0.75159
 Alpha  occ. eigenvalues --   -0.74831  -0.72943  -0.72217  -0.72177  -0.71439
 Alpha  occ. eigenvalues --   -0.69202  -0.69078  -0.68675  -0.68466  -0.68217
 Alpha  occ. eigenvalues --   -0.67715  -0.66829  -0.66725  -0.65923  -0.65672
 Alpha  occ. eigenvalues --   -0.65653  -0.64919  -0.64584  -0.64513  -0.64208
 Alpha  occ. eigenvalues --   -0.64071  -0.62777  -0.61772  -0.60305  -0.60118
 Alpha  occ. eigenvalues --   -0.60101  -0.59560  -0.59171  -0.58944  -0.58845
 Alpha  occ. eigenvalues --   -0.58556  -0.58074  -0.57737  -0.57734  -0.57202
 Alpha  occ. eigenvalues --   -0.56289  -0.56128  -0.55776  -0.55494  -0.55348
 Alpha  occ. eigenvalues --   -0.55318  -0.55034  -0.54811  -0.54067  -0.54004
 Alpha  occ. eigenvalues --   -0.53591  -0.53540  -0.53344  -0.53245  -0.53054
 Alpha  occ. eigenvalues --   -0.52939  -0.52835  -0.52732  -0.52481  -0.52244
 Alpha  occ. eigenvalues --   -0.52135  -0.51802  -0.51743  -0.51592  -0.51348
 Alpha  occ. eigenvalues --   -0.51207  -0.51069  -0.50947  -0.50510  -0.50372
 Alpha  occ. eigenvalues --   -0.50188  -0.50145  -0.50041  -0.49881  -0.49705
 Alpha  occ. eigenvalues --   -0.49587  -0.49489  -0.49350  -0.49142  -0.49124
 Alpha  occ. eigenvalues --   -0.48739  -0.48575  -0.48386  -0.48289  -0.48142
 Alpha  occ. eigenvalues --   -0.47961  -0.47767  -0.47568  -0.47174  -0.46934
 Alpha  occ. eigenvalues --   -0.46762  -0.46646  -0.46561  -0.46403  -0.46347
 Alpha  occ. eigenvalues --   -0.46245  -0.46190  -0.46067  -0.46019  -0.45717
 Alpha  occ. eigenvalues --   -0.45476  -0.45474  -0.45396  -0.45164  -0.44915
 Alpha  occ. eigenvalues --   -0.44605  -0.44493  -0.44362  -0.44360  -0.44206
 Alpha  occ. eigenvalues --   -0.44134  -0.43912  -0.43699  -0.43616  -0.43343
 Alpha  occ. eigenvalues --   -0.43291  -0.43222  -0.43123  -0.42772  -0.42634
 Alpha  occ. eigenvalues --   -0.42633  -0.42454  -0.42188  -0.42021  -0.41845
 Alpha  occ. eigenvalues --   -0.41780  -0.41649  -0.41546  -0.41501  -0.41337
 Alpha  occ. eigenvalues --   -0.41157  -0.41133  -0.40922  -0.40774  -0.40472
 Alpha  occ. eigenvalues --   -0.40424  -0.40200  -0.40090  -0.39106  -0.39015
 Alpha  occ. eigenvalues --   -0.38625  -0.38043  -0.38039  -0.37648  -0.37526
 Alpha  occ. eigenvalues --   -0.37202  -0.36943  -0.36739  -0.36581  -0.36556
 Alpha  occ. eigenvalues --   -0.36500  -0.35879  -0.34904  -0.34763  -0.34431
 Alpha  occ. eigenvalues --   -0.34254  -0.33535  -0.32778  -0.31455  -0.31380
 Alpha  occ. eigenvalues --   -0.31262  -0.31191  -0.31005  -0.30984  -0.30202
 Alpha  occ. eigenvalues --   -0.29995  -0.29703  -0.29528  -0.24445  -0.23955
 Alpha  occ. eigenvalues --   -0.21046  -0.20749
 Alpha virt. eigenvalues --   -0.08435  -0.08372  -0.02279  -0.01351   0.00431
 Alpha virt. eigenvalues --    0.00445   0.01777   0.02448   0.02691   0.02818
 Alpha virt. eigenvalues --    0.04144   0.04595   0.04957   0.05618   0.05812

 Mulliken charges:
               1
     1  Mg   0.819072
     2  C   -0.027557
     3  C   -0.090332
     4  C   -0.046269
     5  C   -0.087374
     6  N   -0.261369
     7  C   -0.073422
     8  C   -0.067281
     9  C   -0.064292
    10  C    0.017936
    11  C    0.108026
    12  C    0.065033
    13  C   -0.081438
    14  H    0.029130
    15  N   -0.432493
    16  C    0.196341
    17  C   -0.155243
    18  C   -0.066173
    19  C    0.129258
    20  C    0.128365
    21  C    0.011666
    22  O   -0.165151
    23  C    0.046912
    24  N   -0.260907
    25  C    0.045618
    26  C   -0.043801
    27  C   -0.029930
    28  C    0.049917
    29  C    0.066764
    30  C    0.022685
    31  C    0.021384
    32  N   -0.342406
    33  C    0.111582
    34  C   -0.193887
    35  C    0.033602
    36  C    0.152533
    37  C    0.142376
    38  C    0.016856
    39  O   -0.185336
    40  C    0.043579
    41  C    0.222873
    42  O   -0.215946
    43  O   -0.330750
    44  C    0.180763
    45  H   -0.024228
    46  H   -0.052475
    47  H   -0.027296
    48  H   -0.005499
    49  H   -0.002410
    50  H    0.020587
    51  H    0.016867
    52  H    0.033027
    53  H    0.008350
    54  H    0.031365
    55  H    0.028594
    56  H    0.035451
    57  H    0.032277
    58  H   -0.009184
    59  H    0.027882
    60  H    0.050358
    61  H    0.014768
    62  H    0.046936
    63  H    0.006631
    64  H    0.001309
    65  H    0.023905
    66  H    0.019665
    67  H    0.008375
    68  H    0.019249
    69  H   -0.007762
    70  H    0.022051
    71  H    0.005731
    72  H    0.020154
    73  H    0.016091
    74  H    0.034122
    75  H    0.041405
    76  H    0.030677
    77  H    0.024115
    78  H    0.031435
    79  H    0.036566
    80  Mg   0.845282
    81  C    0.027403
    82  C   -0.076809
    83  C   -0.074930
    84  C   -0.103168
    85  N   -0.243952
    86  C   -0.032153
    87  C    0.000740
    88  C   -0.076767
    89  C    0.082368
    90  C    0.038801
    91  C    0.070133
    92  C   -0.093440
    93  H    0.009895
    94  N   -0.370816
    95  C    0.094391
    96  C   -0.139744
    97  C   -0.062007
    98  C    0.101697
    99  C    0.093622
   100  C    0.039020
   101  O   -0.200775
   102  C    0.041885
   103  N   -0.293939
   104  C    0.034446
   105  C    0.001888
   106  C   -0.010255
   107  C    0.025375
   108  C    0.092696
   109  C    0.017579
   110  C    0.022137
   111  N   -0.363038
   112  C    0.153944
   113  C   -0.162597
   114  C   -0.039994
   115  C    0.088708
   116  C    0.123011
   117  C    0.056347
   118  O   -0.102427
   119  C   -0.071433
   120  C    0.218763
   121  O   -0.220151
   122  O   -0.352119
   123  C    0.187103
   124  H   -0.036580
   125  H   -0.006506
   126  H   -0.034692
   127  H    0.020357
   128  H    0.017756
   129  H    0.008853
   130  H    0.029562
   131  H    0.017141
   132  H    0.013873
   133  H    0.012932
   134  H    0.031441
   135  H    0.030163
   136  H    0.034992
   137  H    0.042284
   138  H    0.009339
   139  H    0.038199
   140  H    0.012011
   141  H    0.038799
   142  H   -0.003781
   143  H   -0.004049
   144  H    0.017194
   145  H    0.021751
   146  H    0.010552
   147  H    0.001229
   148  H   -0.002108
   149  H    0.005376
   150  H    0.031909
   151  H    0.016154
   152  H    0.033316
   153  H    0.015265
   154  H    0.051145
   155  H    0.046750
   156  H    0.036604
   157  H    0.023142
   158  H    0.042904
 Sum of Mulliken charges =  -0.00000

 Dipole moment (field-independent basis, Debye):
    X=             -3.3148    Y=             -0.1804    Z=             -1.1624  Tot=              3.5173
 Quadrupole moment (field-independent basis, Debye-Ang):
   XX=           -530.8171   YY=           -543.6312   ZZ=           -465.5866
   XY=            -30.9588   XZ=            -53.5025   YZ=            -13.6549

 Normal termination of Gaussian 16 at Thu Sep 16 10:57:46 2021.
