 Gaussian 16, Revision A.03,
 Gaussian 16:  ES64L-G16RevA.03 25-Dec-2016

 ----------------------------------------------------------
 #p cam-b3lyp/Def2SVP td=(nstates=5) density=(transition=1)
 ----------------------------------------------------------

 --------------------------------
 TDDFT excited states in gaussian
 --------------------------------
 Symbolic Z-matrix:
 Charge =  0 Multiplicity = 1

                         Standard orientation:
 ---------------------------------------------------------------------
 Center     Atomic      Atomic             Coordinates (Angstroms)
 Number     Number       Type             X           Y           Z
 ---------------------------------------------------------------------
      1         12           0       30.664730    0.559651   -0.188807
      2          6           0       28.745566   -2.311618   -0.368184
      3          6           0       27.912187    2.206560    1.329092
      4          6           0       32.654279    3.249104    0.553284
      5          6           0       33.466968   -1.176797   -1.218965
      6          7           0       28.548832    0.004815    0.271039
      7          6           0       28.031565   -1.271388    0.196838
      8          6           0       26.621044   -1.429381    0.878829
      9          6           0       26.203293    0.106227    1.056463
     10          6           0       27.612414    0.894114    0.841298
     11          6           0       25.054621    0.701852    0.156360
     12          6           0       26.618778   -2.169542    2.169978
     13          6           0       25.831020   -3.456140    2.325823
     14          1           0       25.325321   -3.769915    3.743064
     15          7           0       30.299649    2.518097    0.728962
     16          6           0       29.059698    2.965152    1.222972
     17          6           0       29.175479    4.323308    1.649876
     18          6           0       30.631958    4.611195    1.575639
     19          6           0       31.297694    3.431774    0.940866
     20          6           0       28.042055    5.117404    2.307514
     21          6           0       31.209190    5.947503    2.074201
     22          8           0       30.594552    6.876626    2.590027
     23          6           0       32.684699    6.021755    2.249317
     24          7           0       32.887281    0.944958   -0.148370
     25          6           0       33.369210    2.183380    0.023957
     26          6           0       34.889004    2.049789    0.108358
     27          6           0       35.231877    0.633755   -0.552474
     28          6           0       33.751224    0.061278   -0.693312
     29          6           0       35.565654    3.178674   -0.747289
     30          6           0       36.190085   -0.376727    0.202045
     31          6           0       37.545771   -0.741229   -0.384357
     32          7           0       31.051618   -1.377320   -0.785602
     33          6           0       32.249045   -1.952978   -1.221794
     34          6           0       32.053649   -3.346456   -1.482106
     35          6           0       30.679517   -3.573313   -1.161383
     36          6           0       30.130923   -2.285222   -0.786516
     37          6           0       33.052265   -4.356377   -1.952801
     38          6           0       29.624545   -4.500241   -1.129105
     39          8           0       29.654739   -5.678251   -1.424028
     40          6           0       28.358967   -3.761625   -0.544070
     41          6           0       27.190365   -4.110823   -1.366925
     42          8           0       26.324266   -4.899405   -1.005485
     43          8           0       27.245680   -3.445570   -2.582605
     44          6           0       26.119516   -3.786353   -3.480735
     45          1           0       27.127024    2.827597    1.764319
     46          1           0       33.195004    4.179155    0.742713
     47          1           0       34.372313   -1.717727   -1.501718
     48          1           0       25.935979   -1.913885    0.183966
     49          1           0       25.969071    0.240635    2.113092
     50          1           0       24.550428   -0.141063   -0.316172
     51          1           0       25.391519    1.410264   -0.600561
     52          1           0       24.395272    1.263880    0.816732
     53          1           0       26.169620   -1.500117    2.905166
     54          1           0       27.636847   -2.447714    2.440357
     55          1           0       26.500746   -4.283279    2.092243
     56          1           0       24.928222   -3.486368    1.716215
     57          1           0       27.081537    4.654733    2.533217
     58          1           0       27.955738    5.976596    1.642810
     59          1           0       28.530268    5.577066    3.166257
     60          1           0       33.310220    6.352469    1.421300
     61          1           0       33.094888    5.109524    2.682801
     62          1           0       32.857192    6.806211    2.987126
     63          1           0       35.262426    2.098071    1.131512
     64          1           0       35.559093    0.769990   -1.582643
     65          1           0       36.315660    3.647246   -0.110097
     66          1           0       34.889376    3.936242   -1.145324
     67          1           0       36.057890    2.801744   -1.644093
     68          1           0       35.584496   -1.276164    0.311084
     69          1           0       36.419575    0.109301    1.151328
     70          1           0       37.787981   -1.711975    0.048914
     71          1           0       38.287750   -0.026650   -0.027387
     72          1           0       37.660269   -0.861410   -1.461127
     73          1           0       32.508343   -5.298020   -2.031811
     74          1           0       33.865823   -4.366647   -1.228094
     75          1           0       33.481808   -4.162257   -2.935775
     76          1           0       28.220413   -4.229294    0.431292
     77          1           0       26.382670   -4.641344   -4.103414
     78          1           0       25.877811   -2.867772   -4.015375
     79          1           0       25.212301   -4.018061   -2.923451
     80         12           0      -30.176347   -0.474749    0.572370
     81          6           0      -30.142716    2.149060   -1.863997
     82          6           0      -29.546815   -2.741434   -1.929576
     83          6           0      -30.648079   -3.050492    2.705639
     84          6           0      -31.746703    1.799764    2.763701
     85          7           0      -29.873424   -0.283562   -1.622729
     86          6           0      -29.825448    0.870885   -2.419927
     87          6           0      -29.449411    0.483096   -3.827018
     88          6           0      -29.795126   -1.065365   -3.855715
     89          6           0      -29.800253   -1.401594   -2.335463
     90          6           0      -31.208196   -1.232113   -4.520009
     91          6           0      -27.993970    0.899289   -4.241521
     92          6           0      -27.989231    1.464279   -5.571954
     93          1           0      -26.640719    2.248743   -5.973025
     94          7           0      -29.914511   -2.582409    0.360630
     95          6           0      -29.621431   -3.299897   -0.730522
     96          6           0      -29.444145   -4.670743   -0.361521
     97          6           0      -29.772587   -4.806196    0.971014
     98          6           0      -30.100138   -3.391209    1.469473
     99          6           0      -29.158332   -5.785639   -1.417182
    100          6           0      -29.718940   -6.064218    1.862030
    101          8           0      -30.082569   -5.985427    3.008122
    102          6           0      -29.134674   -7.356161    1.341250
    103          7           0      -31.331468   -0.625648    2.369031
    104          6           0      -31.230106   -1.798629    3.108927
    105          6           0      -31.711224   -1.586760    4.507520
    106          6           0      -32.048117   -0.016651    4.542765
    107          6           0      -31.631011    0.447857    3.167248
    108          6           0      -32.825949   -2.501076    4.889204
    109          6           0      -31.373939    0.868771    5.728746
    110          6           0      -32.271208    1.555203    6.681143
    111          7           0      -30.791749    1.572213    0.546776
    112          6           0      -31.414037    2.313149    1.526064
    113          6           0      -31.550108    3.744557    1.010901
    114          6           0      -30.961836    3.754124   -0.269755
    115          6           0      -30.563170    2.395618   -0.526841
    116          6           0      -32.230610    4.884941    1.780300
    117          6           0      -30.779994    4.591107   -1.416865
    118          8           0      -31.040941    5.803660   -1.585470
    119          6           0      -30.400079    3.563653   -2.560666
    120          6           0      -29.213529    4.221191   -3.327510
    121          8           0      -28.041717    3.856334   -3.120193
    122          8           0      -29.688168    5.106380   -4.237963
    123          6           0      -28.529693    5.870864   -4.815546
    124          1           0      -29.131214   -3.435013   -2.664024
    125          1           0      -30.791384   -3.864461    3.420280
    126          1           0      -32.131654    2.597607    3.402021
    127          1           0      -30.186040    0.962698   -4.471181
    128          1           0      -29.065914   -1.631441   -4.434203
    129          1           0      -32.032107   -0.927696   -3.875038
    130          1           0      -31.319673   -2.263758   -4.851034
    131          1           0      -31.243770   -0.622878   -5.423451
    132          1           0      -27.436860   -0.029516   -4.366494
    133          1           0      -27.515537    1.521844   -3.485087
    134          1           0      -28.711038    2.276812   -5.656651
    135          1           0      -28.166478    0.648425   -6.273149
    136          1           0      -28.249974   -6.251910   -1.035738
    137          1           0      -28.949250   -5.422862   -2.423438
    138          1           0      -30.016412   -6.453552   -1.491432
    139          1           0      -29.256017   -8.153878    2.074154
    140          1           0      -28.111449   -6.994372    1.240625
    141          1           0      -29.624307   -7.592047    0.396457
    142          1           0      -30.817837   -1.793137    5.097196
    143          1           0      -33.128095    0.064805    4.663149
    144          1           0      -32.379936   -3.181713    5.613292
    145          1           0      -33.145821   -3.147505    4.072087
    146          1           0      -33.717024   -2.015787    5.288085
    147          1           0      -30.880813    1.659932    5.164018
    148          1           0      -30.609209    0.255471    6.203482
    149          1           0      -32.162844    2.637458    6.614753
    150          1           0      -31.761393    1.227184    7.586365
    151          1           0      -33.287988    1.160102    6.677180
    152          1           0      -33.263482    4.895892    1.434028
    153          1           0      -31.770711    5.853646    1.585073
    154          1           0      -32.124990    4.702276    2.849709
    155          1           0      -31.308186    3.519078   -3.160324
    156          1           0      -28.094246    6.616178   -4.150170
    157          1           0      -28.738274    6.369350   -5.761618
    158          1           0      -27.791109    5.116240   -5.086730
 ---------------------------------------------------------------------

 SCF Done:  E(RCAM-B3LYP) =  -4069.76478482     A.U. after   18 cycles

 Excitation energies and oscillator strengths:

 Excited State   1:      Singlet-A      1.7132 eV  723.71 nm  f=0.3647  <S**2>=0.000
     309 -> 316       -0.17418
     311 -> 313        0.68619
     309 <- 316       -0.10488
 This state for optimization and/or second-order correction.
 Total Energy, E(TD-HF/TD-DFT) =  -4069.70182683
 Copying the excited state density for this state as the 1-particle RhoCI density.

 Excited State   2:      Singlet-A      1.7187 eV  721.36 nm  f=0.3705  <S**2>=0.000
     310 -> 315       -0.18750
     312 -> 314        0.68217
     310 <- 315       -0.10712

 Excited State   3:      Singlet-A      2.1719 eV  570.86 nm  f=0.1595  <S**2>=0.000
     309 -> 313        0.65197
     311 -> 316        0.25356

 Excited State   4:      Singlet-A      2.2689 eV  546.46 nm  f=0.0058  <S**2>=0.000
     310 -> 314        0.54882
     312 -> 315        0.43684

 Excited State   5:      Singlet-A      2.6884 eV  461.19 nm  f=0.0000  <S**2>=0.000
     312 -> 313        0.70711

 The electronic state is 1-A.
 Alpha  occ. eigenvalues --  -46.90511 -46.89421 -19.26149 -19.25152 -19.19857
 Alpha  occ. eigenvalues --  -19.19748 -19.19477 -19.19137 -19.18738 -19.18330
 Alpha  occ. eigenvalues --  -14.43515 -14.42259 -14.42020 -14.41904 -14.40077
 Alpha  occ. eigenvalues --  -14.39901 -14.39356 -14.39143 -10.39710 -10.39155
 Alpha  occ. eigenvalues --  -10.35667 -10.35301 -10.34897 -10.34218 -10.33136
 Alpha  occ. eigenvalues --  -10.32101 -10.31711 -10.31699 -10.31542 -10.31525
 Alpha  occ. eigenvalues --  -10.31363 -10.31298 -10.31196 -10.30919 -10.30853
 Alpha  occ. eigenvalues --  -10.30471 -10.30447 -10.30154 -10.29860 -10.29452
 Alpha  occ. eigenvalues --  -10.29164 -10.29121 -10.28994 -10.28959 -10.28759
 Alpha  occ. eigenvalues --  -10.28737 -10.28700 -10.28652 -10.28607 -10.28544
 Alpha  occ. eigenvalues --  -10.28464 -10.28318 -10.28293 -10.28291 -10.28224
 Alpha  occ. eigenvalues --  -10.28144 -10.28103 -10.28097 -10.28032 -10.27924
 Alpha  occ. eigenvalues --  -10.27796 -10.27489 -10.27362 -10.27359 -10.27342
 Alpha  occ. eigenvalues --  -10.27056 -10.27013 -10.27006 -10.26924 -10.26858
 Alpha  occ. eigenvalues --  -10.26411 -10.26378 -10.26282 -10.26276 -10.26239
 Alpha  occ. eigenvalues --  -10.26203 -10.26079 -10.25942 -10.25924 -10.25869
 Alpha  occ. eigenvalues --  -10.25440 -10.25350 -10.25092 -10.25016 -10.24938
 Alpha  occ. eigenvalues --  -10.24920  -3.18721  -3.17759  -1.93650  -1.93152
 Alpha  occ. eigenvalues --   -1.93023  -1.92655  -1.92201  -1.92060  -1.16034
 Alpha  occ. eigenvalues --   -1.15566  -1.11728  -1.10085  -1.09797  -1.07838
 Alpha  occ. eigenvalues --   -1.07510  -1.07118  -1.04847  -1.04084  -1.04072
 Alpha  occ. eigenvalues --   -1.03022  -1.02691  -1.02599  -1.01765  -1.01423
 Alpha  occ. eigenvalues --   -0.92615  -0.91209  -0.89531  -0.89409  -0.88926
 Alpha  occ. eigenvalues --   -0.88677  -0.88221  -0.88179  -0.87723  -0.87493
 Alpha  occ. eigenvalues --   -0.87237  -0.87202  -0.85845  -0.85460  -0.84544
 Alpha  occ. eigenvalues --   -0.84399  -0.83871  -0.83772  -0.82924  -0.82598
 Alpha  occ. eigenvalues --   -0.82503  -0.82256  -0.80916  -0.80780  -0.80664
 Alpha  occ. eigenvalues --   -0.80445  -0.78203  -0.77864  -0.77529  -0.77215
 Alpha  occ. eigenvalues --   -0.77016  -0.76524  -0.76249  -0.75554  -0.75459
 Alpha  occ. eigenvalues --   -0.74912  -0.73531  -0.72312  -0.72157  -0.71426
 Alpha  occ. eigenvalues --   -0.69422  -0.69023  -0.68786  -0.68021  -0.67853
 Alpha  occ. eigenvalues --   -0.67401  -0.67161  -0.66359  -0.65661  -0.65501
 Alpha  occ. eigenvalues --   -0.65278  -0.65096  -0.64947  -0.64838  -0.64421
 Alpha  occ. eigenvalues --   -0.64284  -0.63036  -0.62026  -0.60279  -0.59908
 Alpha  occ. eigenvalues --   -0.59778  -0.59487  -0.59101  -0.59096  -0.58420
 Alpha  occ. eigenvalues --   -0.58223  -0.57821  -0.57405  -0.57081  -0.57015
 Alpha  occ. eigenvalues --   -0.56581  -0.56003  -0.55969  -0.55542  -0.55476
 Alpha  occ. eigenvalues --   -0.55045  -0.54838  -0.54309  -0.53994  -0.53962
 Alpha  occ. eigenvalues --   -0.53874  -0.53550  -0.53536  -0.53263  -0.52954
 Alpha  occ. eigenvalues --   -0.52854  -0.52811  -0.52730  -0.52577  -0.52512
 Alpha  occ. eigenvalues --   -0.52440  -0.52122  -0.51898  -0.51872  -0.51355
 Alpha  occ. eigenvalues --   -0.51240  -0.50962  -0.50540  -0.50404  -0.50404
 Alpha  occ. eigenvalues --   -0.50238  -0.50201  -0.50110  -0.49739  -0.49523
 Alpha  occ. eigenvalues --   -0.49499  -0.49171  -0.49103  -0.48919  -0.48898
 Alpha  occ. eigenvalues --   -0.48673  -0.48636  -0.48337  -0.48186  -0.47985
 Alpha  occ. eigenvalues --   -0.47976  -0.47831  -0.47823  -0.47418  -0.47199
 Alpha  occ. eigenvalues --   -0.47038  -0.46733  -0.46611  -0.46604  -0.46531
 Alpha  occ. eigenvalues --   -0.46219  -0.46154  -0.46079  -0.46018  -0.45862
 Alpha  occ. eigenvalues --   -0.45835  -0.45713  -0.45371  -0.45336  -0.45214
 Alpha  occ. eigenvalues --   -0.44699  -0.44621  -0.44549  -0.44528  -0.44336
 Alpha  occ. eigenvalues --   -0.44145  -0.44072  -0.43752  -0.43733  -0.43660
 Alpha  occ. eigenvalues --   -0.43443  -0.43143  -0.43012  -0.43005  -0.42827
 Alpha  occ. eigenvalues --   -0.42783  -0.42452  -0.42352  -0.42255  -0.41988
 Alpha  occ. eigenvalues --   -0.41902  -0.41620  -0.41527  -0.41452  -0.41300
 Alpha  occ. eigenvalues --   -0.41115  -0.40767  -0.40511  -0.40212  -0.39993
 Alpha  occ. eigenvalues --   -0.39828  -0.39737  -0.39491  -0.38831  -0.38537
 Alpha  occ. eigenvalues --   -0.38374  -0.37856  -0.37841  -0.37436  -0.37255
 Alpha  occ. eigenvalues --   -0.37240  -0.37072  -0.36942  -0.36810  -0.36134
 Alpha  occ. eigenvalues --   -0.35921  -0.34775  -0.34516  -0.34342  -0.33983
 Alpha  occ. eigenvalues --   -0.33811  -0.33359  -0.33085  -0.31787  -0.31721
 Alpha  occ. eigenvalues --   -0.31388  -0.31247  -0.30617  -0.30553  -0.30216
 Alpha  occ. eigenvalues --   -0.30066  -0.29606  -0.29322  -0.24640  -0.24242
 Alpha  occ. eigenvalues --   -0.22179  -0.20192
 Alpha virt. eigenvalues --   -0.09751  -0.07563  -0.02499  -0.02362  -0.00003
 Alpha virt. eigenvalues --    0.00017   0.01822   0.02191   0.02313   0.02410
 Alpha virt. eigenvalues --    0.04485   0.04873   0.05243   0.05466   0.05817

 Mulliken charges:
               1
     1  Mg  12.001429
     2  C    6.024592
     3  C    5.992731
     4  C    5.962925
     5  C    6.003577
     6  N    7.013864
     7  C    5.968535
     8  C    6.010403
     9  C    5.995420
    10  C    6.031712
    11  C    5.994844
    12  C    5.999212
    13  C    6.001549
    14  H    0.995953
    15  N    6.985085
    16  C    6.045488
    17  C    6.018658
    18  C    6.011568
    19  C    6.047959
    20  C    5.996636
    21  C    6.010483
    22  O    8.019890
    23  C    5.993484
    24  N    6.991989
    25  C    6.038292
    26  C    5.990164
    27  C    6.003960
    28  C    5.975404
    29  C    5.997520
    30  C    6.004202
    31  C    6.000976
    32  N    7.005433
    33  C    5.957463
    34  C    5.975492
    35  C    5.995515
    36  C    5.965391
    37  C    6.000954
    38  C    5.984285
    39  O    7.966621
    40  C    5.995775
    41  C    5.994807
    42  O    7.992689
    43  O    8.002549
    44  C    6.003211
    45  H    1.013124
    46  H    0.998887
    47  H    0.986300
    48  H    1.002615
    49  H    1.002589
    50  H    1.015422
    51  H    1.000501
    52  H    1.002539
    53  H    0.990701
    54  H    1.005324
    55  H    1.007142
    56  H    0.998617
    57  H    1.017864
    58  H    1.017683
    59  H    1.015512
    60  H    1.013886
    61  H    1.010304
    62  H    1.011063
    63  H    1.001885
    64  H    0.999231
    65  H    1.000308
    66  H    0.994710
    67  H    1.007437
    68  H    1.007379
    69  H    0.988518
    70  H    0.999415
    71  H    0.992320
    72  H    0.999632
    73  H    0.987290
    74  H    0.981607
    75  H    0.979683
    76  H    0.994263
    77  H    1.000056
    78  H    0.993239
    79  H    0.994268
    80  Mg  11.999915
    81  C    6.000669
    82  C    5.999747
    83  C    5.999219
    84  C    6.000335
    85  N    7.000331
    86  C    5.999124
    87  C    6.000160
    88  C    5.999688
    89  C    6.000786
    90  C    5.999891
    91  C    6.000116
    92  C    5.999994
    93  H    0.999984
    94  N    6.999594
    95  C    6.000798
    96  C    6.000402
    97  C    6.000258
    98  C    6.001094
    99  C    5.999950
   100  C    6.000249
   101  O    8.000530
   102  C    5.999982
   103  N    6.999895
   104  C    6.001083
   105  C    5.999647
   106  C    6.000353
   107  C    5.999252
   108  C    5.999960
   109  C    6.000048
   110  C    6.000059
   111  N    7.000113
   112  C    5.999070
   113  C    5.999205
   114  C    6.000082
   115  C    5.999137
   116  C    6.000088
   117  C    5.999602
   118  O    7.999393
   119  C    6.000008
   120  C    5.999921
   121  O    7.999793
   122  O    8.000017
   123  C    6.000069
   124  H    1.000259
   125  H    1.000123
   126  H    0.999807
   127  H    1.000079
   128  H    1.000105
   129  H    1.000210
   130  H    0.999995
   131  H    1.000306
   132  H    0.999735
   133  H    1.000083
   134  H    1.000106
   135  H    0.999880
   136  H    1.000327
   137  H    1.000381
   138  H    1.000391
   139  H    1.000317
   140  H    1.000116
   141  H    1.000127
   142  H    1.000017
   143  H    0.999871
   144  H    1.000011
   145  H    0.999923
   146  H    1.000266
   147  H    1.000127
   148  H    0.999753
   149  H    1.000054
   150  H    0.999862
   151  H    0.999915
   152  H    0.999531
   153  H    0.999573
   154  H    0.999572
   155  H    0.999831
   156  H    0.999966
   157  H    0.999885
   158  H    0.999886
 Sum of Mulliken charges = 624.00000

 Dipole moment (field-independent basis, Debye):
    X=             -3.1764    Y=              9.3753    Z=              3.7797  Tot=             10.5958
 Quadrupole moment (field-independent basis, Debye-Ang):
   XX=           -200.0126   YY=              8.2353   ZZ=              0.4909
   XY=            298.9194   XZ=            116.3475   YZ=              2.9288

 Normal termination of Gaussian 16 at Thu Sep 23 03:47:04 2021.
