 Gaussian 16, Revision A.03,
 Gaussian 16:  ES64L-G16RevA.03 25-Dec-2016

 -----------------------------------
 #p cam-b3lyp/Def2SVP td=(nstates=5)
 -----------------------------------

 --------------------------------
 TDDFT excited states in gaussian
 --------------------------------
 Symbolic Z-matrix:
 Charge =  0 Multiplicity = 1

                         Standard orientation:
 ---------------------------------------------------------------------
 Center     Atomic      Atomic             Coordinates (Angstroms)
 Number     Number       Type             X           Y           Z
 ---------------------------------------------------------------------
      1         12           0      -24.049019    0.515647    0.241121
      2          6           0      -22.821809   -2.415216   -1.052624
      3          6           0      -22.381300    2.226026   -2.218705
      4          6           0      -25.187673    3.495792    1.601398
      5          6           0      -25.342596   -1.218233    2.950490
      6          7           0      -22.678803   -0.013601   -1.455160
      7          6           0      -22.422673   -1.308873   -1.804577
      8          6           0      -21.607923   -1.374032   -3.004456
      9          6           0      -21.243781    0.066675   -3.326612
     10          6           0      -22.118420    0.857829   -2.258507
     11          6           0      -19.734217    0.488681   -3.293987
     12          6           0      -22.348949   -2.115456   -4.168803
     13          6           0      -21.464421   -2.944970   -5.162526
     14          1           0      -20.011472   -2.475364   -5.372394
     15          7           0      -23.889689    2.569329   -0.338515
     16          6           0      -23.154649    3.042382   -1.411992
     17          6           0      -23.277323    4.513371   -1.463199
     18          6           0      -24.116759    4.908895   -0.334172
     19          6           0      -24.458356    3.651894    0.354147
     20          6           0      -22.599174    5.402364   -2.492822
     21          6           0      -24.641792    6.289307   -0.015405
     22          8           0      -25.415612    6.433327    0.947352
     23          6           0      -24.276049    7.523676   -0.751355
     24          7           0      -25.047728    1.087218    2.060572
     25          6           0      -25.433623    2.337924    2.328850
     26          6           0      -26.319742    2.377629    3.585011
     27          6           0      -26.613630    0.815925    3.924776
     28          6           0      -25.662091    0.179162    2.851522
     29          6           0      -25.638860    3.180735    4.735832
     30          6           0      -28.079130    0.348776    3.708231
     31          6           0      -28.857189   -0.014637    4.981786
     32          7           0      -24.044403   -1.421917    0.912016
     33          6           0      -24.602786   -2.000081    2.054366
     34          6           0      -24.348970   -3.457900    2.063511
     35          6           0      -23.634549   -3.617421    0.852735
     36          6           0      -23.470327   -2.364249    0.204173
     37          6           0      -24.787525   -4.444654    3.029685
     38          6           0      -23.068683   -4.638161   -0.053374
     39          8           0      -23.050279   -5.838857    0.007722
     40          6           0      -22.485352   -3.880406   -1.298850
     41          6           0      -21.078251   -4.277206   -1.467335
     42          8           0      -20.215126   -3.879409   -0.668397
     43          8           0      -20.810036   -4.968096   -2.609219
     44          6           0      -19.417471   -5.226204   -2.961781
     45          1           0      -21.839360    2.740300   -3.015130
     46          1           0      -25.505595    4.446799    2.034357
     47          1           0      -25.875368   -1.734830    3.751449
     48          1           0      -20.699586   -1.926381   -2.761303
     49          1           0      -21.702626    0.392564   -4.260804
     50          1           0      -18.940763   -0.227060   -3.076494
     51          1           0      -19.631026    1.301909   -2.575995
     52          1           0      -19.401921    0.983489   -4.206925
     53          1           0      -22.988272   -1.411656   -4.701886
     54          1           0      -23.150242   -2.720203   -3.744587
     55          1           0      -21.943388   -2.987897   -6.141120
     56          1           0      -21.278953   -3.961863   -4.817914
     57          1           0      -22.105784    4.844010   -3.287630
     58          1           0      -21.812895    6.003391   -2.035191
     59          1           0      -23.348396    5.946315   -3.067769
     60          1           0      -24.888590    8.321773   -0.332996
     61          1           0      -24.434791    7.452521   -1.828179
     62          1           0      -23.201620    7.689195   -0.670112
     63          1           0      -27.284000    2.781892    3.276715
     64          1           0      -26.261230    0.530725    4.915964
     65          1           0      -26.290584    3.927848    5.188994
     66          1           0      -24.760824    3.713718    4.370006
     67          1           0      -25.307021    2.410197    5.432121
     68          1           0      -28.162383   -0.519596    3.055773
     69          1           0      -28.673858    1.103426    3.193077
     70          1           0      -28.462758    0.555926    5.822687
     71          1           0      -28.696890   -1.073669    5.181449
     72          1           0      -29.912589    0.123028    4.750305
     73          1           0      -24.766010   -5.460426    2.635536
     74          1           0      -25.790591   -4.257314    3.412408
     75          1           0      -24.019018   -4.514745    3.799618
     76          1           0      -23.139498   -4.251568   -2.088524
     77          1           0      -18.897662   -5.895378   -2.275595
     78          1           0      -18.875781   -4.293979   -3.121588
     79          1           0      -19.377126   -5.756131   -3.913310
     80         12           0       24.128206    0.531923   -0.115989
     81          6           0       21.900098   -2.181322   -0.126819
     82          6           0       21.783991    2.346448   -1.775653
     83          6           0       26.119852    3.082503    0.357594
     84          6           0       25.972003   -1.363565    2.328176
     85          7           0       22.139173    0.084125   -0.900592
     86          6           0       21.414057   -1.067552   -0.779425
     87          6           0       19.965662   -0.768530   -1.194256
     88          6           0       20.151543    0.394300   -2.162742
     89          6           0       21.391027    1.029348   -1.503702
     90          6           0       20.445027   -0.067714   -3.608787
     91          6           0       19.081159   -0.378590    0.047305
     92          6           0       17.898278   -1.374427    0.485817
     93          1           0       17.936304   -2.008806    1.886598
     94          7           0       23.951824    2.462748   -0.584602
     95          6           0       22.916525    3.025371   -1.295182
     96          6           0       23.262777    4.380943   -1.588391
     97          6           0       24.584167    4.646143   -1.098106
     98          6           0       24.962340    3.386475   -0.394330
     99          6           0       22.319950    5.360726   -2.367499
    100          6           0       25.376335    5.984420   -1.326302
    101          8           0       24.921530    6.836193   -2.026112
    102          6           0       26.771021    6.041330   -0.905682
    103          7           0       25.634412    0.926678    1.407365
    104          6           0       26.487636    1.919374    1.060159
    105          6           0       27.902720    1.697750    1.567450
    106          6           0       27.756065    0.497138    2.489752
    107          6           0       26.344395   -0.036084    2.062782
    108          6           0       28.935778    1.435574    0.409900
    109          6           0       27.878106    0.697635    4.073438
    110          6           0       29.074236    0.214070    4.848686
    111          7           0       24.122715   -1.414824    0.747756
    112          6           0       24.919576   -2.043260    1.713335
    113          6           0       24.423850   -3.363267    2.038076
    114          6           0       23.260494   -3.458808    1.314715
    115          6           0       23.069406   -2.260441    0.551037
    116          6           0       25.034029   -4.293202    3.002346
    117          6           0       22.134492   -4.332617    1.022697
    118          8           0       21.927097   -5.498086    1.382430
    119          6           0       21.279947   -3.598839    0.010701
    120          6           0       21.263809   -4.439132   -1.261578
    121          8           0       22.308751   -4.725044   -1.841691
    122          8           0       19.974310   -4.909910   -1.553997
    123          6           0       19.891870   -5.740127   -2.725859
    124          1           0       21.078340    2.847703   -2.440953
    125          1           0       26.889766    3.842594    0.216272
    126          1           0       26.597533   -1.972480    2.984530
    127          1           0       19.545885   -1.705582   -1.560928
    128          1           0       19.253739    1.010064   -2.126265
    129          1           0       19.705196    0.542037   -4.126218
    130          1           0       20.217313   -1.134033   -3.608450
    131          1           0       21.455517    0.096624   -3.983150
    132          1           0       18.583986    0.560740   -0.194416
    133          1           0       19.754491   -0.156012    0.874684
    134          1           0       17.973235   -2.223169   -0.194397
    135          1           0       16.893970   -0.974738    0.350568
    136          1           0       22.136210    6.344591   -1.936926
    137          1           0       21.364215    4.842102   -2.449721
    138          1           0       22.660831    5.552031   -3.385156
    139          1           0       26.928795    5.854644    0.156782
    140          1           0       27.163388    7.027850   -1.152373
    141          1           0       27.386636    5.431220   -1.565230
    142          1           0       28.307963    2.573684    2.075127
    143          1           0       28.459004   -0.285744    2.204970
    144          1           0       29.506510    2.321536    0.132150
    145          1           0       28.434377    0.936740   -0.419461
    146          1           0       29.661324    0.714501    0.789112
    147          1           0       27.000086    0.492977    4.685106
    148          1           0       27.941993    1.785262    4.031069
    149          1           0       29.673991    1.020119    5.270209
    150          1           0       29.726679   -0.360914    4.191117
    151          1           0       28.650850   -0.417435    5.629403
    152          1           0       25.600256   -3.700531    3.721352
    153          1           0       25.744793   -4.885174    2.425033
    154          1           0       24.290504   -4.956319    3.442179
    155          1           0       20.296702   -3.616337    0.478881
    156          1           0       19.925916   -5.196820   -3.670567
    157          1           0       18.973615   -6.326629   -2.737345
    158          1           0       20.673656   -6.495822   -2.797282
 ---------------------------------------------------------------------

 SCF Done:  E(RCAM-B3LYP) =  -4069.85401776     A.U. after   19 cycles

 Excitation energies and oscillator strengths:

 Excited State   1:      Singlet-A      1.7237 eV  719.29 nm  f=0.3236  <S**2>=0.000
     309 -> 315       -0.19145
     311 -> 313        0.68213
     309 <- 315       -0.11101
 This state for optimization and/or second-order correction.
 Total Energy, E(TD-HF/TD-DFT) =  -4069.79067318
 Copying the excited state density for this state as the 1-particle RhoCI density.

 Excited State   2:      Singlet-A      1.7299 eV  716.71 nm  f=0.4273  <S**2>=0.000
     310 -> 316        0.18835
     312 -> 314        0.68149
     310 <- 316        0.10870

 Excited State   3:      Singlet-A      2.2550 eV  549.81 nm  f=0.0851  <S**2>=0.000
     310 -> 314        0.62548
     312 -> 316       -0.31649

 Excited State   4:      Singlet-A      2.2830 eV  543.07 nm  f=0.0524  <S**2>=0.000
     309 -> 313        0.60481
     311 -> 315        0.35603

 Excited State   5:      Singlet-A      3.1982 eV  387.67 nm  f=0.0000  <S**2>=0.000
     312 -> 313        0.70711

 The electronic state is 1-A.
 Alpha  occ. eigenvalues --  -46.88887 -46.88700 -19.26037 -19.25973 -19.20592
 Alpha  occ. eigenvalues --  -19.19300 -19.19105 -19.19044 -19.18773 -19.18367
 Alpha  occ. eigenvalues --  -14.42150 -14.42091 -14.41829 -14.41722 -14.39491
 Alpha  occ. eigenvalues --  -14.39397 -14.39362 -14.39246 -10.40262 -10.39559
 Alpha  occ. eigenvalues --  -10.35068 -10.34963 -10.34852 -10.34578 -10.32317
 Alpha  occ. eigenvalues --  -10.31519 -10.31147 -10.31140 -10.30915 -10.30848
 Alpha  occ. eigenvalues --  -10.30669 -10.30649 -10.30611 -10.30563 -10.30415
 Alpha  occ. eigenvalues --  -10.30107 -10.30017 -10.29921 -10.29806 -10.29551
 Alpha  occ. eigenvalues --  -10.29306 -10.29305 -10.29154 -10.28695 -10.28627
 Alpha  occ. eigenvalues --  -10.28423 -10.28396 -10.28282 -10.28174 -10.28090
 Alpha  occ. eigenvalues --  -10.28002 -10.27902 -10.27901 -10.27888 -10.27831
 Alpha  occ. eigenvalues --  -10.27828 -10.27768 -10.27556 -10.27527 -10.27459
 Alpha  occ. eigenvalues --  -10.27391 -10.27380 -10.27268 -10.27219 -10.26988
 Alpha  occ. eigenvalues --  -10.26941 -10.26912 -10.26887 -10.26877 -10.26864
 Alpha  occ. eigenvalues --  -10.26485 -10.26447 -10.26244 -10.26243 -10.26104
 Alpha  occ. eigenvalues --  -10.26068 -10.26067 -10.26017 -10.26013 -10.26010
 Alpha  occ. eigenvalues --  -10.25706 -10.25522 -10.25510 -10.25355 -10.25252
 Alpha  occ. eigenvalues --  -10.25149  -3.17309  -3.17309  -1.92231  -1.92184
 Alpha  occ. eigenvalues --   -1.91780  -1.91749  -1.91616  -1.91609  -1.16438
 Alpha  occ. eigenvalues --   -1.15977  -1.11923  -1.10947  -1.09117  -1.08921
 Alpha  occ. eigenvalues --   -1.08235  -1.07125  -1.05121  -1.04796  -1.04288
 Alpha  occ. eigenvalues --   -1.04051  -1.03376  -1.02872  -1.02088  -1.00957
 Alpha  occ. eigenvalues --   -0.93059  -0.92487  -0.89165  -0.89127  -0.88985
 Alpha  occ. eigenvalues --   -0.88521  -0.88280  -0.87708  -0.87626  -0.87194
 Alpha  occ. eigenvalues --   -0.87119  -0.86733  -0.86259  -0.85011  -0.84621
 Alpha  occ. eigenvalues --   -0.84250  -0.83945  -0.83565  -0.82600  -0.82534
 Alpha  occ. eigenvalues --   -0.82326  -0.81873  -0.81215  -0.81050  -0.80869
 Alpha  occ. eigenvalues --   -0.80550  -0.78436  -0.78016  -0.77556  -0.77308
 Alpha  occ. eigenvalues --   -0.77240  -0.76413  -0.76326  -0.76236  -0.75120
 Alpha  occ. eigenvalues --   -0.74891  -0.72901  -0.72596  -0.72136  -0.71507
 Alpha  occ. eigenvalues --   -0.69240  -0.69043  -0.68631  -0.68355  -0.68169
 Alpha  occ. eigenvalues --   -0.68029  -0.66920  -0.66789  -0.65884  -0.65836
 Alpha  occ. eigenvalues --   -0.65612  -0.65445  -0.65027  -0.64879  -0.64469
 Alpha  occ. eigenvalues --   -0.64327  -0.62733  -0.62725  -0.60263  -0.60061
 Alpha  occ. eigenvalues --   -0.59850  -0.59587  -0.59219  -0.59132  -0.58901
 Alpha  occ. eigenvalues --   -0.58750  -0.58512  -0.58223  -0.57693  -0.57288
 Alpha  occ. eigenvalues --   -0.56251  -0.56087  -0.56051  -0.55965  -0.55342
 Alpha  occ. eigenvalues --   -0.55303  -0.54988  -0.54720  -0.53974  -0.53963
 Alpha  occ. eigenvalues --   -0.53553  -0.53446  -0.53210  -0.53011  -0.52922
 Alpha  occ. eigenvalues --   -0.52796  -0.52784  -0.52693  -0.52414  -0.52215
 Alpha  occ. eigenvalues --   -0.52203  -0.51759  -0.51661  -0.51503  -0.51278
 Alpha  occ. eigenvalues --   -0.51167  -0.51026  -0.50905  -0.50472  -0.50206
 Alpha  occ. eigenvalues --   -0.50153  -0.49960  -0.49842  -0.49840  -0.49658
 Alpha  occ. eigenvalues --   -0.49367  -0.49310  -0.49095  -0.48991  -0.48694
 Alpha  occ. eigenvalues --   -0.48537  -0.48473  -0.48349  -0.48111  -0.48102
 Alpha  occ. eigenvalues --   -0.47948  -0.47528  -0.47469  -0.47196  -0.47138
 Alpha  occ. eigenvalues --   -0.47104  -0.46696  -0.46604  -0.46360  -0.46305
 Alpha  occ. eigenvalues --   -0.46286  -0.46148  -0.45981  -0.45867  -0.45704
 Alpha  occ. eigenvalues --   -0.45511  -0.45439  -0.45352  -0.45198  -0.44917
 Alpha  occ. eigenvalues --   -0.44527  -0.44453  -0.44325  -0.44320  -0.44167
 Alpha  occ. eigenvalues --   -0.43868  -0.43802  -0.43598  -0.43573  -0.43488
 Alpha  occ. eigenvalues --   -0.43307  -0.43162  -0.43077  -0.43008  -0.42618
 Alpha  occ. eigenvalues --   -0.42590  -0.42417  -0.42148  -0.42141  -0.41980
 Alpha  occ. eigenvalues --   -0.41840  -0.41741  -0.41606  -0.41485  -0.41152
 Alpha  occ. eigenvalues --   -0.41090  -0.40909  -0.40880  -0.40731  -0.40685
 Alpha  occ. eigenvalues --   -0.40385  -0.40333  -0.40046  -0.39990  -0.39536
 Alpha  occ. eigenvalues --   -0.38978  -0.38185  -0.38001  -0.37476  -0.37474
 Alpha  occ. eigenvalues --   -0.37218  -0.37155  -0.36712  -0.36697  -0.36622
 Alpha  occ. eigenvalues --   -0.36537  -0.36022  -0.34858  -0.34723  -0.34037
 Alpha  occ. eigenvalues --   -0.33969  -0.33494  -0.33113  -0.31418  -0.31224
 Alpha  occ. eigenvalues --   -0.31132  -0.30957  -0.30893  -0.30693  -0.30159
 Alpha  occ. eigenvalues --   -0.30062  -0.29664  -0.29504  -0.24405  -0.23880
 Alpha  occ. eigenvalues --   -0.21006  -0.20801
 Alpha virt. eigenvalues --   -0.08330  -0.08289  -0.02239  -0.01720   0.00488
 Alpha virt. eigenvalues --    0.00546   0.01815   0.02547   0.02729   0.03094
 Alpha virt. eigenvalues --    0.04190   0.04469   0.05003   0.05237   0.05865

 Mulliken charges:
               1
     1  Mg   0.814785
     2  C   -0.017249
     3  C   -0.070449
     4  C   -0.047031
     5  C   -0.073596
     6  N   -0.243858
     7  C   -0.051370
     8  C   -0.008522
     9  C    0.010437
    10  C   -0.041622
    11  C    0.066175
    12  C    0.061613
    13  C   -0.064234
    14  H    0.001604
    15  N   -0.381023
    16  C    0.179985
    17  C   -0.151789
    18  C   -0.018613
    19  C    0.094795
    20  C    0.107331
    21  C   -0.005718
    22  O   -0.232216
    23  C    0.074373
    24  N   -0.261007
    25  C    0.046021
    26  C   -0.044079
    27  C   -0.048521
    28  C    0.017428
    29  C    0.079025
    30  C    0.027469
    31  C    0.003015
    32  N   -0.356639
    33  C    0.120872
    34  C   -0.150012
    35  C   -0.006753
    36  C    0.104761
    37  C    0.121498
    38  C    0.014250
    39  O   -0.146076
    40  C    0.025573
    41  C    0.218339
    42  O   -0.248919
    43  O   -0.321512
    44  C    0.184515
    45  H   -0.049201
    46  H    0.001137
    47  H   -0.028723
    48  H    0.022838
    49  H    0.008027
    50  H    0.027368
    51  H    0.010396
    52  H    0.004935
    53  H   -0.006431
    54  H    0.001662
    55  H    0.031403
    56  H    0.046806
    57  H    0.002018
    58  H    0.041588
    59  H    0.029954
    60  H    0.037764
    61  H    0.020621
    62  H    0.031149
    63  H    0.014346
    64  H    0.014672
    65  H    0.025710
    66  H    0.024985
    67  H    0.008092
    68  H    0.007534
    69  H    0.001700
    70  H    0.019690
    71  H    0.010869
    72  H    0.018624
    73  H    0.025103
    74  H    0.026372
    75  H    0.033628
    76  H    0.036810
    77  H    0.048269
    78  H    0.035142
    79  H    0.032090
    80  Mg   0.819017
    81  C   -0.027532
    82  C   -0.090334
    83  C   -0.046267
    84  C   -0.087364
    85  N   -0.261348
    86  C   -0.073410
    87  C   -0.067290
    88  C   -0.064287
    89  C    0.017943
    90  C    0.108028
    91  C    0.065024
    92  C   -0.081536
    93  H    0.029420
    94  N   -0.432470
    95  C    0.196321
    96  C   -0.155250
    97  C   -0.066228
    98  C    0.129225
    99  C    0.128370
   100  C    0.011631
   101  O   -0.165231
   102  C    0.046962
   103  N   -0.260883
   104  C    0.045574
   105  C   -0.043760
   106  C   -0.029950
   107  C    0.049944
   108  C    0.066780
   109  C    0.022704
   110  C    0.021381
   111  N   -0.342427
   112  C    0.111614
   113  C   -0.193839
   114  C    0.033649
   115  C    0.152510
   116  C    0.142368
   117  C    0.016950
   118  O   -0.185136
   119  C    0.043546
   120  C    0.222872
   121  O   -0.216001
   122  O   -0.330694
   123  C    0.180773
   124  H   -0.024277
   125  H   -0.052566
   126  H   -0.027307
   127  H   -0.005472
   128  H   -0.002416
   129  H    0.020540
   130  H    0.016880
   131  H    0.032971
   132  H    0.008326
   133  H    0.031385
   134  H    0.028585
   135  H    0.035472
   136  H    0.032221
   137  H   -0.009178
   138  H    0.027802
   139  H    0.050349
   140  H    0.014674
   141  H    0.046900
   142  H    0.006566
   143  H    0.001283
   144  H    0.023833
   145  H    0.019664
   146  H    0.008317
   147  H    0.019321
   148  H   -0.007797
   149  H    0.021968
   150  H    0.005692
   151  H    0.020198
   152  H    0.016097
   153  H    0.034088
   154  H    0.041591
   155  H    0.030820
   156  H    0.024035
   157  H    0.031510
   158  H    0.036560
 Sum of Mulliken charges =  -0.00000

 Dipole moment (field-independent basis, Debye):
    X=              1.7188    Y=              2.9585    Z=             -3.6209  Tot=              4.9818
 Quadrupole moment (field-independent basis, Debye-Ang):
   XX=           -371.9705   YY=           -575.6405   ZZ=           -480.2831
   XY=             -1.7885   XZ=             74.1786   YZ=              8.5779

 Normal termination of Gaussian 16 at Thu Sep  2 07:36:32 2021.
