 Gaussian 16, Revision A.03,
 Gaussian 16:  ES64L-G16RevA.03 25-Dec-2016

 ----------------------------------------------------------
 #p cam-b3lyp/Def2SVP td=(nstates=5) density=(transition=1)
 ----------------------------------------------------------

 --------------------------------
 TDDFT excited states in gaussian
 --------------------------------
 Symbolic Z-matrix:
 Charge =  0 Multiplicity = 1

                         Standard orientation:
 ---------------------------------------------------------------------
 Center     Atomic      Atomic             Coordinates (Angstroms)
 Number     Number       Type             X           Y           Z
 ---------------------------------------------------------------------
      1         12           0      -27.448329   -0.538412   -0.339251
      2          6           0      -25.675700    2.577380   -0.390175
      3          6           0      -29.422124    0.763976    2.170620
      4          6           0      -28.609177   -3.559561    0.108290
      5          6           0      -25.191597   -1.673167   -2.711997
      6          7           0      -27.353080    1.413588    0.989626
      7          6           0      -26.616039    2.514467    0.646183
      8          6           0      -27.143903    3.752527    1.419465
      9          6           0      -28.322864    3.164251    2.302241
     10          6           0      -28.402976    1.662772    1.842775
     11          6           0      -28.180468    3.247028    3.880235
     12          6           0      -27.630279    4.928296    0.530749
     13          6           0      -27.211577    6.304086    0.910154
     14          1           0      -26.691143    6.690283    2.347231
     15          7           0      -28.856219   -1.350849    0.992400
     16          6           0      -29.678742   -0.649509    1.873635
     17          6           0      -30.536682   -1.611730    2.591386
     18          6           0      -30.372001   -2.870043    1.894576
     19          6           0      -29.246028   -2.640891    0.959617
     20          6           0      -31.444312   -1.297275    3.741838
     21          6           0      -31.114201   -4.218895    2.044843
     22          8           0      -31.106074   -5.138658    1.199702
     23          6           0      -32.033808   -4.364984    3.189857
     24          7           0      -26.923399   -2.296257   -1.127661
     25          6           0      -27.549286   -3.447207   -0.701831
     26          6           0      -27.179216   -4.654831   -1.606888
     27          6           0      -26.347670   -3.924170   -2.752121
     28          6           0      -26.143139   -2.530568   -2.183818
     29          6           0      -26.414606   -5.875590   -0.950085
     30          6           0      -26.979633   -3.862719   -4.133675
     31          6           0      -26.244998   -4.649351   -5.239383
     32          7           0      -25.895689    0.302099   -1.501879
     33          6           0      -25.050723   -0.298593   -2.404841
     34          6           0      -24.039000    0.663014   -2.862010
     35          6           0      -24.306982    1.804887   -2.128058
     36          6           0      -25.434272    1.545606   -1.316955
     37          6           0      -22.917300    0.463656   -3.827076
     38          6           0      -23.860536    3.141079   -1.960781
     39          8           0      -22.994681    3.828939   -2.572881
     40          6           0      -24.683699    3.683390   -0.870336
     41          6           0      -23.804504    4.263686    0.204222
     42          8           0      -23.125273    3.639507    0.945625
     43          8           0      -23.954622    5.587331    0.247790
     44          6           0      -23.009490    6.375404    0.963451
     45          1           0      -30.083761    1.091915    2.975276
     46          1           0      -28.929238   -4.604422    0.114845
     47          1           0      -24.439328   -2.063298   -3.399539
     48          1           0      -26.311418    4.094049    2.035748
     49          1           0      -29.262398    3.647006    2.034996
     50          1           0      -27.344234    3.844225    4.242708
     51          1           0      -27.970263    2.234621    4.228189
     52          1           0      -29.116289    3.579948    4.330152
     53          1           0      -28.717366    5.003629    0.485659
     54          1           0      -27.289382    4.845787   -0.500878
     55          1           0      -28.060026    6.983360    0.822165
     56          1           0      -26.444771    6.614189    0.200803
     57          1           0      -31.209842   -1.956083    4.577675
     58          1           0      -32.456380   -1.512416    3.398991
     59          1           0      -31.473912   -0.227032    3.948901
     60          1           0      -31.437219   -4.295789    4.099523
     61          1           0      -32.406410   -5.387295    3.130155
     62          1           0      -32.900489   -3.709831    3.106202
     63          1           0      -28.123488   -4.995299   -2.032979
     64          1           0      -25.403050   -4.460365   -2.842617
     65          1           0      -26.254830   -5.690230    0.111486
     66          1           0      -25.504861   -6.149701   -1.485620
     67          1           0      -27.045649   -6.754926   -1.080119
     68          1           0      -27.247645   -2.873514   -4.505082
     69          1           0      -27.950243   -4.350974   -4.052954
     70          1           0      -26.127530   -4.154556   -6.203271
     71          1           0      -26.913604   -5.455909   -5.541464
     72          1           0      -25.251393   -5.010231   -4.977097
     73          1           0      -23.055544   -0.417199   -4.454695
     74          1           0      -22.004570    0.206116   -3.289964
     75          1           0      -22.762233    1.422866   -4.320855
     76          1           0      -25.287726    4.471537   -1.319097
     77          1           0      -22.104935    6.391582    0.353853
     78          1           0      -22.708699    5.880659    1.887071
     79          1           0      -23.353466    7.404711    1.068391
     80         12           0       26.555755   -0.664881    0.320348
     81          6           0       27.427901    2.213922   -1.318988
     82          6           0       25.725329    1.113099    3.031168
     83          6           0       25.973161   -3.597586    1.876940
     84          6           0       27.959717   -2.554201   -2.450687
     85          7           0       26.844718    1.461843    0.873003
     86          6           0       27.100526    2.469503    0.029947
     87          6           0       26.945147    3.891566    0.777801
     88          6           0       26.382345    3.406137    2.165819
     89          6           0       26.336584    1.867786    2.070045
     90          6           0       27.145622    3.975864    3.377335
     91          6           0       26.008228    4.889746    0.040147
     92          6           0       25.493308    6.140928    0.823930
     93          1           0       26.171209    7.529204    0.513396
     94          7           0       25.974307   -1.175474    2.232460
     95          6           0       25.584524   -0.326335    3.160363
     96          6           0       25.133029   -1.080532    4.319899
     97          6           0       25.286923   -2.479159    4.080251
     98          6           0       25.759343   -2.468211    2.678301
     99          6           0       24.725687   -0.483570    5.656820
    100          6           0       25.080892   -3.676427    5.002302
    101          8           0       25.538546   -4.779808    4.719229
    102          6           0       24.314013   -3.484467    6.263723
    103          7           0       26.963630   -2.781791   -0.205652
    104          6           0       26.582204   -3.776417    0.586844
    105          6           0       26.741123   -5.148033   -0.089853
    106          6           0       27.161211   -4.726114   -1.495419
    107          6           0       27.405547   -3.270000   -1.354834
    108          6           0       27.669767   -6.176279    0.573012
    109          6           0       26.253884   -5.232452   -2.588000
    110          6           0       26.899191   -6.221959   -3.622642
    111          7           0       27.431768   -0.301050   -1.490666
    112          6           0       27.882045   -1.143260   -2.562076
    113          6           0       28.277645   -0.359701   -3.711682
    114          6           0       28.078675    0.959448   -3.217459
    115          6           0       27.591302    0.927050   -1.904830
    116          6           0       28.630020   -0.753762   -5.102672
    117          6           0       28.049125    2.309705   -3.720300
    118          8           0       28.143796    2.814954   -4.848846
    119          6           0       27.767164    3.214650   -2.547086
    120          6           0       29.067824    3.966581   -2.188244
    121          8           0       30.218576    3.506185   -2.135027
    122          8           0       28.733448    5.261138   -1.922047
    123          6           0       29.840088    6.210213   -1.580653
    124          1           0       25.308185    1.578084    3.926856
    125          1           0       26.005313   -4.574789    2.363254
    126          1           0       28.235930   -3.187092   -3.295958
    127          1           0       27.970300    4.249467    0.865860
    128          1           0       25.341270    3.723562    2.224611
    129          1           0       26.396788    4.268749    4.112442
    130          1           0       27.701427    4.878095    3.121838
    131          1           0       27.824496    3.232083    3.794670
    132          1           0       25.083035    4.337655   -0.125040
    133          1           0       26.498546    5.266552   -0.857393
    134          1           0       25.754485    5.984685    1.871084
    135          1           0       24.429359    6.263337    0.624074
    136          1           0       24.777299    0.605032    5.638557
    137          1           0       25.392851   -0.847795    6.437679
    138          1           0       23.713406   -0.770980    5.938199
    139          1           0       23.404183   -2.962590    5.965831
    140          1           0       24.705043   -2.934051    7.118892
    141          1           0       24.046382   -4.425790    6.742495
    142          1           0       25.755047   -5.609407   -0.131357
    143          1           0       28.126261   -5.191606   -1.694872
    144          1           0       27.146927   -7.123543    0.443326
    145          1           0       27.876707   -5.897360    1.606099
    146          1           0       28.681341   -6.196144    0.167641
    147          1           0       26.024796   -4.336870   -3.164664
    148          1           0       25.357835   -5.729254   -2.217118
    149          1           0       27.953550   -6.370685   -3.388080
    150          1           0       26.834258   -5.749452   -4.603236
    151          1           0       26.377513   -7.170372   -3.751754
    152          1           0       28.427121   -1.813477   -5.255122
    153          1           0       29.714611   -0.666662   -5.156047
    154          1           0       28.020079   -0.108447   -5.736492
    155          1           0       26.993497    3.890082   -2.912723
    156          1           0       30.559029    5.840706   -0.849020
    157          1           0       29.504823    7.198359   -1.267322
    158          1           0       30.419977    6.316409   -2.497311
 ---------------------------------------------------------------------

 SCF Done:  E(RCAM-B3LYP) =  -4069.80953801     A.U. after   19 cycles

 Excitation energies and oscillator strengths:

 Excited State   1:      Singlet-A      1.7200 eV  720.85 nm  f=0.4011  <S**2>=0.000
     309 -> 316       -0.17631
     311 -> 313        0.68674
     309 <- 316       -0.10594
 This state for optimization and/or second-order correction.
 Total Energy, E(TD-HF/TD-DFT) =  -4069.74632989
 Copying the excited state density for this state as the 1-particle RhoCI density.

 Excited State   2:      Singlet-A      1.7216 eV  720.18 nm  f=0.4236  <S**2>=0.000
     310 -> 315       -0.17573
     312 -> 314        0.68355
     310 <- 315       -0.10315

 Excited State   3:      Singlet-A      2.2103 eV  560.94 nm  f=0.1290  <S**2>=0.000
     309 -> 313        0.65015
     311 -> 316        0.26633

 Excited State   4:      Singlet-A      2.2690 eV  546.42 nm  f=0.1129  <S**2>=0.000
     310 -> 314        0.63910
     312 -> 315        0.28652

 Excited State   5:      Singlet-A      3.1287 eV  396.27 nm  f=0.0000  <S**2>=0.000
     312 -> 313        0.70711

 The electronic state is 1-A.
 Alpha  occ. eigenvalues --  -46.89175 -46.88930 -19.25611 -19.25020 -19.19673
 Alpha  occ. eigenvalues --  -19.19525 -19.19439 -19.19045 -19.18566 -19.17663
 Alpha  occ. eigenvalues --  -14.42075 -14.42055 -14.41718 -14.41638 -14.40074
 Alpha  occ. eigenvalues --  -14.39714 -14.39578 -14.39265 -10.39541 -10.39066
 Alpha  occ. eigenvalues --  -10.36084 -10.34978 -10.34727 -10.33329 -10.32168
 Alpha  occ. eigenvalues --  -10.31719 -10.31668 -10.31525 -10.31047 -10.30975
 Alpha  occ. eigenvalues --  -10.30955 -10.30568 -10.30476 -10.30370 -10.30297
 Alpha  occ. eigenvalues --  -10.30177 -10.30008 -10.29972 -10.29718 -10.29568
 Alpha  occ. eigenvalues --  -10.29337 -10.29316 -10.28791 -10.28776 -10.28769
 Alpha  occ. eigenvalues --  -10.28569 -10.28402 -10.28388 -10.28372 -10.28284
 Alpha  occ. eigenvalues --  -10.28216 -10.28116 -10.28085 -10.28052 -10.27977
 Alpha  occ. eigenvalues --  -10.27758 -10.27584 -10.27534 -10.27526 -10.27479
 Alpha  occ. eigenvalues --  -10.27206 -10.27073 -10.27015 -10.27013 -10.27011
 Alpha  occ. eigenvalues --  -10.26784 -10.26750 -10.26739 -10.26694 -10.26513
 Alpha  occ. eigenvalues --  -10.26490 -10.26480 -10.26245 -10.26231 -10.26225
 Alpha  occ. eigenvalues --  -10.26213 -10.26168 -10.25934 -10.25913 -10.25700
 Alpha  occ. eigenvalues --  -10.25650 -10.25599 -10.25466 -10.25211 -10.25202
 Alpha  occ. eigenvalues --  -10.24385  -3.17700  -3.17507  -1.92591  -1.92390
 Alpha  occ. eigenvalues --   -1.92149  -1.92013  -1.91977  -1.91807  -1.18639
 Alpha  occ. eigenvalues --   -1.15546  -1.10375  -1.09728  -1.08326  -1.08103
 Alpha  occ. eigenvalues --   -1.07953  -1.06525  -1.05716  -1.04851  -1.04372
 Alpha  occ. eigenvalues --   -1.03863  -1.03790  -1.02942  -1.02550  -1.01804
 Alpha  occ. eigenvalues --   -0.93591  -0.91256  -0.89906  -0.89148  -0.88715
 Alpha  occ. eigenvalues --   -0.88563  -0.88390  -0.88157  -0.87759  -0.87538
 Alpha  occ. eigenvalues --   -0.87142  -0.86988  -0.86901  -0.86306  -0.84574
 Alpha  occ. eigenvalues --   -0.84176  -0.83546  -0.83320  -0.82643  -0.82346
 Alpha  occ. eigenvalues --   -0.82153  -0.82079  -0.81736  -0.81094  -0.80527
 Alpha  occ. eigenvalues --   -0.80026  -0.78522  -0.78322  -0.77731  -0.77543
 Alpha  occ. eigenvalues --   -0.77178  -0.76726  -0.76378  -0.76084  -0.75338
 Alpha  occ. eigenvalues --   -0.75220  -0.73195  -0.72620  -0.71671  -0.71512
 Alpha  occ. eigenvalues --   -0.69430  -0.69421  -0.69098  -0.68994  -0.67697
 Alpha  occ. eigenvalues --   -0.67563  -0.67512  -0.66272  -0.65941  -0.65832
 Alpha  occ. eigenvalues --   -0.64937  -0.64875  -0.64869  -0.64494  -0.64448
 Alpha  occ. eigenvalues --   -0.63930  -0.63051  -0.62622  -0.60717  -0.60353
 Alpha  occ. eigenvalues --   -0.59883  -0.59644  -0.59356  -0.59159  -0.58868
 Alpha  occ. eigenvalues --   -0.58625  -0.58231  -0.57974  -0.57776  -0.57425
 Alpha  occ. eigenvalues --   -0.56514  -0.56297  -0.56130  -0.55647  -0.55198
 Alpha  occ. eigenvalues --   -0.55130  -0.54935  -0.54527  -0.54180  -0.53774
 Alpha  occ. eigenvalues --   -0.53729  -0.53449  -0.53387  -0.53270  -0.53037
 Alpha  occ. eigenvalues --   -0.52815  -0.52787  -0.52560  -0.52426  -0.52152
 Alpha  occ. eigenvalues --   -0.51672  -0.51670  -0.51600  -0.51507  -0.51175
 Alpha  occ. eigenvalues --   -0.51136  -0.51101  -0.50693  -0.50469  -0.50099
 Alpha  occ. eigenvalues --   -0.50056  -0.49955  -0.49902  -0.49777  -0.49680
 Alpha  occ. eigenvalues --   -0.49353  -0.49274  -0.49109  -0.49029  -0.48956
 Alpha  occ. eigenvalues --   -0.48774  -0.48598  -0.48556  -0.48352  -0.48256
 Alpha  occ. eigenvalues --   -0.48154  -0.47780  -0.47727  -0.47645  -0.47435
 Alpha  occ. eigenvalues --   -0.47288  -0.46931  -0.46797  -0.46775  -0.46370
 Alpha  occ. eigenvalues --   -0.46232  -0.46133  -0.46128  -0.46071  -0.45956
 Alpha  occ. eigenvalues --   -0.45825  -0.45302  -0.44971  -0.44806  -0.44684
 Alpha  occ. eigenvalues --   -0.44560  -0.44506  -0.44468  -0.44394  -0.44117
 Alpha  occ. eigenvalues --   -0.43996  -0.43850  -0.43662  -0.43580  -0.43461
 Alpha  occ. eigenvalues --   -0.43052  -0.42908  -0.42746  -0.42705  -0.42628
 Alpha  occ. eigenvalues --   -0.42195  -0.42172  -0.42005  -0.41975  -0.41878
 Alpha  occ. eigenvalues --   -0.41824  -0.41646  -0.41516  -0.41452  -0.41191
 Alpha  occ. eigenvalues --   -0.41083  -0.40985  -0.40826  -0.40414  -0.40288
 Alpha  occ. eigenvalues --   -0.40102  -0.39703  -0.39265  -0.39142  -0.39078
 Alpha  occ. eigenvalues --   -0.38254  -0.38204  -0.37930  -0.37856  -0.37040
 Alpha  occ. eigenvalues --   -0.36968  -0.36667  -0.36549  -0.36283  -0.36192
 Alpha  occ. eigenvalues --   -0.35944  -0.35869  -0.34699  -0.34275  -0.34145
 Alpha  occ. eigenvalues --   -0.33990  -0.33346  -0.32925  -0.31955  -0.31616
 Alpha  occ. eigenvalues --   -0.31460  -0.31096  -0.30780  -0.30618  -0.30578
 Alpha  occ. eigenvalues --   -0.29957  -0.29656  -0.29501  -0.24133  -0.23902
 Alpha  occ. eigenvalues --   -0.21325  -0.21094
 Alpha virt. eigenvalues --   -0.08956  -0.08540  -0.01760  -0.01491  -0.00209
 Alpha virt. eigenvalues --    0.00587   0.01907   0.01910   0.02345   0.02563
 Alpha virt. eigenvalues --    0.04912   0.05254   0.05690   0.06097   0.06262

 Mulliken charges:
               1
     1  Mg  11.999754
     2  C    5.972268
     3  C    6.008792
     4  C    6.033612
     5  C    5.989367
     6  N    6.992928
     7  C    6.035908
     8  C    5.988698
     9  C    6.006511
    10  C    5.974192
    11  C    6.002614
    12  C    5.997792
    13  C    5.998658
    14  H    1.005790
    15  N    7.006643
    16  C    5.952696
    17  C    5.980786
    18  C    5.984384
    19  C    5.960315
    20  C    6.004676
    21  C    5.984623
    22  O    7.969341
    23  C    6.008364
    24  N    7.007439
    25  C    5.959981
    26  C    6.013414
    27  C    5.990621
    28  C    6.031154
    29  C    5.999108
    30  C    5.990518
    31  C    5.998440
    32  N    6.993554
    33  C    6.039699
    34  C    6.034280
    35  C    6.000910
    36  C    6.037715
    37  C    5.995595
    38  C    6.015057
    39  O    8.030561
    40  C    5.995575
    41  C    6.005563
    42  O    8.004578
    43  O    8.001766
    44  C    5.998183
    45  H    0.989587
    46  H    0.995291
    47  H    1.012890
    48  H    1.000276
    49  H    0.998643
    50  H    0.987460
    51  H    1.004608
    52  H    0.999220
    53  H    1.009581
    54  H    0.992823
    55  H    1.003903
    56  H    0.995055
    57  H    0.980568
    58  H    0.980346
    59  H    0.980999
    60  H    0.992032
    61  H    0.984090
    62  H    0.992384
    63  H    1.000699
    64  H    1.002553
    65  H    1.003361
    66  H    0.989674
    67  H    1.000784
    68  H    0.998260
    69  H    1.014895
    70  H    0.999856
    71  H    1.007035
    72  H    1.000707
    73  H    1.019560
    74  H    1.023943
    75  H    1.016466
    76  H    1.009737
    77  H    0.999931
    78  H    1.004855
    79  H    1.005497
    80  Mg  11.999944
    81  C    6.000686
    82  C    5.999065
    83  C    5.999687
    84  C    6.000499
    85  N    6.999967
    86  C    5.999006
    87  C    6.000222
    88  C    5.999676
    89  C    6.001105
    90  C    5.999963
    91  C    6.000173
    92  C    5.999969
    93  H    1.000013
    94  N    6.999848
    95  C    6.001462
    96  C    6.000521
    97  C    6.000477
    98  C    6.001017
    99  C    5.999835
   100  C    6.000423
   101  O    8.000735
   102  C    5.999781
   103  N    7.000080
   104  C    6.001061
   105  C    5.999629
   106  C    6.000405
   107  C    5.998947
   108  C    5.999920
   109  C    5.999985
   110  C    6.000010
   111  N    7.000080
   112  C    5.998674
   113  C    5.999277
   114  C    5.999701
   115  C    5.999095
   116  C    6.000078
   117  C    5.999561
   118  O    7.998969
   119  C    6.000016
   120  C    5.999831
   121  O    7.999960
   122  O    7.999926
   123  C    6.000043
   124  H    1.000104
   125  H    1.000277
   126  H    0.999644
   127  H    1.000016
   128  H    1.000024
   129  H    0.999954
   130  H    1.000332
   131  H    0.999956
   132  H    0.999854
   133  H    1.000165
   134  H    0.999802
   135  H    0.999897
   136  H    1.000662
   137  H    1.000606
   138  H    1.000588
   139  H    1.000129
   140  H    1.000313
   141  H    1.000475
   142  H    1.000013
   143  H    1.000021
   144  H    1.000168
   145  H    0.999816
   146  H    1.000355
   147  H    1.000168
   148  H    0.999618
   149  H    0.999970
   150  H    1.000090
   151  H    0.999828
   152  H    0.999441
   153  H    0.999473
   154  H    0.999575
   155  H    0.999694
   156  H    0.999873
   157  H    0.999810
   158  H    0.999970
 Sum of Mulliken charges = 624.00000

 Dipole moment (field-independent basis, Debye):
    X=              8.1819    Y=              4.0786    Z=             -6.2774  Tot=             11.0898
 Quadrupole moment (field-independent basis, Debye-Ang):
   XX=           -458.0581   YY=             -2.5931   ZZ=              2.7661
   XY=           -120.3997   XZ=            187.0853   YZ=              4.5976

 Normal termination of Gaussian 16 at Thu Sep 23 06:06:46 2021.
