 Gaussian 16, Revision A.03,
 Gaussian 16:  ES64L-G16RevA.03 25-Dec-2016

 ----------------------------------------------------------
 #p cam-b3lyp/Def2SVP td=(nstates=5) density=(transition=1)
 ----------------------------------------------------------

 --------------------------------
 TDDFT excited states in gaussian
 --------------------------------
 Symbolic Z-matrix:
 Charge =  0 Multiplicity = 1

                         Standard orientation:
 ---------------------------------------------------------------------
 Center     Atomic      Atomic             Coordinates (Angstroms)
 Number     Number       Type             X           Y           Z
 ---------------------------------------------------------------------
      1         12           0       25.043660   -0.057453   -0.110488
      2          6           0       21.522247   -0.108364    0.294216
      3          6           0       24.602280    2.194862   -2.612462
      4          6           0       28.376005    0.589497    0.080090
      5          6           0       25.300081   -1.941890    2.787078
      6          7           0       23.190776    0.989242   -0.870628
      7          6           0       21.854341    0.770839   -0.664904
      8          6           0       21.011025    1.564159   -1.592487
      9          6           0       22.047732    2.023944   -2.722319
     10          6           0       23.347354    1.745036   -2.047782
     11          6           0       21.845044    1.261610   -4.021838
     12          6           0       20.333803    2.666890   -0.763647
     13          6           0       18.752639    2.776625   -0.839744
     14          1           0       18.051264    4.111280   -1.234045
     15          7           0       26.368038    1.159476   -1.118287
     16          6           0       25.975532    1.960633   -2.199538
     17          6           0       27.163105    2.475466   -2.812372
     18          6           0       28.302268    2.061567   -2.042556
     19          6           0       27.706401    1.169084   -1.012529
     20          6           0       27.086338    3.305570   -4.087295
     21          6           0       29.761763    2.402154   -2.245365
     22          8           0       29.983834    3.054575   -3.306265
     23          6           0       30.961533    2.151571   -1.288508
     24          7           0       26.661273   -0.603521    1.247144
     25          6           0       27.950641   -0.233220    1.084916
     26          6           0       28.883205   -0.757820    2.208676
     27          6           0       27.897575   -1.669404    3.018133
     28          6           0       26.494332   -1.337046    2.322904
     29          6           0       30.056660   -1.499384    1.593836
     30          6           0       27.837458   -1.401678    4.491047
     31          6           0       28.398074   -2.513942    5.335146
     32          7           0       23.790736   -1.009756    1.168259
     33          6           0       23.984730   -1.806866    2.303489
     34          6           0       22.823999   -2.419465    2.707837
     35          6           0       21.823754   -1.811671    1.921887
     36          6           0       22.454109   -0.912942    1.064352
     37          6           0       22.780670   -3.576983    3.682837
     38          6           0       20.369137   -1.844323    1.614376
     39          8           0       19.513351   -2.527436    2.084978
     40          6           0       20.195245   -0.652282    0.598956
     41          6           0       19.214226   -1.112474   -0.457200
     42          8           0       18.036523   -0.759552   -0.519721
     43          8           0       19.857614   -1.962264   -1.389487
     44          6           0       18.983124   -2.333634   -2.501504
     45          1           0       24.473942    2.739567   -3.550432
     46          1           0       29.463290    0.689019    0.119513
     47          1           0       25.289415   -2.342430    3.802279
     48          1           0       20.239166    0.923099   -2.018557
     49          1           0       21.882782    3.082276   -2.922603
     50          1           0       21.580417    0.216055   -3.870157
     51          1           0       22.798699    1.227294   -4.549643
     52          1           0       21.141342    1.736700   -4.705316
     53          1           0       20.762752    3.615734   -1.085499
     54          1           0       20.615279    2.662442    0.289375
     55          1           0       18.501401    2.550954    0.196946
     56          1           0       18.331674    1.919003   -1.363182
     57          1           0       26.365104    4.116363   -3.984522
     58          1           0       26.725446    2.631434   -4.863989
     59          1           0       27.983263    3.847164   -4.390922
     60          1           0       31.079921    1.068933   -1.319547
     61          1           0       30.684205    2.488429   -0.289584
     62          1           0       31.859421    2.690334   -1.592382
     63          1           0       29.308625    0.025540    2.835435
     64          1           0       28.072425   -2.716059    2.770377
     65          1           0       30.497880   -0.849810    0.837684
     66          1           0       29.675548   -2.407635    1.125900
     67          1           0       30.828873   -1.911034    2.242605
     68          1           0       26.824078   -1.271990    4.870980
     69          1           0       28.326571   -0.494448    4.845190
     70          1           0       29.156024   -2.086242    5.990253
     71          1           0       28.932308   -3.261432    4.748670
     72          1           0       27.647276   -3.073619    5.893986
     73          1           0       21.807364   -4.048800    3.544261
     74          1           0       22.883103   -3.250720    4.717531
     75          1           0       23.617275   -4.212456    3.393233
     76          1           0       19.612504    0.057326    1.187435
     77          1           0       19.571211   -2.556160   -3.391963
     78          1           0       18.383141   -1.488080   -2.834895
     79          1           0       18.306447   -3.153260   -2.258232
     80         12           0      -24.905720    0.329472    0.348737
     81          6           0      -22.098804   -1.714767   -0.247254
     82          6           0      -26.899140   -2.121935   -0.895280
     83          6           0      -27.552756    2.378496    0.833140
     84          6           0      -22.756237    2.927270    1.179224
     85          7           0      -24.545868   -1.614646   -0.554166
     86          6           0      -23.328787   -2.300611   -0.590648
     87          6           0      -23.567806   -3.714245   -1.028921
     88          6           0      -24.973815   -3.631393   -1.669269
     89          6           0      -25.523622   -2.352850   -0.985874
     90          6           0      -25.051783   -3.471868   -3.220482
     91          6           0      -23.468079   -4.809843    0.098321
     92          6           0      -22.647355   -6.004524   -0.270399
     93          1           0      -23.240028   -7.381668    0.082018
     94          7           0      -26.897627    0.098155    0.113041
     95          6           0      -27.573053   -1.047211   -0.340262
     96          6           0      -28.965034   -0.837206   -0.292955
     97          6           0      -29.215264    0.516752    0.232887
     98          6           0      -27.893724    1.041928    0.425939
     99          6           0      -30.011973   -1.770174   -0.827569
    100          6           0      -30.548489    1.351687    0.465877
    101          8           0      -30.509902    2.463080    0.938123
    102          6           0      -31.914900    0.737236    0.197662
    103          7           0      -25.109859    2.403356    0.820747
    104          6           0      -26.325084    2.997967    0.939763
    105          6           0      -26.147766    4.551689    1.293128
    106          6           0      -24.612794    4.649577    1.701040
    107          6           0      -24.100279    3.232100    1.201351
    108          6           0      -26.512729    5.559948    0.168703
    109          6           0      -24.365858    4.875503    3.235194
    110          6           0      -23.491489    6.034229    3.472942
    111          7           0      -22.854804    0.599503    0.407149
    112          6           0      -22.119168    1.687897    0.873643
    113          6           0      -20.716342    1.374437    0.851740
    114          6           0      -20.665075    0.072751    0.396374
    115          6           0      -21.931873   -0.365228    0.170621
    116          6           0      -19.632932    2.361386    1.359392
    117          6           0      -19.775153   -1.016701    0.039076
    118          8           0      -18.565676   -1.001120   -0.025702
    119          6           0      -20.697553   -2.249101   -0.428713
    120          6           0      -20.354328   -2.602617   -1.818349
    121          8           0      -20.418739   -1.808254   -2.792998
    122          8           0      -19.928483   -3.898389   -1.839507
    123          6           0      -19.195368   -4.282091   -3.074956
    124          1           0      -27.471083   -2.935507   -1.346234
    125          1           0      -28.346887    3.109124    0.999450
    126          1           0      -22.093840    3.772794    1.373558
    127          1           0      -22.933522   -4.035752   -1.855893
    128          1           0      -25.599736   -4.498730   -1.458684
    129          1           0      -24.253062   -3.984115   -3.758496
    130          1           0      -25.040766   -2.401702   -3.428793
    131          1           0      -25.997530   -3.759066   -3.679317
    132          1           0      -24.501110   -5.067274    0.331374
    133          1           0      -23.093887   -4.390838    1.032863
    134          1           0      -21.722619   -5.793863    0.267035
    135          1           0      -22.531696   -6.047794   -1.353303
    136          1           0      -30.596029   -2.304564   -0.077976
    137          1           0      -29.524725   -2.576314   -1.374567
    138          1           0      -30.760933   -1.370911   -1.510964
    139          1           0      -32.638510    1.459884    0.572855
    140          1           0      -31.986358   -0.274778    0.597259
    141          1           0      -31.999569    0.476047   -0.857596
    142          1           0      -26.843021    4.833321    2.084121
    143          1           0      -24.153619    5.446335    1.113966
    144          1           0      -26.786934    5.133138   -0.796609
    145          1           0      -25.707385    6.259605   -0.056293
    146          1           0      -27.357074    6.143576    0.536493
    147          1           0      -23.840413    4.006405    3.632771
    148          1           0      -25.267237    5.067054    3.817003
    149          1           0      -24.113748    6.887298    3.744717
    150          1           0      -22.773972    6.324065    2.706121
    151          1           0      -22.799375    5.802814    4.282663
    152          1           0      -20.112065    3.128909    1.967675
    153          1           0      -19.003727    2.719783    0.543395
    154          1           0      -19.029001    1.762490    2.040058
    155          1           0      -20.566480   -3.117243    0.217733
    156          1           0      -18.769943   -5.279726   -2.967415
    157          1           0      -18.331518   -3.617681   -3.104863
    158          1           0      -19.886274   -4.139530   -3.906346
 ---------------------------------------------------------------------

 SCF Done:  E(RCAM-B3LYP) =  -4069.83115248     A.U. after   19 cycles

 Excitation energies and oscillator strengths:

 Excited State   1:      Singlet-A      1.6837 eV  736.38 nm  f=0.3633  <S**2>=0.000
     309 -> 315        0.17392
     311 -> 313        0.68684
     309 <- 315        0.10794
 This state for optimization and/or second-order correction.
 Total Energy, E(TD-HF/TD-DFT) =  -4069.76927787
 Copying the excited state density for this state as the 1-particle RhoCI density.

 Excited State   2:      Singlet-A      1.7437 eV  711.04 nm  f=0.3947  <S**2>=0.000
     310 -> 316        0.17838
     312 -> 314        0.68463
     310 <- 316        0.10695

 Excited State   3:      Singlet-A      2.2018 eV  563.10 nm  f=0.1598  <S**2>=0.000
     310 -> 314        0.65400
     312 -> 316       -0.24979

 Excited State   4:      Singlet-A      2.2196 eV  558.60 nm  f=0.1593  <S**2>=0.000
     309 -> 313        0.64872
     311 -> 315       -0.26682

 Excited State   5:      Singlet-A      3.1246 eV  396.80 nm  f=0.0000  <S**2>=0.000
     312 -> 313        0.70710

 The electronic state is 1-A.
 Alpha  occ. eigenvalues --  -46.89011 -46.87165 -19.25644 -19.25629 -19.21009
 Alpha  occ. eigenvalues --  -19.19872 -19.19856 -19.19498 -19.19020 -19.18307
 Alpha  occ. eigenvalues --  -14.42373 -14.42233 -14.42047 -14.41487 -14.40092
 Alpha  occ. eigenvalues --  -14.39273 -14.39001 -14.38539 -10.40354 -10.39414
 Alpha  occ. eigenvalues --  -10.36327 -10.35667 -10.35481 -10.35021 -10.32163
 Alpha  occ. eigenvalues --  -10.31989 -10.31663 -10.31127 -10.31033 -10.30859
 Alpha  occ. eigenvalues --  -10.30670 -10.30638 -10.30613 -10.30605 -10.30603
 Alpha  occ. eigenvalues --  -10.30554 -10.30422 -10.29903 -10.29082 -10.29063
 Alpha  occ. eigenvalues --  -10.28925 -10.28866 -10.28652 -10.28568 -10.28543
 Alpha  occ. eigenvalues --  -10.28541 -10.28409 -10.28329 -10.28323 -10.28205
 Alpha  occ. eigenvalues --  -10.28120 -10.28046 -10.27991 -10.27885 -10.27848
 Alpha  occ. eigenvalues --  -10.27751 -10.27743 -10.27730 -10.27627 -10.27596
 Alpha  occ. eigenvalues --  -10.27481 -10.27394 -10.27377 -10.27303 -10.27205
 Alpha  occ. eigenvalues --  -10.27037 -10.26971 -10.26934 -10.26762 -10.26713
 Alpha  occ. eigenvalues --  -10.26588 -10.26496 -10.26486 -10.26336 -10.26297
 Alpha  occ. eigenvalues --  -10.26104 -10.26072 -10.25957 -10.25777 -10.25696
 Alpha  occ. eigenvalues --  -10.25371 -10.25322 -10.25207 -10.25087 -10.24639
 Alpha  occ. eigenvalues --  -10.24339  -3.17575  -3.15893  -1.92455  -1.92036
 Alpha  occ. eigenvalues --   -1.91880  -1.90798  -1.90337  -1.90218  -1.15742
 Alpha  occ. eigenvalues --   -1.15590  -1.12044  -1.11694  -1.10307  -1.07952
 Alpha  occ. eigenvalues --   -1.07634  -1.06319  -1.05258  -1.04927  -1.04277
 Alpha  occ. eigenvalues --   -1.03361  -1.03327  -1.02756  -1.02538  -1.01411
 Alpha  occ. eigenvalues --   -0.93321  -0.92565  -0.89940  -0.89326  -0.89193
 Alpha  occ. eigenvalues --   -0.89065  -0.88647  -0.88015  -0.87869  -0.87017
 Alpha  occ. eigenvalues --   -0.87014  -0.86400  -0.85959  -0.85811  -0.84844
 Alpha  occ. eigenvalues --   -0.84298  -0.84284  -0.83815  -0.82892  -0.82638
 Alpha  occ. eigenvalues --   -0.82097  -0.81957  -0.81178  -0.80709  -0.80649
 Alpha  occ. eigenvalues --   -0.80500  -0.78220  -0.77820  -0.77468  -0.77307
 Alpha  occ. eigenvalues --   -0.76903  -0.76761  -0.76504  -0.75719  -0.75516
 Alpha  occ. eigenvalues --   -0.74869  -0.73533  -0.72867  -0.72233  -0.70914
 Alpha  occ. eigenvalues --   -0.69419  -0.68997  -0.68594  -0.68101  -0.67719
 Alpha  occ. eigenvalues --   -0.67576  -0.67244  -0.66529  -0.66360  -0.65703
 Alpha  occ. eigenvalues --   -0.65500  -0.65360  -0.65165  -0.64940  -0.64556
 Alpha  occ. eigenvalues --   -0.64027  -0.63128  -0.61930  -0.60539  -0.60307
 Alpha  occ. eigenvalues --   -0.60103  -0.60102  -0.59604  -0.59234  -0.58969
 Alpha  occ. eigenvalues --   -0.58193  -0.58066  -0.57674  -0.57606  -0.56896
 Alpha  occ. eigenvalues --   -0.56237  -0.56146  -0.55836  -0.55666  -0.55638
 Alpha  occ. eigenvalues --   -0.55491  -0.54978  -0.54956  -0.54357  -0.53908
 Alpha  occ. eigenvalues --   -0.53827  -0.53599  -0.53543  -0.53420  -0.53214
 Alpha  occ. eigenvalues --   -0.52708  -0.52610  -0.52569  -0.52294  -0.52055
 Alpha  occ. eigenvalues --   -0.51872  -0.51807  -0.51724  -0.51542  -0.51128
 Alpha  occ. eigenvalues --   -0.51014  -0.50884  -0.50879  -0.50555  -0.50446
 Alpha  occ. eigenvalues --   -0.50300  -0.50094  -0.50051  -0.49875  -0.49789
 Alpha  occ. eigenvalues --   -0.49665  -0.49437  -0.49396  -0.49094  -0.48922
 Alpha  occ. eigenvalues --   -0.48701  -0.48656  -0.48351  -0.48002  -0.47935
 Alpha  occ. eigenvalues --   -0.47739  -0.47661  -0.47243  -0.47222  -0.46896
 Alpha  occ. eigenvalues --   -0.46772  -0.46631  -0.46614  -0.46469  -0.46442
 Alpha  occ. eigenvalues --   -0.46132  -0.46027  -0.45917  -0.45832  -0.45758
 Alpha  occ. eigenvalues --   -0.45754  -0.45501  -0.45391  -0.45315  -0.45160
 Alpha  occ. eigenvalues --   -0.45068  -0.44892  -0.44729  -0.44659  -0.44440
 Alpha  occ. eigenvalues --   -0.44320  -0.44061  -0.43978  -0.43671  -0.43384
 Alpha  occ. eigenvalues --   -0.43340  -0.43276  -0.42903  -0.42858  -0.42660
 Alpha  occ. eigenvalues --   -0.42599  -0.42507  -0.42442  -0.42419  -0.42266
 Alpha  occ. eigenvalues --   -0.42082  -0.41924  -0.41864  -0.41741  -0.41588
 Alpha  occ. eigenvalues --   -0.41402  -0.41209  -0.41116  -0.40934  -0.40467
 Alpha  occ. eigenvalues --   -0.40139  -0.40058  -0.39139  -0.39044  -0.38826
 Alpha  occ. eigenvalues --   -0.38780  -0.38339  -0.38230  -0.37832  -0.37815
 Alpha  occ. eigenvalues --   -0.37814  -0.37335  -0.37257  -0.36741  -0.36428
 Alpha  occ. eigenvalues --   -0.36316  -0.35974  -0.35417  -0.34705  -0.34230
 Alpha  occ. eigenvalues --   -0.34124  -0.33194  -0.33139  -0.31753  -0.31748
 Alpha  occ. eigenvalues --   -0.31257  -0.31128  -0.30841  -0.30588  -0.30023
 Alpha  occ. eigenvalues --   -0.29969  -0.29794  -0.29546  -0.24417  -0.23953
 Alpha  occ. eigenvalues --   -0.21648  -0.21513
 Alpha virt. eigenvalues --   -0.09332  -0.08996  -0.01838  -0.01253   0.00224
 Alpha virt. eigenvalues --    0.00754   0.01794   0.02401   0.02809   0.03464
 Alpha virt. eigenvalues --    0.04145   0.04524   0.05019   0.05422   0.05707

 Mulliken charges:
               1
     1  Mg  12.001562
     2  C    5.973207
     3  C    6.001504
     4  C    6.039200
     5  C    6.012968
     6  N    6.972336
     7  C    6.030079
     8  C    5.989847
     9  C    6.016800
    10  C    5.973980
    11  C    6.005134
    12  C    5.994536
    13  C    6.000570
    14  H    1.005604
    15  N    7.010231
    16  C    5.956904
    17  C    5.980304
    18  C    5.991086
    19  C    5.951236
    20  C    6.003929
    21  C    5.989089
    22  O    7.980341
    23  C    5.998141
    24  N    7.018474
    25  C    5.958343
    26  C    6.011805
    27  C    5.993240
    28  C    6.018964
    29  C    6.003926
    30  C    5.994612
    31  C    5.997806
    32  N    6.998811
    33  C    6.029310
    34  C    6.028717
    35  C    6.005023
    36  C    6.038280
    37  C    5.999411
    38  C    6.018082
    39  O    8.026510
    40  C    6.003486
    41  C    6.003422
    42  O    8.006334
    43  O    7.997966
    44  C    5.996643
    45  H    0.984587
    46  H    0.999186
    47  H    1.015797
    48  H    0.998394
    49  H    0.994435
    50  H    0.984490
    51  H    1.004909
    52  H    0.989082
    53  H    1.011199
    54  H    0.996259
    55  H    0.995220
    56  H    0.998420
    57  H    0.981980
    58  H    0.981391
    59  H    0.984347
    60  H    0.990030
    61  H    0.989920
    62  H    0.989228
    63  H    0.998958
    64  H    1.002008
    65  H    1.008123
    66  H    0.994765
    67  H    0.993151
    68  H    0.994585
    69  H    1.011109
    70  H    1.007262
    71  H    1.005407
    72  H    0.997750
    73  H    1.015306
    74  H    1.021001
    75  H    1.016520
    76  H    1.004616
    77  H    1.007023
    78  H    1.005626
    79  H    1.000164
    80  Mg  11.999999
    81  C    6.000108
    82  C    6.000110
    83  C    5.999855
    84  C    5.999932
    85  N    7.000033
    86  C    5.999857
    87  C    6.000059
    88  C    5.999967
    89  C    6.000059
    90  C    5.999970
    91  C    6.000015
    92  C    6.000010
    93  H    0.999952
    94  N    7.000019
    95  C    6.000081
    96  C    6.000115
    97  C    6.000085
    98  C    6.000173
    99  C    5.999947
   100  C    6.000074
   101  O    8.000133
   102  C    5.999986
   103  N    6.999975
   104  C    6.000136
   105  C    5.999961
   106  C    6.000022
   107  C    5.999942
   108  C    5.999985
   109  C    6.000032
   110  C    6.000004
   111  N    6.999974
   112  C    5.999889
   113  C    5.999839
   114  C    6.000022
   115  C    5.999837
   116  C    6.000022
   117  C    5.999882
   118  O    7.999822
   119  C    5.999984
   120  C    5.999983
   121  O    8.000004
   122  O    7.999983
   123  C    6.000013
   124  H    1.000065
   125  H    1.000063
   126  H    0.999952
   127  H    0.999978
   128  H    1.000010
   129  H    1.000068
   130  H    1.000029
   131  H    1.000017
   132  H    0.999945
   133  H    0.999998
   134  H    0.999987
   135  H    1.000002
   136  H    1.000126
   137  H    1.000092
   138  H    1.000130
   139  H    1.000093
   140  H    1.000024
   141  H    1.000048
   142  H    1.000002
   143  H    1.000007
   144  H    1.000003
   145  H    1.000064
   146  H    1.000019
   147  H    0.999991
   148  H    0.999949
   149  H    0.999992
   150  H    1.000011
   151  H    0.999971
   152  H    0.999919
   153  H    0.999886
   154  H    0.999859
   155  H    0.999925
   156  H    0.999942
   157  H    0.999977
   158  H    1.000004
 Sum of Mulliken charges = 624.00000

 Dipole moment (field-independent basis, Debye):
    X=             -5.4726    Y=             -5.9878    Z=              6.9287  Tot=             10.6682
 Quadrupole moment (field-independent basis, Debye-Ang):
   XX=           -267.0786   YY=              0.1483   ZZ=             -0.2248
   XY=           -150.0153   XZ=            175.0778   YZ=              0.5845

 Normal termination of Gaussian 16 at Wed Sep 22 17:27:06 2021.
