 Gaussian 16, Revision A.03,
 Gaussian 16:  ES64L-G16RevA.03 25-Dec-2016

 ----------------------------------------------------------
 #p cam-b3lyp/Def2SVP td=(nstates=5) density=(transition=1)
 ----------------------------------------------------------

 --------------------------------
 TDDFT excited states in gaussian
 --------------------------------
 Symbolic Z-matrix:
 Charge =  0 Multiplicity = 1

                         Standard orientation:
 ---------------------------------------------------------------------
 Center     Atomic      Atomic             Coordinates (Angstroms)
 Number     Number       Type             X           Y           Z
 ---------------------------------------------------------------------
      1         12           0      -22.023773   -0.803270   -0.235770
      2          6           0      -23.657371    1.897884    1.370199
      3          6           0      -20.244320    1.635210   -1.998144
      4          6           0      -20.333350   -3.182028   -1.740267
      5          6           0      -24.439594   -2.971164    1.010811
      6          7           0      -21.970017    1.481027   -0.246913
      7          6           0      -22.603755    2.356943    0.581506
      8          6           0      -22.296881    3.846317    0.349137
      9          6           0      -21.252804    3.668514   -0.866205
     10          6           0      -21.184307    2.179374   -1.033413
     11          6           0      -21.711319    4.338592   -2.221536
     12          6           0      -21.664923    4.542907    1.598143
     13          6           0      -22.353819    5.618873    2.428508
     14          1           0      -21.565768    6.766903    3.045354
     15          7           0      -20.437615   -0.809629   -1.622532
     16          6           0      -19.886341    0.294612   -2.288354
     17          6           0      -18.950905   -0.214432   -3.266309
     18          6           0      -18.836295   -1.592907   -3.104145
     19          6           0      -19.852072   -1.913277   -2.082430
     20          6           0      -18.146277    0.761758   -4.054722
     21          6           0      -17.996114   -2.632959   -3.844464
     22          8           0      -18.018531   -3.846073   -3.615297
     23          6           0      -16.989697   -2.125430   -4.800498
     24          7           0      -22.370168   -2.790698   -0.455884
     25          6           0      -21.421932   -3.644836   -0.946850
     26          6           0      -21.715757   -5.121569   -0.515183
     27          6           0      -23.033813   -5.001459    0.238713
     28          6           0      -23.363282   -3.482961    0.215414
     29          6           0      -21.696745   -6.136511   -1.704604
     30          6           0      -22.872816   -5.574363    1.655048
     31          6           0      -23.946908   -6.450451    2.189297
     32          7           0      -23.773882   -0.627821    0.862324
     33          6           0      -24.640205   -1.587108    1.322276
     34          6           0      -25.680019   -1.012084    2.122167
     35          6           0      -25.318713    0.413216    2.294285
     36          6           0      -24.122659    0.563230    1.487605
     37          6           0      -26.879100   -1.768128    2.719616
     38          6           0      -25.661309    1.722176    2.905411
     39          8           0      -26.517520    2.009233    3.759148
     40          6           0      -24.578476    2.718894    2.319270
     41          6           0      -25.476785    3.706957    1.643150
     42          8           0      -25.941250    3.665113    0.510325
     43          8           0      -25.642959    4.766507    2.386524
     44          6           0      -26.626223    5.801148    1.983652
     45          1           0      -19.665115    2.489414   -2.354032
     46          1           0      -19.886212   -4.064643   -2.201636
     47          1           0      -25.146578   -3.677178    1.450634
     48          1           0      -23.213436    4.320486   -0.004078
     49          1           0      -20.219285    3.978658   -0.709017
     50          1           0      -22.760939    4.618412   -2.307283
     51          1           0      -21.523159    3.658817   -3.051823
     52          1           0      -21.111911    5.235395   -2.379295
     53          1           0      -20.746689    5.016603    1.250545
     54          1           0      -21.410216    3.801240    2.354144
     55          1           0      -22.660206    5.029944    3.293149
     56          1           0      -23.146481    5.941530    1.753392
     57          1           0      -17.079484    0.661121   -3.859723
     58          1           0      -18.429460    1.787368   -3.816666
     59          1           0      -18.259415    0.642951   -5.131878
     60          1           0      -16.396075   -1.345689   -4.323128
     61          1           0      -17.439630   -1.570425   -5.623805
     62          1           0      -16.276909   -2.874419   -5.144056
     63          1           0      -20.864853   -5.330505    0.133001
     64          1           0      -23.806859   -5.618318   -0.219227
     65          1           0      -21.326212   -5.721422   -2.641776
     66          1           0      -22.674725   -6.552828   -1.943276
     67          1           0      -21.166431   -7.041050   -1.407178
     68          1           0      -22.803497   -4.673436    2.263324
     69          1           0      -21.986721   -6.192254    1.798353
     70          1           0      -24.240328   -5.980195    3.127548
     71          1           0      -23.596613   -7.480604    2.253189
     72          1           0      -24.871376   -6.448657    1.611437
     73          1           0      -27.706092   -1.736193    2.011233
     74          1           0      -27.136019   -1.301689    3.670561
     75          1           0      -26.662773   -2.825027    2.876926
     76          1           0      -24.076208    3.170815    3.174410
     77          1           0      -26.411697    6.266470    1.022217
     78          1           0      -26.765152    6.594240    2.718103
     79          1           0      -27.663412    5.481897    1.886268
     80         12           0       22.270879   -0.723882    0.336900
     81          6           0       21.569923    2.456876   -1.040195
     82          6           0       23.053526    0.832543    3.285473
     83          6           0       23.536777   -3.591857    1.404627
     84          6           0       21.902250   -2.083533   -2.867304
     85          7           0       22.461383    1.427331    0.988160
     86          6           0       22.004659    2.531345    0.263386
     87          6           0       21.898179    3.765111    1.193292
     88          6           0       22.402111    3.216826    2.578166
     89          6           0       22.634222    1.701165    2.326414
     90          6           0       23.491824    4.007006    3.281477
     91          6           0       20.521274    4.441696    1.280548
     92          6           0       20.543857    5.960654    0.955983
     93          1           0       19.980334    6.863793    2.030579
     94          7           0       23.094332   -1.295483    2.153329
     95          6           0       23.376706   -0.530226    3.246521
     96          6           0       23.794640   -1.416926    4.306180
     97          6           0       24.086389   -2.720990    3.717159
     98          6           0       23.580083   -2.531350    2.366484
     99          6           0       24.161117   -0.886822    5.787805
    100          6           0       24.928203   -3.834379    4.172065
    101          8           0       25.109375   -4.883402    3.622538
    102          6           0       25.664494   -3.617009    5.490643
    103          7           0       22.854435   -2.532934   -0.691853
    104          6           0       23.300460   -3.593528    0.009147
    105          6           0       23.286542   -4.857412   -0.853826
    106          6           0       22.439158   -4.433050   -2.064027
    107          6           0       22.341581   -2.935679   -1.875011
    108          6           0       24.764890   -5.294557   -1.272180
    109          6           0       20.980948   -5.109043   -1.929164
    110          6           0       20.058393   -4.508388   -0.833567
    111          7           0       21.713796   -0.066745   -1.596455
    112          6           0       21.602932   -0.729696   -2.758956
    113          6           0       21.187498    0.204657   -3.770355
    114          6           0       21.116604    1.430797   -3.136176
    115          6           0       21.509295    1.254888   -1.806499
    116          6           0       20.904731   -0.038727   -5.240590
    117          6           0       20.842924    2.839353   -3.433442
    118          8           0       20.616940    3.528183   -4.388119
    119          6           0       21.047183    3.555123   -2.072065
    120          6           0       22.098493    4.574564   -2.312594
    121          8           0       23.170223    4.275431   -2.776131
    122          8           0       21.686546    5.868920   -2.038974
    123          6           0       22.577400    6.970715   -2.535131
    124          1           0       23.096546    1.309880    4.266797
    125          1           0       23.832616   -4.589252    1.737670
    126          1           0       21.560519   -2.448132   -3.838283
    127          1           0       22.643766    4.498354    0.885092
    128          1           0       21.591968    3.334042    3.298174
    129          1           0       23.983866    4.695519    2.596088
    130          1           0       24.241070    3.383499    3.769952
    131          1           0       22.978279    4.639106    4.005484
    132          1           0       20.004452    4.428944    2.240163
    133          1           0       19.813370    3.963411    0.604011
    134          1           0       20.116521    6.165807   -0.025490
    135          1           0       21.587726    6.263110    0.882905
    136          1           0       23.653092   -1.530486    6.505847
    137          1           0       23.827948    0.120210    6.035917
    138          1           0       25.210730   -0.802854    6.069421
    139          1           0       24.855204   -3.491596    6.210345
    140          1           0       26.234658   -2.700770    5.340570
    141          1           0       26.260099   -4.466667    5.825898
    142          1           0       22.765141   -5.695837   -0.390776
    143          1           0       22.814887   -4.576464   -3.077365
    144          1           0       24.747992   -6.376917   -1.402583
    145          1           0       25.584387   -5.092368   -0.581680
    146          1           0       24.918378   -4.811043   -2.236813
    147          1           0       21.027836   -6.187667   -1.780541
    148          1           0       20.388355   -4.873302   -2.813217
    149          1           0       19.148395   -5.070928   -0.627577
    150          1           0       19.752808   -3.517960   -1.171245
    151          1           0       20.654224   -4.401019    0.073419
    152          1           0       20.071858   -0.714858   -5.432302
    153          1           0       21.820537   -0.505953   -5.601725
    154          1           0       20.798711    0.886035   -5.807727
    155          1           0       20.090873    4.051227   -1.907347
    156          1           0       22.564707    7.603599   -1.647778
    157          1           0       22.154654    7.514285   -3.379864
    158          1           0       23.599424    6.754209   -2.845084
 ---------------------------------------------------------------------

 SCF Done:  E(RCAM-B3LYP) =  -4069.81454608     A.U. after   19 cycles

 Excitation energies and oscillator strengths:

 Excited State   1:      Singlet-A      1.7037 eV  727.75 nm  f=0.4002  <S**2>=0.000
     309 -> 316        0.17557
     311 -> 313        0.68729
     309 <- 316        0.10763
 This state for optimization and/or second-order correction.
 Total Energy, E(TD-HF/TD-DFT) =  -4069.75193785
 Copying the excited state density for this state as the 1-particle RhoCI density.

 Excited State   2:      Singlet-A      1.7572 eV  705.58 nm  f=0.3829  <S**2>=0.000
     310 -> 315        0.18342
     312 -> 314        0.68373
     310 <- 315        0.10473

 Excited State   3:      Singlet-A      2.1918 eV  565.68 nm  f=0.1380  <S**2>=0.000
     309 -> 313        0.65684
     311 -> 316       -0.24837

 Excited State   4:      Singlet-A      2.2202 eV  558.43 nm  f=0.1066  <S**2>=0.000
     310 -> 314        0.63626
     312 -> 315       -0.29385

 Excited State   5:      Singlet-A      3.0539 eV  405.99 nm  f=0.0000  <S**2>=0.000
     312 -> 313        0.70711

 The electronic state is 1-A.
 Alpha  occ. eigenvalues --  -46.89583 -46.88537 -19.25314 -19.25182 -19.19646
 Alpha  occ. eigenvalues --  -19.19593 -19.19318 -19.18882 -19.18437 -19.18198
 Alpha  occ. eigenvalues --  -14.42594 -14.42150 -14.41960 -14.41914 -14.39834
 Alpha  occ. eigenvalues --  -14.39811 -14.39269 -14.38996 -10.38833 -10.38656
 Alpha  occ. eigenvalues --  -10.35986 -10.35452 -10.35195 -10.34412 -10.31954
 Alpha  occ. eigenvalues --  -10.31847 -10.31646 -10.31567 -10.31414 -10.31121
 Alpha  occ. eigenvalues --  -10.30923 -10.30814 -10.30798 -10.30793 -10.30754
 Alpha  occ. eigenvalues --  -10.30535 -10.30279 -10.30002 -10.29667 -10.29438
 Alpha  occ. eigenvalues --  -10.29391 -10.29200 -10.29046 -10.28870 -10.28778
 Alpha  occ. eigenvalues --  -10.28745 -10.28716 -10.28633 -10.28409 -10.28226
 Alpha  occ. eigenvalues --  -10.28071 -10.28067 -10.28048 -10.28040 -10.28036
 Alpha  occ. eigenvalues --  -10.27962 -10.27929 -10.27889 -10.27804 -10.27721
 Alpha  occ. eigenvalues --  -10.27548 -10.27530 -10.27431 -10.27069 -10.27069
 Alpha  occ. eigenvalues --  -10.27027 -10.26993 -10.26686 -10.26592 -10.26551
 Alpha  occ. eigenvalues --  -10.26532 -10.26510 -10.26416 -10.26312 -10.26213
 Alpha  occ. eigenvalues --  -10.26000 -10.25994 -10.25865 -10.25834 -10.25699
 Alpha  occ. eigenvalues --  -10.25651 -10.25649 -10.25235 -10.25099 -10.25081
 Alpha  occ. eigenvalues --  -10.24872  -3.17985  -3.17134  -1.92868  -1.92454
 Alpha  occ. eigenvalues --   -1.92279  -1.92035  -1.91591  -1.91438  -1.17806
 Alpha  occ. eigenvalues --   -1.15729  -1.11710  -1.11105  -1.10095  -1.08398
 Alpha  occ. eigenvalues --   -1.07661  -1.06497  -1.05484  -1.05226  -1.04329
 Alpha  occ. eigenvalues --   -1.04019  -1.03873  -1.02789  -1.02038  -1.01371
 Alpha  occ. eigenvalues --   -0.92400  -0.91856  -0.89588  -0.89054  -0.88918
 Alpha  occ. eigenvalues --   -0.88852  -0.88803  -0.88258  -0.87781  -0.87729
 Alpha  occ. eigenvalues --   -0.86770  -0.86583  -0.86369  -0.85121  -0.84451
 Alpha  occ. eigenvalues --   -0.84350  -0.83537  -0.83490  -0.82887  -0.82708
 Alpha  occ. eigenvalues --   -0.82547  -0.81250  -0.80903  -0.80839  -0.80528
 Alpha  occ. eigenvalues --   -0.80205  -0.78787  -0.78418  -0.77507  -0.77460
 Alpha  occ. eigenvalues --   -0.76884  -0.76803  -0.76205  -0.76202  -0.75263
 Alpha  occ. eigenvalues --   -0.75170  -0.73143  -0.72239  -0.71827  -0.71804
 Alpha  occ. eigenvalues --   -0.69406  -0.69237  -0.69236  -0.68213  -0.68117
 Alpha  occ. eigenvalues --   -0.67622  -0.67341  -0.66940  -0.65883  -0.65524
 Alpha  occ. eigenvalues --   -0.65361  -0.65294  -0.65196  -0.64876  -0.64480
 Alpha  occ. eigenvalues --   -0.64213  -0.62413  -0.62319  -0.60959  -0.60451
 Alpha  occ. eigenvalues --   -0.59759  -0.59522  -0.59324  -0.58993  -0.58791
 Alpha  occ. eigenvalues --   -0.58508  -0.58165  -0.57859  -0.57652  -0.57576
 Alpha  occ. eigenvalues --   -0.56710  -0.56026  -0.55651  -0.55409  -0.55262
 Alpha  occ. eigenvalues --   -0.54984  -0.54616  -0.54319  -0.54237  -0.54190
 Alpha  occ. eigenvalues --   -0.53851  -0.53567  -0.53466  -0.52982  -0.52931
 Alpha  occ. eigenvalues --   -0.52709  -0.52651  -0.52576  -0.52479  -0.52166
 Alpha  occ. eigenvalues --   -0.52150  -0.51925  -0.51533  -0.51433  -0.51301
 Alpha  occ. eigenvalues --   -0.50804  -0.50590  -0.50459  -0.50071  -0.50037
 Alpha  occ. eigenvalues --   -0.49894  -0.49837  -0.49751  -0.49546  -0.49424
 Alpha  occ. eigenvalues --   -0.49421  -0.49358  -0.49073  -0.49073  -0.48721
 Alpha  occ. eigenvalues --   -0.48509  -0.48445  -0.48327  -0.48200  -0.48044
 Alpha  occ. eigenvalues --   -0.47979  -0.47818  -0.47614  -0.47508  -0.47442
 Alpha  occ. eigenvalues --   -0.47047  -0.46643  -0.46471  -0.46330  -0.46172
 Alpha  occ. eigenvalues --   -0.46138  -0.46099  -0.45937  -0.45848  -0.45633
 Alpha  occ. eigenvalues --   -0.45591  -0.45461  -0.45346  -0.45181  -0.45143
 Alpha  occ. eigenvalues --   -0.45038  -0.44666  -0.44557  -0.44368  -0.44269
 Alpha  occ. eigenvalues --   -0.44095  -0.44030  -0.43725  -0.43424  -0.43370
 Alpha  occ. eigenvalues --   -0.43205  -0.43095  -0.43071  -0.42939  -0.42823
 Alpha  occ. eigenvalues --   -0.42475  -0.42430  -0.42348  -0.42112  -0.42025
 Alpha  occ. eigenvalues --   -0.41914  -0.41656  -0.41503  -0.41419  -0.41408
 Alpha  occ. eigenvalues --   -0.41245  -0.40962  -0.40838  -0.40432  -0.40354
 Alpha  occ. eigenvalues --   -0.40082  -0.39854  -0.39773  -0.39524  -0.39122
 Alpha  occ. eigenvalues --   -0.38454  -0.38367  -0.38105  -0.37934  -0.37879
 Alpha  occ. eigenvalues --   -0.37250  -0.37063  -0.36639  -0.36403  -0.36392
 Alpha  occ. eigenvalues --   -0.36275  -0.35858  -0.34463  -0.34442  -0.34122
 Alpha  occ. eigenvalues --   -0.33453  -0.33436  -0.33102  -0.31931  -0.31793
 Alpha  occ. eigenvalues --   -0.31656  -0.31260  -0.30614  -0.30429  -0.30339
 Alpha  occ. eigenvalues --   -0.30325  -0.30190  -0.28727  -0.24216  -0.23927
 Alpha  occ. eigenvalues --   -0.21620  -0.21191
 Alpha virt. eigenvalues --   -0.09211  -0.08533  -0.01875  -0.01468  -0.00204
 Alpha virt. eigenvalues --    0.00519   0.01646   0.02063   0.02472   0.02680
 Alpha virt. eigenvalues --    0.05229   0.05269   0.05633   0.05755   0.06171

 Mulliken charges:
               1
     1  Mg  12.000057
     2  C    5.999752
     3  C    6.000026
     4  C    6.000337
     5  C    5.999971
     6  N    6.999915
     7  C    6.000298
     8  C    5.999881
     9  C    6.000099
    10  C    5.999750
    11  C    6.000062
    12  C    5.999967
    13  C    5.999979
    14  H    1.000057
    15  N    7.000056
    16  C    5.999699
    17  C    5.999848
    18  C    5.999813
    19  C    5.999698
    20  C    6.000105
    21  C    5.999881
    22  O    7.999770
    23  C    6.000069
    24  N    7.000103
    25  C    5.999574
    26  C    6.000083
    27  C    5.999927
    28  C    6.000166
    29  C    6.000028
    30  C    5.999964
    31  C    5.999999
    32  N    7.000013
    33  C    6.000244
    34  C    6.000288
    35  C    6.000012
    36  C    6.000330
    37  C    5.999949
    38  C    6.000208
    39  O    8.000277
    40  C    5.999987
    41  C    6.000007
    42  O    8.000060
    43  O    8.000011
    44  C    5.999966
    45  H    0.999843
    46  H    0.999954
    47  H    1.000127
    48  H    1.000015
    49  H    0.999975
    50  H    0.999890
    51  H    1.000011
    52  H    0.999904
    53  H    1.000055
    54  H    1.000003
    55  H    0.999985
    56  H    1.000001
    57  H    0.999776
    58  H    0.999842
    59  H    0.999779
    60  H    0.999918
    61  H    0.999913
    62  H    0.999826
    63  H    0.999997
    64  H    1.000033
    65  H    1.000018
    66  H    0.999942
    67  H    0.999975
    68  H    0.999967
    69  H    1.000116
    70  H    0.999997
    71  H    1.000072
    72  H    0.999994
    73  H    1.000203
    74  H    1.000176
    75  H    1.000194
    76  H    1.000090
    77  H    1.000037
    78  H    1.000059
    79  H    1.000026
    80  Mg  12.000372
    81  C    5.969842
    82  C    6.013271
    83  C    6.023615
    84  C    5.990446
    85  N    6.991956
    86  C    6.036649
    87  C    5.985750
    88  C    6.011774
    89  C    5.971525
    90  C    6.003122
    91  C    6.000154
    92  C    5.997104
    93  H    1.008157
    94  N    7.006130
    95  C    5.958786
    96  C    5.977413
    97  C    5.977120
    98  C    5.969158
    99  C    6.002467
   100  C    5.990261
   101  O    7.968770
   102  C    6.002919
   103  N    7.004778
   104  C    5.962753
   105  C    6.010375
   106  C    5.992623
   107  C    6.030855
   108  C    6.006322
   109  C    5.993982
   110  C    5.997809
   111  N    6.991170
   112  C    6.042618
   113  C    6.032311
   114  C    5.999442
   115  C    6.046302
   116  C    5.999500
   117  C    6.013944
   118  O    8.026691
   119  C    6.001740
   120  C    6.007401
   121  O    8.001514
   122  O    8.002324
   123  C    5.997034
   124  H    0.989105
   125  H    0.995013
   126  H    1.011368
   127  H    1.002335
   128  H    0.997245
   129  H    0.988718
   130  H    1.006750
   131  H    0.993880
   132  H    1.008709
   133  H    0.993914
   134  H    0.995504
   135  H    1.002013
   136  H    0.981968
   137  H    0.979923
   138  H    0.978800
   139  H    0.993607
   140  H    0.994962
   141  H    0.983546
   142  H    0.998883
   143  H    0.999345
   144  H    0.995518
   145  H    1.006504
   146  H    0.986600
   147  H    1.011631
   148  H    0.997170
   149  H    1.004627
   150  H    0.988032
   151  H    1.019406
   152  H    1.021773
   153  H    1.018800
   154  H    1.015402
   155  H    1.008189
   156  H    1.006350
   157  H    1.002611
   158  H    1.003549
 Sum of Mulliken charges = 624.00000

 Dipole moment (field-independent basis, Debye):
    X=             -4.0268    Y=              3.4365    Z=             -9.7916  Tot=             11.1311
 Quadrupole moment (field-independent basis, Debye-Ang):
   XX=           -175.6352   YY=             -0.4759   ZZ=             -6.9624
   XY=             82.1445   XZ=           -226.2981   YZ=              7.0125

 Normal termination of Gaussian 16 at Thu Sep 23 09:29:23 2021.
