 Gaussian 16, Revision A.03,
 Gaussian 16:  ES64L-G16RevA.03 25-Dec-2016

 ----------------------------------------------------------
 #p cam-b3lyp/Def2SVP td=(nstates=5) density=(transition=1)
 ----------------------------------------------------------

 --------------------------------
 TDDFT excited states in gaussian
 --------------------------------
 Symbolic Z-matrix:
 Charge =  0 Multiplicity = 1

                         Standard orientation:
 ---------------------------------------------------------------------
 Center     Atomic      Atomic             Coordinates (Angstroms)
 Number     Number       Type             X           Y           Z
 ---------------------------------------------------------------------
      1         12           0       16.719797   -0.550519    0.407612
      2          6           0       15.522347    2.325435   -1.142939
      3          6           0       18.268623    1.329216    2.735521
      4          6           0       18.194563   -3.364133    1.562653
      5          6           0       15.522660   -2.360675   -2.271939
      6          7           0       16.872888    1.637945    0.721530
      7          6           0       16.128001    2.596859    0.083423
      8          6           0       16.337877    3.919544    0.716800
      9          6           0       17.249099    3.683068    1.926807
     10          6           0       17.503278    2.115868    1.854554
     11          6           0       18.515410    4.513255    2.068783
     12          6           0       14.918059    4.638279    1.082367
     13          6           0       14.595963    5.985083    0.393430
     14          1           0       13.928469    7.103770    1.154936
     15          7           0       17.945074   -0.980511    2.001362
     16          6           0       18.509642   -0.052799    2.863832
     17          6           0       19.354135   -0.716476    3.789145
     18          6           0       19.357698   -2.100930    3.467781
     19          6           0       18.458642   -2.201088    2.313530
     20          6           0       19.971067    0.122991    4.975371
     21          6           0       20.203811   -3.165698    4.163649
     22          8           0       20.267638   -4.359981    3.834976
     23          6           0       20.959076   -2.816147    5.369847
     24          7           0       17.079775   -2.564525   -0.349985
     25          6           0       17.600770   -3.556837    0.341628
     26          6           0       17.638604   -4.855325   -0.495405
     27          6           0       16.380470   -4.554631   -1.401777
     28          6           0       16.286045   -3.033835   -1.330239
     29          6           0       18.890118   -5.203068   -1.383692
     30          6           0       14.999532   -5.255704   -0.985924
     31          6           0       14.447807   -4.967828    0.350038
     32          7           0       15.726081   -0.176057   -1.459959
     33          6           0       15.276058   -1.045160   -2.473138
     34          6           0       14.638242   -0.284404   -3.499888
     35          6           0       14.756198    1.026379   -3.082560
     36          6           0       15.337163    1.027954   -1.772185
     37          6           0       14.243865   -0.765382   -4.809780
     38          6           0       14.316808    2.315733   -3.343179
     39          8           0       13.682229    2.792457   -4.289795
     40          6           0       14.856832    3.260742   -2.175147
     41          6           0       15.906271    4.113060   -2.808620
     42          8           0       16.940488    3.833107   -3.377621
     43          8           0       15.467235    5.364515   -2.663106
     44          6           0       16.364410    6.442124   -3.194828
     45          1           0       18.526597    2.015603    3.544672
     46          1           0       18.562587   -4.263029    2.060242
     47          1           0       15.091945   -2.955081   -3.080146
     48          1           0       16.850947    4.510547   -0.040852
     49          1           0       16.671843    3.838302    2.838010
     50          1           0       19.181577    3.792349    1.596312
     51          1           0       18.771811    4.816563    3.084007
     52          1           0       18.612633    5.449568    1.519942
     53          1           0       14.858506    4.761372    2.163351
     54          1           0       14.044688    4.066446    0.767782
     55          1           0       13.865764    5.755489   -0.383123
     56          1           0       15.450804    6.379252   -0.154487
     57          1           0       21.047869   -0.044332    4.990985
     58          1           0       19.510481   -0.443202    5.785022
     59          1           0       19.883312    1.209014    4.942939
     60          1           0       21.651811   -1.998654    5.174900
     61          1           0       21.669548   -3.629875    5.513434
     62          1           0       20.361014   -2.681495    6.271485
     63          1           0       17.289875   -5.674580    0.133490
     64          1           0       16.668912   -4.951500   -2.374829
     65          1           0       19.345605   -4.364419   -1.908915
     66          1           0       18.486599   -5.951487   -2.066654
     67          1           0       19.681046   -5.646908   -0.778513
     68          1           0       15.046516   -6.344823   -1.003673
     69          1           0       14.164687   -4.850394   -1.557567
     70          1           0       13.950325   -4.009403    0.208366
     71          1           0       15.128133   -4.843177    1.193036
     72          1           0       13.682383   -5.631803    0.750395
     73          1           0       15.171814   -0.734464   -5.382038
     74          1           0       13.490744   -0.167434   -5.322161
     75          1           0       13.763955   -1.744374   -4.786105
     76          1           0       14.067620    3.814339   -1.666335
     77          1           0       16.799398    6.893087   -2.302628
     78          1           0       15.782777    7.140358   -3.796295
     79          1           0       17.215215    6.132236   -3.802276
     80         12           0      -16.279804   -0.846010    0.119308
     81          6           0      -18.613579    1.660660    1.170463
     82          6           0      -14.047489    1.814238   -0.499898
     83          6           0      -14.312950   -2.879527   -1.523999
     84          6           0      -18.717860   -3.192295    0.455907
     85          7           0      -16.343607    1.452784    0.374054
     86          6           0      -17.372041    2.148060    0.916466
     87          6           0      -16.929255    3.587201    1.122989
     88          6           0      -15.458390    3.711898    0.634966
     89          6           0      -15.238849    2.259115    0.170848
     90          6           0      -15.243501    4.850691   -0.513517
     91          6           0      -17.031974    4.050616    2.639077
     92          6           0      -17.709489    5.396538    2.898718
     93          1           0      -17.585450    6.584771    1.862591
     94          7           0      -14.440486   -0.554673   -0.930337
     95          6           0      -13.729898    0.549273   -1.023781
     96          6           0      -12.562340    0.242959   -1.801230
     97          6           0      -12.481644   -1.155456   -2.021553
     98          6           0      -13.768022   -1.574484   -1.529841
     99          6           0      -11.438756    1.251293   -2.035720
    100          6           0      -11.392847   -2.091967   -2.521407
    101          8           0      -11.572531   -3.283152   -2.696934
    102          6           0      -10.037657   -1.475732   -2.735081
    103          7           0      -16.651422   -2.662171   -0.752670
    104          6           0      -15.568178   -3.407934   -1.221197
    105          6           0      -15.872323   -4.927530   -1.320319
    106          6           0      -17.228121   -4.964049   -0.519174
    107          6           0      -17.572330   -3.501309   -0.238751
    108          6           0      -15.945797   -5.376413   -2.786971
    109          6           0      -17.116319   -5.706718    0.895471
    110          6           0      -17.710563   -7.068316    1.033052
    111          7           0      -18.185307   -0.834751    0.784338
    112          6           0      -19.076147   -1.885200    0.832339
    113          6           0      -20.419391   -1.471128    1.229192
    114          6           0      -20.291931   -0.044802    1.385797
    115          6           0      -18.976408    0.292449    0.988880
    116          6           0      -21.514022   -2.411973    1.582087
    117          6           0      -20.960026    1.168152    1.831815
    118          8           0      -22.118510    1.267458    2.275524
    119          6           0      -19.877590    2.381734    1.680314
    120          6           0      -20.473563    3.293160    0.716331
    121          8           0      -20.815899    2.964502   -0.398450
    122          8           0      -20.581455    4.531111    1.213126
    123          6           0      -21.215578    5.647964    0.444830
    124          1           0      -13.290807    2.588625   -0.641454
    125          1           0      -13.590041   -3.687045   -1.662123
    126          1           0      -19.440531   -3.992293    0.628144
    127          1           0      -17.557777    4.208256    0.484728
    128          1           0      -14.794676    4.063051    1.425259
    129          1           0      -16.037771    5.596200   -0.474189
    130          1           0      -15.234966    4.298063   -1.453359
    131          1           0      -14.272307    5.327038   -0.380436
    132          1           0      -16.091846    4.044968    3.188945
    133          1           0      -17.648104    3.339114    3.188717
    134          1           0      -17.414823    5.815432    3.861134
    135          1           0      -18.753942    5.114600    3.031920
    136          1           0      -10.603326    1.158412   -1.341597
    137          1           0      -11.820878    2.270163   -2.105701
    138          1           0      -11.067790    1.057408   -3.041891
    139          1           0       -9.726220   -0.761524   -1.972241
    140          1           0       -9.917249   -0.953302   -3.683089
    141          1           0       -9.275255   -2.236839   -2.568859
    142          1           0      -15.059734   -5.452724   -0.819094
    143          1           0      -17.966790   -5.473919   -1.137780
    144          1           0      -15.600454   -4.632779   -3.505061
    145          1           0      -16.968436   -5.601335   -3.087780
    146          1           0      -15.358450   -6.286583   -2.912622
    147          1           0      -17.562061   -5.167950    1.731600
    148          1           0      -16.088511   -5.782580    1.248458
    149          1           0      -16.930642   -7.800362    1.238727
    150          1           0      -18.164740   -7.235383    0.056191
    151          1           0      -18.428602   -7.090509    1.852769
    152          1           0      -22.136255   -2.014554    2.383231
    153          1           0      -21.038156   -3.373261    1.775058
    154          1           0      -22.132688   -2.516655    0.689751
    155          1           0      -19.725978    2.907805    2.621884
    156          1           0      -22.183647    5.320838    0.064992
    157          1           0      -20.613998    5.965652   -0.407157
    158          1           0      -21.275262    6.583475    1.000344
 ---------------------------------------------------------------------

 SCF Done:  E(RCAM-B3LYP) =  -4069.78179188     A.U. after   19 cycles

 Excitation energies and oscillator strengths:

 Excited State   1:      Singlet-A      1.6834 eV  736.52 nm  f=0.4160  <S**2>=0.000
     310 -> 316        0.17256
     312 -> 314        0.68559
     310 <- 316        0.10693
 This state for optimization and/or second-order correction.
 Total Energy, E(TD-HF/TD-DFT) =  -4069.71992883
 Copying the excited state density for this state as the 1-particle RhoCI density.

 Excited State   2:      Singlet-A      1.7047 eV  727.29 nm  f=0.3639  <S**2>=0.000
     309 -> 315       -0.17487
     311 -> 313        0.68461
     309 <- 315       -0.10594

 Excited State   3:      Singlet-A      2.1770 eV  569.52 nm  f=0.1356  <S**2>=0.000
     309 -> 313        0.65145
     311 -> 315        0.26308

 Excited State   4:      Singlet-A      2.1994 eV  563.72 nm  f=0.1343  <S**2>=0.000
     310 -> 314        0.65021
     312 -> 316       -0.26299

 Excited State   5:      Singlet-A      2.9626 eV  418.50 nm  f=0.0000  <S**2>=0.000
     312 -> 313        0.70709

 The electronic state is 1-A.
 Alpha  occ. eigenvalues --  -46.89404 -46.88619 -19.25262 -19.25108 -19.19527
 Alpha  occ. eigenvalues --  -19.19136 -19.19012 -19.18728 -19.18518 -19.18274
 Alpha  occ. eigenvalues --  -14.42063 -14.41890 -14.41879 -14.41712 -14.39764
 Alpha  occ. eigenvalues --  -14.39374 -14.39087 -14.39050 -10.38676 -10.38501
 Alpha  occ. eigenvalues --  -10.35784 -10.35460 -10.35134 -10.34219 -10.32540
 Alpha  occ. eigenvalues --  -10.31763 -10.31487 -10.31332 -10.31270 -10.30743
 Alpha  occ. eigenvalues --  -10.30687 -10.30518 -10.30346 -10.30268 -10.30166
 Alpha  occ. eigenvalues --  -10.29853 -10.29649 -10.29583 -10.29178 -10.29168
 Alpha  occ. eigenvalues --  -10.29049 -10.29025 -10.28750 -10.28733 -10.28616
 Alpha  occ. eigenvalues --  -10.28604 -10.28565 -10.28352 -10.28217 -10.28207
 Alpha  occ. eigenvalues --  -10.28180 -10.28018 -10.27949 -10.27935 -10.27928
 Alpha  occ. eigenvalues --  -10.27857 -10.27798 -10.27727 -10.27617 -10.27584
 Alpha  occ. eigenvalues --  -10.27568 -10.27548 -10.27532 -10.27220 -10.27086
 Alpha  occ. eigenvalues --  -10.27007 -10.26656 -10.26570 -10.26561 -10.26520
 Alpha  occ. eigenvalues --  -10.26439 -10.26425 -10.26326 -10.26225 -10.26098
 Alpha  occ. eigenvalues --  -10.26067 -10.26053 -10.25867 -10.25809 -10.25641
 Alpha  occ. eigenvalues --  -10.25577 -10.25568 -10.25462 -10.25024 -10.24794
 Alpha  occ. eigenvalues --  -10.24720  -3.17812  -3.17248  -1.92715  -1.92247
 Alpha  occ. eigenvalues --   -1.92129  -1.92113  -1.91709  -1.91558  -1.17070
 Alpha  occ. eigenvalues --   -1.16560  -1.10842  -1.09185  -1.08626  -1.08438
 Alpha  occ. eigenvalues --   -1.07422  -1.07369  -1.05485  -1.04649  -1.04321
 Alpha  occ. eigenvalues --   -1.03509  -1.03448  -1.03144  -1.02693  -1.01885
 Alpha  occ. eigenvalues --   -0.92277  -0.92163  -0.89282  -0.88814  -0.88637
 Alpha  occ. eigenvalues --   -0.88434  -0.88264  -0.88098  -0.88027  -0.87662
 Alpha  occ. eigenvalues --   -0.87108  -0.87020  -0.86926  -0.86406  -0.84702
 Alpha  occ. eigenvalues --   -0.84349  -0.84228  -0.84125  -0.83137  -0.82665
 Alpha  occ. eigenvalues --   -0.82071  -0.81831  -0.81626  -0.81287  -0.80804
 Alpha  occ. eigenvalues --   -0.80697  -0.78815  -0.78264  -0.77729  -0.77675
 Alpha  occ. eigenvalues --   -0.77444  -0.76867  -0.76279  -0.76013  -0.75428
 Alpha  occ. eigenvalues --   -0.74842  -0.73544  -0.72485  -0.71741  -0.71415
 Alpha  occ. eigenvalues --   -0.69451  -0.69155  -0.68751  -0.67841  -0.67802
 Alpha  occ. eigenvalues --   -0.67650  -0.67276  -0.66975  -0.65822  -0.65558
 Alpha  occ. eigenvalues --   -0.65455  -0.65162  -0.64880  -0.64624  -0.64500
 Alpha  occ. eigenvalues --   -0.64033  -0.62424  -0.62124  -0.60501  -0.60499
 Alpha  occ. eigenvalues --   -0.59988  -0.59373  -0.59230  -0.58817  -0.58681
 Alpha  occ. eigenvalues --   -0.58491  -0.58325  -0.58043  -0.57989  -0.57472
 Alpha  occ. eigenvalues --   -0.56501  -0.56082  -0.55842  -0.55759  -0.55544
 Alpha  occ. eigenvalues --   -0.55163  -0.55120  -0.54894  -0.54767  -0.54367
 Alpha  occ. eigenvalues --   -0.53502  -0.53452  -0.53317  -0.53315  -0.53053
 Alpha  occ. eigenvalues --   -0.52990  -0.52915  -0.52755  -0.52619  -0.52363
 Alpha  occ. eigenvalues --   -0.52252  -0.52095  -0.51969  -0.51287  -0.51231
 Alpha  occ. eigenvalues --   -0.51192  -0.51157  -0.50587  -0.50527  -0.50430
 Alpha  occ. eigenvalues --   -0.50072  -0.49971  -0.49866  -0.49792  -0.49517
 Alpha  occ. eigenvalues --   -0.49264  -0.49262  -0.49056  -0.49028  -0.48755
 Alpha  occ. eigenvalues --   -0.48567  -0.48567  -0.48415  -0.48399  -0.48143
 Alpha  occ. eigenvalues --   -0.48136  -0.47718  -0.47433  -0.47429  -0.47177
 Alpha  occ. eigenvalues --   -0.46900  -0.46744  -0.46734  -0.46603  -0.46301
 Alpha  occ. eigenvalues --   -0.46194  -0.46118  -0.46057  -0.45890  -0.45879
 Alpha  occ. eigenvalues --   -0.45313  -0.45306  -0.45101  -0.44700  -0.44538
 Alpha  occ. eigenvalues --   -0.44511  -0.44237  -0.44175  -0.44122  -0.43823
 Alpha  occ. eigenvalues --   -0.43786  -0.43593  -0.43427  -0.43298  -0.43256
 Alpha  occ. eigenvalues --   -0.43017  -0.43008  -0.42758  -0.42609  -0.42571
 Alpha  occ. eigenvalues --   -0.42471  -0.42281  -0.42172  -0.41893  -0.41844
 Alpha  occ. eigenvalues --   -0.41668  -0.41516  -0.41415  -0.41289  -0.41136
 Alpha  occ. eigenvalues --   -0.41032  -0.41010  -0.40776  -0.40552  -0.40293
 Alpha  occ. eigenvalues --   -0.40228  -0.39721  -0.39588  -0.39326  -0.39003
 Alpha  occ. eigenvalues --   -0.38394  -0.38126  -0.38092  -0.37921  -0.37757
 Alpha  occ. eigenvalues --   -0.37081  -0.36974  -0.36552  -0.36435  -0.36223
 Alpha  occ. eigenvalues --   -0.36186  -0.36150  -0.34540  -0.34454  -0.34368
 Alpha  occ. eigenvalues --   -0.33763  -0.33543  -0.33010  -0.31692  -0.31542
 Alpha  occ. eigenvalues --   -0.31238  -0.31098  -0.30740  -0.30593  -0.30521
 Alpha  occ. eigenvalues --   -0.30086  -0.30049  -0.29394  -0.24080  -0.23832
 Alpha  occ. eigenvalues --   -0.21504  -0.20961
 Alpha virt. eigenvalues --   -0.09042  -0.08718  -0.01680  -0.01118   0.00117
 Alpha virt. eigenvalues --    0.00218   0.01777   0.01950   0.02077   0.02400
 Alpha virt. eigenvalues --    0.04765   0.05278   0.05522   0.06034   0.06035

 Mulliken charges:
               1
     1  Mg  11.999817
     2  C    5.997820
     3  C    6.000381
     4  C    6.002105
     5  C    6.000593
     6  N    6.998746
     7  C    6.002525
     8  C    5.999173
     9  C    6.000395
    10  C    5.998360
    11  C    6.000162
    12  C    5.999790
    13  C    5.999941
    14  H    1.000309
    15  N    7.000659
    16  C    5.997312
    17  C    5.998805
    18  C    5.999014
    19  C    5.997359
    20  C    6.000028
    21  C    5.999175
    22  O    7.998051
    23  C    6.000622
    24  N    7.001402
    25  C    5.997343
    26  C    6.000704
    27  C    5.999347
    28  C    6.001421
    29  C    5.999947
    30  C    5.999318
    31  C    6.000015
    32  N    6.999499
    33  C    6.002261
    34  C    6.001982
    35  C    6.000468
    36  C    6.002221
    37  C    5.999683
    38  C    6.000753
    39  O    8.002458
    40  C    6.000112
    41  C    6.000259
    42  O    8.000086
    43  O    8.000125
    44  C    5.999882
    45  H    0.998999
    46  H    0.999902
    47  H    1.001080
    48  H    0.999925
    49  H    0.999787
    50  H    1.000013
    51  H    0.999808
    52  H    0.999041
    53  H    1.000500
    54  H    0.999841
    55  H    0.999761
    56  H    0.999927
    57  H    0.998679
    58  H    0.998934
    59  H    0.998898
    60  H    0.999593
    61  H    0.998932
    62  H    0.999372
    63  H    1.000072
    64  H    1.000341
    65  H    0.999667
    66  H    0.999502
    67  H    1.000297
    68  H    1.000694
    69  H    0.999944
    70  H    0.999647
    71  H    1.001036
    72  H    1.000408
    73  H    1.001263
    74  H    1.001286
    75  H    1.001242
    76  H    1.000600
    77  H    1.000371
    78  H    1.000158
    79  H    1.000055
    80  Mg  12.002467
    81  C    5.975588
    82  C    6.015802
    83  C    6.031937
    84  C    5.988621
    85  N    6.991798
    86  C    6.027628
    87  C    5.989177
    88  C    6.015210
    89  C    5.966018
    90  C    6.000720
    91  C    5.998751
    92  C    5.999162
    93  H    1.007618
    94  N    7.008493
    95  C    5.958508
    96  C    5.974611
    97  C    5.987459
    98  C    5.959467
    99  C    6.004424
   100  C    5.985965
   101  O    7.972933
   102  C    6.008328
   103  N    7.009337
   104  C    5.952362
   105  C    6.011584
   106  C    5.990842
   107  C    6.028113
   108  C    6.003882
   109  C    5.991309
   110  C    5.999521
   111  N    6.999817
   112  C    6.035592
   113  C    6.038524
   114  C    6.000199
   115  C    6.037808
   116  C    5.995028
   117  C    6.014315
   118  O    8.028621
   119  C    6.007486
   120  C    6.005161
   121  O    8.002178
   122  O    8.002051
   123  C    5.997404
   124  H    0.989621
   125  H    0.994653
   126  H    1.012217
   127  H    1.000092
   128  H    0.993872
   129  H    0.986127
   130  H    1.001811
   131  H    0.999609
   132  H    1.009088
   133  H    0.991821
   134  H    1.002405
   135  H    0.993679
   136  H    0.977128
   137  H    0.981106
   138  H    0.981934
   139  H    0.995010
   140  H    0.990068
   141  H    0.984927
   142  H    0.999695
   143  H    1.003245
   144  H    1.004596
   145  H    0.987175
   146  H    0.996752
   147  H    0.994272
   148  H    1.014054
   149  H    1.007319
   150  H    1.002674
   151  H    0.997866
   152  H    1.019289
   153  H    1.019486
   154  H    1.024807
   155  H    1.009323
   156  H    1.000595
   157  H    1.006826
   158  H    1.005040
 Sum of Mulliken charges = 624.00000

 Dipole moment (field-independent basis, Debye):
    X=            -10.8178    Y=             -0.8191    Z=              3.5529  Tot=             11.4157
 Quadrupole moment (field-independent basis, Debye-Ang):
   XX=            327.4854   YY=              3.3886   ZZ=             -2.6642
   XY=             20.6908   XZ=            -75.5548   YZ=             -3.1658

 Normal termination of Gaussian 16 at Tue Sep 21 23:38:32 2021.
