 Gaussian 16, Revision A.03,
 Gaussian 16:  ES64L-G16RevA.03 25-Dec-2016

 -----------------------------------
 #p cam-b3lyp/Def2SVP td=(nstates=5)
 -----------------------------------

 --------------------------------
 TDDFT excited states in gaussian
 --------------------------------
 Symbolic Z-matrix:
 Charge =  0 Multiplicity = 1

                         Standard orientation:
 ---------------------------------------------------------------------
 Center     Atomic      Atomic             Coordinates (Angstroms)
 Number     Number       Type             X           Y           Z
 ---------------------------------------------------------------------
      1         12           0      -20.771927    0.398279   -0.130784
      2          6           0      -18.253667   -1.872825    0.447418
      3          6           0      -23.180930   -1.975137    0.408670
      4          6           0      -23.314866    2.774084   -0.531314
      5          6           0      -18.518234    3.000052    0.148232
      6          7           0      -20.638060   -1.643681    0.585990
      7          6           0      -19.516319   -2.477150    0.596729
      8          6           0      -19.881131   -3.901187    1.023703
      9          6           0      -21.414191   -3.846780    0.802833
     10          6           0      -21.823228   -2.365854    0.666184
     11          6           0      -21.896246   -4.775662   -0.332899
     12          6           0      -19.467789   -4.198430    2.478748
     13          6           0      -18.834279   -5.604388    2.761042
     14          1           0      -19.087520   -6.177355    4.100632
     15          7           0      -22.893680    0.370765   -0.120372
     16          6           0      -23.695345   -0.708742    0.027342
     17          6           0      -25.063808   -0.437144   -0.296624
     18          6           0      -25.119792    0.904728   -0.707791
     19          6           0      -23.707355    1.425597   -0.487229
     20          6           0      -26.168676   -1.494766   -0.338212
     21          6           0      -26.385208    1.692054   -1.206879
     22          8           0      -27.500921    1.112581   -1.173736
     23          6           0      -26.326845    3.152209   -1.831514
     24          7           0      -20.935814    2.598142    0.115248
     25          6           0      -22.036637    3.302337   -0.243928
     26          6           0      -21.773301    4.781044   -0.368927
     27          6           0      -20.255397    4.889728   -0.108286
     28          6           0      -19.853531    3.418445    0.022922
     29          6           0      -22.267176    5.422118   -1.708163
     30          6           0      -19.891066    5.852664    1.120000
     31          6           0      -19.318401    7.216175    0.715991
     32          7           0      -18.784678    0.574686    0.166551
     33          6           0      -17.939036    1.703836    0.233420
     34          6           0      -16.538498    1.261967    0.205392
     35          6           0      -16.644330   -0.121902    0.212411
     36          6           0      -18.006226   -0.449906    0.315067
     37          6           0      -15.281893    2.056688    0.204117
     38          6           0      -15.853684   -1.360947    0.224094
     39          8           0      -14.651944   -1.577514   -0.002993
     40          6           0      -16.875707   -2.562639    0.333175
     41          6           0      -16.786557   -3.479000   -0.879772
     42          8           0      -16.729852   -3.152198   -2.069465
     43          8           0      -16.714120   -4.724983   -0.331351
     44          6           0      -16.442309   -5.821510   -1.245619
     45          1           0      -23.958337   -2.724181    0.572507
     46          1           0      -24.001426    3.596538   -0.742903
     47          1           0      -17.752883    3.774056    0.233489
     48          1           0      -19.367351   -4.617630    0.381874
     49          1           0      -21.813813   -4.240758    1.737226
     50          1           0      -21.270950   -5.612292   -0.644522
     51          1           0      -21.955365   -4.143878   -1.219030
     52          1           0      -22.870268   -5.215535   -0.119952
     53          1           0      -20.272012   -4.020537    3.192149
     54          1           0      -18.796176   -3.383371    2.749481
     55          1           0      -17.755899   -5.541285    2.615645
     56          1           0      -19.270271   -6.323704    2.066384
     57          1           0      -26.576456   -1.450549   -1.347840
     58          1           0      -26.822491   -1.377203    0.526053
     59          1           0      -25.635916   -2.443159   -0.269377
     60          1           0      -26.348529    3.840958   -0.987784
     61          1           0      -27.234070    3.263197   -2.424962
     62          1           0      -25.505382    3.143613   -2.548423
     63          1           0      -22.320041    5.286558    0.427187
     64          1           0      -19.635601    5.166161   -0.960925
     65          1           0      -21.511522    6.076229   -2.142295
     66          1           0      -23.177693    6.007663   -1.582204
     67          1           0      -22.567274    4.628830   -2.391561
     68          1           0      -19.117726    5.432909    1.763182
     69          1           0      -20.754480    5.963161    1.775963
     70          1           0      -19.712791    7.989704    1.375174
     71          1           0      -19.602148    7.444241   -0.311194
     72          1           0      -18.230444    7.267876    0.753931
     73          1           0      -15.561144    3.106753    0.117388
     74          1           0      -14.564219    1.616726   -0.488611
     75          1           0      -14.882124    1.981731    1.215956
     76          1           0      -16.745168   -3.137441    1.250438
     77          1           0      -17.023094   -5.782601   -2.168057
     78          1           0      -16.553352   -6.832757   -0.854324
     79          1           0      -15.391162   -5.805400   -1.534735
     80         12           0       20.467679    0.583233   -0.398020
     81          6           0       19.537314   -2.603936    0.339665
     82          6           0       17.260619    1.669805    0.623066
     83          6           0       21.713136    3.667083   -0.093230
     84          6           0       23.861454   -0.546981   -0.895541
     85          7           0       18.667428   -0.384868    0.345919
     86          6           0       18.458260   -1.635693    0.591697
     87          6           0       16.949340   -1.970952    0.867190
     88          6           0       16.193770   -0.603233    0.660718
     89          6           0       17.430507    0.344798    0.490487
     90          6           0       15.081479   -0.592386   -0.388819
     91          6           0       16.730651   -2.692254    2.326234
     92          6           0       17.778008   -2.483114    3.407929
     93          1           0       17.440445   -2.738792    4.876789
     94          7           0       19.594076    2.408783    0.195697
     95          6           0       18.281095    2.672039    0.504188
     96          6           0       18.138153    4.021764    0.840642
     97          6           0       19.432518    4.652820    0.686253
     98          6           0       20.348313    3.555291    0.277599
     99          6           0       16.767198    4.618447    1.101147
    100          6           0       19.701358    6.147527    0.938040
    101          8           0       18.738400    6.859531    1.301577
    102          6           0       20.967718    6.805891    0.795441
    103          7           0       22.590894    1.449602   -0.328911
    104          6           0       22.706916    2.746010   -0.384723
    105          6           0       24.155783    3.214112   -0.701645
    106          6           0       24.843837    1.867177   -1.013616
    107          6           0       23.720915    0.781334   -0.762147
    108          6           0       24.263835    4.159252   -1.843462
    109          6           0       26.171449    1.632610   -0.149969
    110          6           0       27.538482    1.662793   -0.949603
    111          7           0       21.533577   -1.181020   -0.429953
    112          6           0       22.868564   -1.527935   -0.672552
    113          6           0       22.992949   -3.017578   -0.610343
    114          6           0       21.724698   -3.431167   -0.178617
    115          6           0       20.875174   -2.292815   -0.046886
    116          6           0       24.152919   -3.852619   -0.857915
    117          6           0       21.046486   -4.583879    0.202886
    118          8           0       21.352195   -5.784546    0.247342
    119          6           0       19.582813   -4.128432    0.465027
    120          6           0       18.651244   -4.948015   -0.459281
    121          8           0       17.681884   -5.612923   -0.135577
    122          8           0       19.023943   -4.860919   -1.783218
    123          6           0       18.242198   -5.626427   -2.761543
    124          1           0       16.264784    1.909137    1.001446
    125          1           0       22.143697    4.667645   -0.167653
    126          1           0       24.848846   -0.886085   -1.215388
    127          1           0       16.616529   -2.579120    0.025655
    128          1           0       15.738689   -0.241787    1.583391
    129          1           0       15.362622    0.062188   -1.213569
    130          1           0       14.141333   -0.210201    0.010557
    131          1           0       14.792354   -1.567078   -0.781965
    132          1           0       16.601590   -3.732968    2.028047
    133          1           0       15.846462   -2.369790    2.876498
    134          1           0       18.055356   -1.437398    3.277631
    135          1           0       18.636214   -3.075231    3.089646
    136          1           0       16.423202    5.467229    0.509529
    137          1           0       16.681686    4.838907    2.165447
    138          1           0       16.012025    3.849474    0.939522
    139          1           0       21.429968    6.812454   -0.191508
    140          1           0       21.736067    6.274019    1.355659
    141          1           0       20.990695    7.807987    1.222531
    142          1           0       24.713254    3.746455    0.068917
    143          1           0       25.061676    1.730224   -2.072877
    144          1           0       24.444047    5.198036   -1.567223
    145          1           0       23.300200    4.271691   -2.341605
    146          1           0       25.044738    3.832065   -2.529736
    147          1           0       26.132171    0.621129    0.256610
    148          1           0       26.348155    2.384652    0.617806
    149          1           0       28.262232    2.274446   -0.412393
    150          1           0       27.368198    2.203906   -1.880444
    151          1           0       27.886101    0.629553   -0.945219
    152          1           0       24.723371   -3.304217   -1.607906
    153          1           0       23.851777   -4.818515   -1.265033
    154          1           0       24.615496   -4.025624    0.113330
    155          1           0       19.175878   -4.508860    1.401643
    156          1           0       18.871705   -5.812493   -3.631923
    157          1           0       17.352207   -5.162171   -3.186064
    158          1           0       17.824455   -6.551934   -2.364184
 ---------------------------------------------------------------------

 SCF Done:  E(RCAM-B3LYP) =  -4069.79610958     A.U. after   19 cycles

 Excitation energies and oscillator strengths:

 Excited State   1:      Singlet-A      1.7059 eV  726.81 nm  f=0.4474  <S**2>=0.000
     309 -> 316       -0.15961
     311 -> 313        0.68354
     309 <- 316       -0.10193
 This state for optimization and/or second-order correction.
 Total Energy, E(TD-HF/TD-DFT) =  -4069.73342017
 Copying the excited state density for this state as the 1-particle RhoCI density.

 Excited State   2:      Singlet-A      1.7088 eV  725.55 nm  f=0.3503  <S**2>=0.000
     310 -> 315        0.17314
     312 -> 314        0.68089
     310 <- 315        0.10439

 Excited State   3:      Singlet-A      2.2475 eV  551.64 nm  f=0.0924  <S**2>=0.000
     310 -> 314        0.62509
     312 -> 315       -0.31533

 Excited State   4:      Singlet-A      2.2508 eV  550.84 nm  f=0.1203  <S**2>=0.000
     309 -> 313        0.64184
     311 -> 316        0.27219

 Excited State   5:      Singlet-A      2.9184 eV  424.84 nm  f=0.0000  <S**2>=0.000
     312 -> 313        0.70710

 The electronic state is 1-A.
 Alpha  occ. eigenvalues --  -46.90311 -46.89172 -19.26359 -19.24891 -19.20262
 Alpha  occ. eigenvalues --  -19.20106 -19.19683 -19.18966 -19.18443 -19.17419
 Alpha  occ. eigenvalues --  -14.43195 -14.42405 -14.42171 -14.41922 -14.40537
 Alpha  occ. eigenvalues --  -14.40225 -14.39819 -14.39106 -10.39953 -10.39715
 Alpha  occ. eigenvalues --  -10.36675 -10.34749 -10.34713 -10.34257 -10.32998
 Alpha  occ. eigenvalues --  -10.32197 -10.32047 -10.31770 -10.31590 -10.31499
 Alpha  occ. eigenvalues --  -10.31267 -10.31182 -10.31090 -10.30750 -10.30735
 Alpha  occ. eigenvalues --  -10.30644 -10.30477 -10.30397 -10.30375 -10.29672
 Alpha  occ. eigenvalues --  -10.29632 -10.29299 -10.29259 -10.29023 -10.28809
 Alpha  occ. eigenvalues --  -10.28802 -10.28490 -10.28476 -10.28469 -10.28415
 Alpha  occ. eigenvalues --  -10.28348 -10.28287 -10.28155 -10.28017 -10.28012
 Alpha  occ. eigenvalues --  -10.27969 -10.27911 -10.27740 -10.27722 -10.27708
 Alpha  occ. eigenvalues --  -10.27608 -10.27560 -10.27470 -10.27292 -10.27176
 Alpha  occ. eigenvalues --  -10.27090 -10.27064 -10.27036 -10.26986 -10.26911
 Alpha  occ. eigenvalues --  -10.26904 -10.26827 -10.26733 -10.26704 -10.26566
 Alpha  occ. eigenvalues --  -10.26393 -10.26278 -10.26158 -10.26051 -10.26007
 Alpha  occ. eigenvalues --  -10.25969 -10.25759 -10.25649 -10.25609 -10.24905
 Alpha  occ. eigenvalues --  -10.24584  -3.18718  -3.17704  -1.93596  -1.93207
 Alpha  occ. eigenvalues --   -1.92985  -1.92570  -1.92147  -1.92034  -1.16834
 Alpha  occ. eigenvalues --   -1.16134  -1.09052  -1.08616  -1.08357  -1.07749
 Alpha  occ. eigenvalues --   -1.07614  -1.07347  -1.05032  -1.04672  -1.04507
 Alpha  occ. eigenvalues --   -1.04001  -1.03639  -1.03517  -1.02247  -1.02148
 Alpha  occ. eigenvalues --   -0.92996  -0.91416  -0.89668  -0.89430  -0.88985
 Alpha  occ. eigenvalues --   -0.88874  -0.88834  -0.88691  -0.88322  -0.87796
 Alpha  occ. eigenvalues --   -0.87276  -0.86984  -0.86390  -0.85293  -0.84646
 Alpha  occ. eigenvalues --   -0.84310  -0.84194  -0.83893  -0.82947  -0.82510
 Alpha  occ. eigenvalues --   -0.82504  -0.81636  -0.81459  -0.81118  -0.80266
 Alpha  occ. eigenvalues --   -0.80188  -0.78480  -0.77934  -0.77474  -0.77393
 Alpha  occ. eigenvalues --   -0.76960  -0.76741  -0.76354  -0.75885  -0.75290
 Alpha  occ. eigenvalues --   -0.75278  -0.73398  -0.72703  -0.71951  -0.71722
 Alpha  occ. eigenvalues --   -0.69563  -0.69194  -0.68966  -0.68924  -0.68405
 Alpha  occ. eigenvalues --   -0.67881  -0.67248  -0.66838  -0.66126  -0.66036
 Alpha  occ. eigenvalues --   -0.65652  -0.65075  -0.64990  -0.64866  -0.64553
 Alpha  occ. eigenvalues --   -0.64542  -0.63332  -0.62684  -0.60900  -0.59955
 Alpha  occ. eigenvalues --   -0.59943  -0.59592  -0.58944  -0.58919  -0.58604
 Alpha  occ. eigenvalues --   -0.58521  -0.58020  -0.57726  -0.57250  -0.57232
 Alpha  occ. eigenvalues --   -0.56328  -0.55963  -0.55754  -0.55614  -0.55598
 Alpha  occ. eigenvalues --   -0.55342  -0.55013  -0.54808  -0.54542  -0.53864
 Alpha  occ. eigenvalues --   -0.53763  -0.53507  -0.53367  -0.53250  -0.53136
 Alpha  occ. eigenvalues --   -0.52874  -0.52792  -0.52594  -0.52594  -0.52225
 Alpha  occ. eigenvalues --   -0.52010  -0.51583  -0.51487  -0.51352  -0.51247
 Alpha  occ. eigenvalues --   -0.51178  -0.51096  -0.50934  -0.50867  -0.50685
 Alpha  occ. eigenvalues --   -0.50261  -0.49940  -0.49898  -0.49560  -0.49459
 Alpha  occ. eigenvalues --   -0.49325  -0.49223  -0.49052  -0.48992  -0.48815
 Alpha  occ. eigenvalues --   -0.48551  -0.48507  -0.48289  -0.48264  -0.48142
 Alpha  occ. eigenvalues --   -0.47843  -0.47681  -0.47651  -0.47471  -0.47406
 Alpha  occ. eigenvalues --   -0.47179  -0.47176  -0.46859  -0.46832  -0.46750
 Alpha  occ. eigenvalues --   -0.46574  -0.46382  -0.46181  -0.46001  -0.45880
 Alpha  occ. eigenvalues --   -0.45719  -0.45565  -0.45249  -0.45244  -0.45005
 Alpha  occ. eigenvalues --   -0.44862  -0.44770  -0.44593  -0.44450  -0.44430
 Alpha  occ. eigenvalues --   -0.44117  -0.43816  -0.43787  -0.43767  -0.43584
 Alpha  occ. eigenvalues --   -0.43478  -0.43276  -0.42940  -0.42687  -0.42660
 Alpha  occ. eigenvalues --   -0.42468  -0.42450  -0.42246  -0.42116  -0.42065
 Alpha  occ. eigenvalues --   -0.41997  -0.41955  -0.41576  -0.41481  -0.41145
 Alpha  occ. eigenvalues --   -0.40946  -0.40846  -0.40793  -0.40708  -0.40600
 Alpha  occ. eigenvalues --   -0.39981  -0.39832  -0.39711  -0.39357  -0.39066
 Alpha  occ. eigenvalues --   -0.38712  -0.38676  -0.38381  -0.38152  -0.38029
 Alpha  occ. eigenvalues --   -0.37838  -0.37378  -0.36851  -0.36850  -0.36516
 Alpha  occ. eigenvalues --   -0.36412  -0.36386  -0.34866  -0.34802  -0.34792
 Alpha  occ. eigenvalues --   -0.34290  -0.34033  -0.33030  -0.31600  -0.31579
 Alpha  occ. eigenvalues --   -0.31196  -0.31071  -0.30911  -0.30490  -0.30449
 Alpha  occ. eigenvalues --   -0.30167  -0.29832  -0.29012  -0.24930  -0.24196
 Alpha  occ. eigenvalues --   -0.21657  -0.21079
 Alpha virt. eigenvalues --   -0.09516  -0.08578  -0.02019  -0.01887  -0.00018
 Alpha virt. eigenvalues --    0.00174   0.00638   0.01643   0.01982   0.02222
 Alpha virt. eigenvalues --    0.04990   0.05021   0.05051   0.05271   0.05448

 Mulliken charges:
               1
     1  Mg   0.836099
     2  C   -0.065961
     3  C   -0.099856
     4  C   -0.076397
     5  C   -0.074268
     6  N   -0.335338
     7  C   -0.053003
     8  C   -0.007702
     9  C   -0.038882
    10  C    0.100375
    11  C    0.060697
    12  C    0.062687
    13  C   -0.070248
    14  H    0.025982
    15  N   -0.347173
    16  C    0.138444
    17  C   -0.175742
    18  C   -0.042937
    19  C    0.173832
    20  C    0.164803
    21  C    0.001204
    22  O   -0.229646
    23  C    0.054728
    24  N   -0.257138
    25  C   -0.006421
    26  C   -0.021873
    27  C   -0.004524
    28  C    0.016308
    29  C    0.057140
    30  C    0.038568
    31  C   -0.002761
    32  N   -0.349133
    33  C    0.091987
    34  C   -0.191241
    35  C    0.000942
    36  C    0.118590
    37  C    0.151207
    38  C    0.079097
    39  O   -0.194583
    40  C    0.005625
    41  C    0.224940
    42  O   -0.217109
    43  O   -0.326147
    44  C    0.174537
    45  H   -0.017152
    46  H   -0.042491
    47  H   -0.036545
    48  H    0.000621
    49  H    0.005449
    50  H    0.014657
    51  H    0.013573
    52  H    0.016655
    53  H    0.006707
    54  H    0.005817
    55  H    0.043395
    56  H    0.028567
    57  H    0.042056
    58  H    0.047491
    59  H   -0.009951
    60  H    0.058758
    61  H    0.031673
    62  H    0.040080
    63  H    0.020126
    64  H    0.008835
    65  H    0.024608
    66  H    0.011782
    67  H    0.017589
    68  H    0.008274
    69  H    0.004654
    70  H    0.016489
    71  H    0.008706
    72  H    0.019608
    73  H   -0.000744
    74  H    0.052448
    75  H    0.027055
    76  H    0.034527
    77  H    0.037761
    78  H    0.033800
    79  H    0.035416
    80  Mg   0.825818
    81  C    0.014969
    82  C   -0.064082
    83  C   -0.034152
    84  C   -0.085245
    85  N   -0.280190
    86  C   -0.033739
    87  C   -0.003293
    88  C   -0.057041
    89  C    0.024081
    90  C    0.073083
    91  C    0.009607
    92  C   -0.045397
    93  H    0.044622
    94  N   -0.376608
    95  C    0.139165
    96  C   -0.133911
    97  C   -0.051343
    98  C    0.178993
    99  C    0.140045
   100  C    0.018688
   101  O   -0.238769
   102  C    0.063192
   103  N   -0.229444
   104  C   -0.016331
   105  C   -0.028431
   106  C    0.002431
   107  C    0.020963
   108  C    0.047847
   109  C    0.001354
   110  C   -0.010166
   111  N   -0.376984
   112  C    0.118801
   113  C   -0.164109
   114  C    0.035788
   115  C    0.123879
   116  C    0.127108
   117  C    0.044573
   118  O   -0.184339
   119  C   -0.043154
   120  C    0.174906
   121  O   -0.212559
   122  O   -0.339391
   123  C    0.178539
   124  H   -0.011471
   125  H   -0.063624
   126  H   -0.026526
   127  H    0.025741
   128  H    0.012412
   129  H    0.017784
   130  H    0.012643
   131  H    0.020300
   132  H    0.032843
   133  H    0.016864
   134  H    0.030171
   135  H    0.016138
   136  H    0.036994
   137  H    0.022633
   138  H   -0.021539
   139  H    0.042185
   140  H    0.019883
   141  H    0.027684
   142  H    0.019207
   143  H    0.008127
   144  H    0.006253
   145  H    0.010287
   146  H    0.018305
   147  H    0.012629
   148  H    0.017210
   149  H    0.010698
   150  H    0.016204
   151  H    0.026511
   152  H    0.022292
   153  H    0.042576
   154  H    0.050580
   155  H    0.029784
   156  H    0.033929
   157  H    0.019775
   158  H    0.044751
 Sum of Mulliken charges =  -0.00000

 Dipole moment (field-independent basis, Debye):
    X=              0.8758    Y=              3.1097    Z=             -3.5500  Tot=              4.7999
 Quadrupole moment (field-independent basis, Debye-Ang):
   XX=           -333.3568   YY=           -518.1518   ZZ=           -511.1841
   XY=             28.1520   XZ=            -81.4959   YZ=             -0.2681

 Normal termination of Gaussian 16 at Thu Sep 16 11:01:16 2021.
