 Gaussian 16, Revision A.03,
 Gaussian 16:  ES64L-G16RevA.03 25-Dec-2016

 -----------------------------------
 #p cam-b3lyp/Def2SVP td=(nstates=5)
 -----------------------------------

 --------------------------------
 TDDFT excited states in gaussian
 --------------------------------
 Symbolic Z-matrix:
 Charge =  0 Multiplicity = 1

                         Standard orientation:
 ---------------------------------------------------------------------
 Center     Atomic      Atomic             Coordinates (Angstroms)
 Number     Number       Type             X           Y           Z
 ---------------------------------------------------------------------
      1         12           0      -31.258982    0.651058    0.342201
      2          6           0      -28.939227   -2.192241    0.339064
      3          6           0      -28.512870    2.513454   -0.642703
      4          6           0      -33.338913    2.840667   -0.682184
      5          6           0      -33.823895   -1.793091    0.941472
      6          7           0      -28.933083    0.101351   -0.243286
      7          6           0      -28.235198   -1.083377   -0.155885
      8          6           0      -26.780517   -0.873021   -0.714833
      9          6           0      -26.597115    0.654218   -0.748184
     10          6           0      -28.086406    1.123784   -0.535124
     11          6           0      -25.667228    1.330161    0.343281
     12          6           0      -26.520261   -1.593520   -2.081959
     13          6           0      -25.160927   -2.236045   -2.255690
     14          1           0      -24.122813   -1.458263   -3.123986
     15          7           0      -30.989055    2.459446   -0.415546
     16          6           0      -29.814125    3.117716   -0.657918
     17          6           0      -30.098583    4.479365   -1.187813
     18          6           0      -31.515431    4.555677   -1.219138
     19          6           0      -32.002038    3.242576   -0.803301
     20          6           0      -29.075388    5.520314   -1.670733
     21          6           0      -32.397933    5.656590   -1.814380
     22          8           0      -31.833346    6.663701   -2.232801
     23          6           0      -33.805045    5.612581   -1.887108
     24          7           0      -33.321969    0.413624   -0.089794
     25          6           0      -33.954584    1.628359   -0.265089
     26          6           0      -35.511082    1.385251   -0.178350
     27          6           0      -35.630918   -0.166750    0.032270
     28          6           0      -34.172326   -0.514463    0.415038
     29          6           0      -36.263370    2.214176    0.898669
     30          6           0      -36.200145   -1.056407   -1.145362
     31          6           0      -37.725285   -1.106470   -1.342085
     32          7           0      -31.450391   -1.535199    0.648086
     33          6           0      -32.531680   -2.317534    1.001275
     34          6           0      -32.133886   -3.660623    1.347226
     35          6           0      -30.707810   -3.652025    1.113531
     36          6           0      -30.289189   -2.363769    0.628986
     37          6           0      -33.087615   -4.745345    1.743151
     38          6           0      -29.579999   -4.471940    1.104081
     39          8           0      -29.465823   -5.683864    1.228038
     40          6           0      -28.419173   -3.636074    0.491280
     41          6           0      -27.323218   -3.691863    1.529809
     42          8           0      -26.151901   -3.975582    1.266921
     43          8           0      -27.693848   -3.225007    2.854835
     44          6           0      -26.529795   -2.962802    3.699674
     45          1           0      -27.651417    3.139214   -0.883099
     46          1           0      -34.160490    3.546383   -0.821546
     47          1           0      -34.700740   -2.393229    1.192986
     48          1           0      -26.069094   -1.171388    0.056525
     49          1           0      -26.325454    1.008209   -1.742658
     50          1           0      -24.763801    1.606017   -0.200207
     51          1           0      -25.370793    0.612214    1.107440
     52          1           0      -26.109725    2.163953    0.888242
     53          1           0      -26.517908   -0.934272   -2.950372
     54          1           0      -27.239159   -2.400068   -2.227667
     55          1           0      -25.334634   -3.253436   -2.606225
     56          1           0      -24.709015   -2.317898   -1.266655
     57          1           0      -29.383518    6.516120   -1.350990
     58          1           0      -29.052428    5.379744   -2.751325
     59          1           0      -28.101492    5.353159   -1.212650
     60          1           0      -34.195749    5.646567   -0.869604
     61          1           0      -34.208453    4.784712   -2.470282
     62          1           0      -34.003311    6.489775   -2.503952
     63          1           0      -36.041883    1.609756   -1.102918
     64          1           0      -36.200230   -0.402294    0.931112
     65          1           0      -36.756377    1.476119    1.531525
     66          1           0      -37.006855    2.831768    0.395739
     67          1           0      -35.468014    2.784595    1.379951
     68          1           0      -35.838981   -2.055796   -0.900515
     69          1           0      -35.847374   -0.695986   -2.111893
     70          1           0      -38.056284   -0.514742   -0.488140
     71          1           0      -38.114895   -2.108517   -1.157027
     72          1           0      -38.120024   -0.700467   -2.273136
     73          1           0      -33.791968   -4.822841    0.915952
     74          1           0      -33.713583   -4.484171    2.596223
     75          1           0      -32.622392   -5.730768    1.770589
     76          1           0      -28.079412   -4.171841   -0.394861
     77          1           0      -27.026787   -2.234146    4.341231
     78          1           0      -25.650402   -2.689950    3.116344
     79          1           0      -26.383996   -3.858590    4.303462
     80         12           0       30.818217   -0.535444   -0.510512
     81          6           0       30.534453    1.963258    1.937146
     82          6           0       30.767566   -2.921163    1.819142
     83          6           0       31.164948   -2.688810   -2.901415
     84          6           0       31.876960    2.118826   -2.729202
     85          7           0       30.771155   -0.422789    1.640622
     86          6           0       30.492080    0.622386    2.429633
     87          6           0       30.477544    0.240489    3.887295
     88          6           0       30.966336   -1.262961    3.848766
     89          6           0       30.817665   -1.572698    2.371757
     90          6           0       32.390526   -1.597765    4.399349
     91          6           0       28.977094    0.313321    4.476169
     92          6           0       28.879705    1.075175    5.838462
     93          1           0       27.337949    1.395261    6.234597
     94          7           0       30.697788   -2.475105   -0.559526
     95          6           0       30.633673   -3.339906    0.519719
     96          6           0       30.326592   -4.655910    0.030951
     97          6           0       30.394228   -4.668320   -1.422286
     98          6           0       30.653328   -3.209944   -1.731089
     99          6           0       30.164682   -5.818165    1.052365
    100          6           0       30.233791   -5.718880   -2.515217
    101          8           0       30.240062   -5.514506   -3.742594
    102          6           0       29.940277   -7.070975   -1.968401
    103          7           0       31.585664   -0.257699   -2.451147
    104          6           0       31.606556   -1.396096   -3.218518
    105          6           0       32.230757   -1.121811   -4.587209
    106          6           0       32.159912    0.426590   -4.649125
    107          6           0       31.922344    0.815068   -3.188526
    108          6           0       33.644132   -1.821540   -4.686696
    109          6           0       31.060287    1.036698   -5.618230
    110          6           0       31.312248    2.459643   -6.142008
    111          7           0       31.118089    1.618331   -0.470858
    112          6           0       31.532259    2.491938   -1.430168
    113          6           0       31.444717    3.858388   -0.966004
    114          6           0       30.980225    3.669146    0.348476
    115          6           0       30.857024    2.300676    0.628334
    116          6           0       31.752751    5.208778   -1.652845
    117          6           0       30.578899    4.388130    1.525324
    118          8           0       30.354211    5.548697    1.749353
    119          6           0       30.431204    3.260484    2.673475
    120          6           0       29.189038    3.691740    3.320096
    121          8           0       27.999987    3.466681    2.980161
    122          8           0       29.584423    4.416577    4.380820
    123          6           0       28.556478    5.030042    5.222867
    124          1           0       30.660026   -3.710258    2.566479
    125          1           0       31.209545   -3.402016   -3.727368
    126          1           0       32.112602    2.886825   -3.468868
    127          1           0       31.084476    0.870217    4.538408
    128          1           0       30.316325   -1.990436    4.335307
    129          1           0       33.017237   -1.871354    3.550554
    130          1           0       32.245453   -2.460084    5.049853
    131          1           0       32.940190   -0.823160    4.932951
    132          1           0       28.457632   -0.640546    4.575138
    133          1           0       28.368164    0.766816    3.694010
    134          1           0       29.421163    2.019607    5.788002
    135          1           0       29.234639    0.520672    6.706835
    136          1           0       29.114432   -5.869550    1.336160
    137          1           0       30.580215   -5.597543    2.036372
    138          1           0       30.673057   -6.754460    0.823321
    139          1           0       29.017036   -7.138177   -1.393981
    140          1           0       30.839420   -7.278014   -1.386794
    141          1           0       29.901853   -7.852124   -2.728157
    142          1           0       31.562070   -1.596289   -5.305543
    143          1           0       33.106748    0.813424   -5.025794
    144          1           0       34.437860   -1.076290   -4.636297
    145          1           0       33.880100   -2.399914   -5.579574
    146          1           0       33.927889   -2.473211   -3.860050
    147          1           0       30.199122    1.148496   -4.958889
    148          1           0       30.775708    0.450214   -6.492081
    149          1           0       30.580124    3.173103   -5.761541
    150          1           0       31.335608    2.633856   -7.217938
    151          1           0       32.244984    2.774569   -5.676219
    152          1           0       32.476172    4.982109   -2.436036
    153          1           0       32.159882    5.927843   -0.940776
    154          1           0       30.816830    5.543744   -2.099879
    155          1           0       31.242269    3.364929    3.394362
    156          1           0       28.549984    4.519661    6.185812
    157          1           0       27.593213    5.093964    4.717888
    158          1           0       28.876522    6.043636    5.464003
 ---------------------------------------------------------------------

 SCF Done:  E(RCAM-B3LYP) =  -4069.75208848     A.U. after   17 cycles

 Excitation energies and oscillator strengths:

 Excited State   1:      Singlet-A      1.7224 eV  719.83 nm  f=0.3333  <S**2>=0.000
     309 -> 315        0.19680
     311 -> 313        0.67909
     309 <- 315        0.11031
 This state for optimization and/or second-order correction.
 Total Energy, E(TD-HF/TD-DFT) =  -4069.68879148
 Copying the excited state density for this state as the 1-particle RhoCI density.

 Excited State   2:      Singlet-A      1.7272 eV  717.84 nm  f=0.3998  <S**2>=0.000
     310 -> 316       -0.19737
     312 -> 314        0.68068
     310 <- 316       -0.11058

 Excited State   3:      Singlet-A      2.2417 eV  553.08 nm  f=0.0694  <S**2>=0.000
     309 -> 313        0.61606
     311 -> 315       -0.33057

 Excited State   4:      Singlet-A      2.2496 eV  551.13 nm  f=0.0627  <S**2>=0.000
     310 -> 314        0.61703
     312 -> 316        0.33568

 Excited State   5:      Singlet-A      3.2016 eV  387.25 nm  f=0.0000  <S**2>=0.000
     312 -> 313        0.70711

 The electronic state is 1-A.
 Alpha  occ. eigenvalues --  -46.90763 -46.87567 -19.24862 -19.23715 -19.20088
 Alpha  occ. eigenvalues --  -19.19664 -19.19032 -19.18791 -19.18422 -19.17868
 Alpha  occ. eigenvalues --  -14.42716 -14.42592 -14.42017 -14.41724 -14.40812
 Alpha  occ. eigenvalues --  -14.39452 -14.39141 -14.38400 -10.39389 -10.38564
 Alpha  occ. eigenvalues --  -10.35989 -10.34935 -10.34655 -10.33508 -10.32313
 Alpha  occ. eigenvalues --  -10.31886 -10.31707 -10.31588 -10.31528 -10.31368
 Alpha  occ. eigenvalues --  -10.31187 -10.31012 -10.31000 -10.30782 -10.30781
 Alpha  occ. eigenvalues --  -10.30599 -10.30269 -10.30109 -10.30035 -10.29656
 Alpha  occ. eigenvalues --  -10.29462 -10.29397 -10.29239 -10.29224 -10.28915
 Alpha  occ. eigenvalues --  -10.28914 -10.28835 -10.28717 -10.28536 -10.28528
 Alpha  occ. eigenvalues --  -10.28404 -10.28363 -10.28324 -10.28321 -10.28216
 Alpha  occ. eigenvalues --  -10.28064 -10.27859 -10.27831 -10.27737 -10.27730
 Alpha  occ. eigenvalues --  -10.27708 -10.27673 -10.27604 -10.27463 -10.27342
 Alpha  occ. eigenvalues --  -10.27296 -10.26979 -10.26853 -10.26851 -10.26804
 Alpha  occ. eigenvalues --  -10.26800 -10.26657 -10.26648 -10.26644 -10.26497
 Alpha  occ. eigenvalues --  -10.26427 -10.26253 -10.26239 -10.26184 -10.26056
 Alpha  occ. eigenvalues --  -10.25868 -10.25846 -10.25816 -10.25359 -10.25236
 Alpha  occ. eigenvalues --  -10.24434  -3.19174  -3.16410  -1.94019  -1.93681
 Alpha  occ. eigenvalues --   -1.93439  -1.91295  -1.90877  -1.90724  -1.15930
 Alpha  occ. eigenvalues --   -1.13945  -1.10768  -1.10459  -1.09386  -1.08983
 Alpha  occ. eigenvalues --   -1.06348  -1.05543  -1.05186  -1.05034  -1.04298
 Alpha  occ. eigenvalues --   -1.03587  -1.03370  -1.03344  -1.02406  -1.01085
 Alpha  occ. eigenvalues --   -0.92890  -0.92709  -0.89106  -0.89007  -0.88946
 Alpha  occ. eigenvalues --   -0.88512  -0.88256  -0.88042  -0.87443  -0.86996
 Alpha  occ. eigenvalues --   -0.86966  -0.86932  -0.86259  -0.85934  -0.85024
 Alpha  occ. eigenvalues --   -0.84529  -0.83875  -0.83821  -0.83699  -0.82536
 Alpha  occ. eigenvalues --   -0.82474  -0.82265  -0.81263  -0.81157  -0.80297
 Alpha  occ. eigenvalues --   -0.79885  -0.78260  -0.78214  -0.77363  -0.77315
 Alpha  occ. eigenvalues --   -0.77046  -0.76913  -0.75915  -0.75833  -0.75398
 Alpha  occ. eigenvalues --   -0.75278  -0.72844  -0.72782  -0.72127  -0.71929
 Alpha  occ. eigenvalues --   -0.69243  -0.69148  -0.68793  -0.68604  -0.67910
 Alpha  occ. eigenvalues --   -0.67719  -0.67212  -0.67018  -0.66048  -0.65575
 Alpha  occ. eigenvalues --   -0.65541  -0.65382  -0.65055  -0.64857  -0.64440
 Alpha  occ. eigenvalues --   -0.64033  -0.61909  -0.61764  -0.60390  -0.60231
 Alpha  occ. eigenvalues --   -0.59836  -0.59817  -0.59275  -0.59144  -0.58926
 Alpha  occ. eigenvalues --   -0.58634  -0.57971  -0.57170  -0.57150  -0.57005
 Alpha  occ. eigenvalues --   -0.56768  -0.56319  -0.55923  -0.55612  -0.55436
 Alpha  occ. eigenvalues --   -0.54791  -0.54361  -0.54338  -0.53947  -0.53916
 Alpha  occ. eigenvalues --   -0.53790  -0.53556  -0.53429  -0.53305  -0.53210
 Alpha  occ. eigenvalues --   -0.52897  -0.52771  -0.52551  -0.52490  -0.52218
 Alpha  occ. eigenvalues --   -0.51995  -0.51747  -0.51597  -0.51445  -0.51427
 Alpha  occ. eigenvalues --   -0.51027  -0.51022  -0.50725  -0.50627  -0.50384
 Alpha  occ. eigenvalues --   -0.50162  -0.50018  -0.49897  -0.49865  -0.49524
 Alpha  occ. eigenvalues --   -0.49420  -0.49129  -0.49047  -0.48960  -0.48922
 Alpha  occ. eigenvalues --   -0.48646  -0.48480  -0.48396  -0.48166  -0.48109
 Alpha  occ. eigenvalues --   -0.48017  -0.47968  -0.47742  -0.47416  -0.47282
 Alpha  occ. eigenvalues --   -0.47257  -0.46870  -0.46739  -0.46530  -0.46499
 Alpha  occ. eigenvalues --   -0.46341  -0.46149  -0.45908  -0.45904  -0.45711
 Alpha  occ. eigenvalues --   -0.45519  -0.45374  -0.45145  -0.44976  -0.44881
 Alpha  occ. eigenvalues --   -0.44692  -0.44478  -0.44336  -0.44123  -0.44030
 Alpha  occ. eigenvalues --   -0.43808  -0.43728  -0.43597  -0.43556  -0.43473
 Alpha  occ. eigenvalues --   -0.43195  -0.43092  -0.42871  -0.42856  -0.42654
 Alpha  occ. eigenvalues --   -0.42568  -0.42459  -0.42311  -0.42205  -0.42073
 Alpha  occ. eigenvalues --   -0.42067  -0.41938  -0.41904  -0.41495  -0.41354
 Alpha  occ. eigenvalues --   -0.41340  -0.41195  -0.40813  -0.40578  -0.40315
 Alpha  occ. eigenvalues --   -0.40272  -0.40217  -0.39967  -0.39593  -0.39313
 Alpha  occ. eigenvalues --   -0.38864  -0.38776  -0.37868  -0.37839  -0.37528
 Alpha  occ. eigenvalues --   -0.37378  -0.37170  -0.36994  -0.36341  -0.35497
 Alpha  occ. eigenvalues --   -0.35369  -0.35216  -0.34483  -0.33979  -0.33930
 Alpha  occ. eigenvalues --   -0.33864  -0.33201  -0.32967  -0.31754  -0.31721
 Alpha  occ. eigenvalues --   -0.31403  -0.31313  -0.31044  -0.30540  -0.30328
 Alpha  occ. eigenvalues --   -0.30159  -0.29604  -0.28745  -0.24472  -0.24181
 Alpha  occ. eigenvalues --   -0.21460  -0.21112
 Alpha virt. eigenvalues --   -0.08792  -0.08435  -0.02705  -0.02295  -0.00368
 Alpha virt. eigenvalues --   -0.00288   0.00581   0.02166   0.02408   0.03152
 Alpha virt. eigenvalues --    0.04376   0.04793   0.04817   0.05144   0.05479

 Mulliken charges:
               1
     1  Mg   0.834487
     2  C   -0.008404
     3  C   -0.051070
     4  C   -0.074903
     5  C   -0.087907
     6  N   -0.224645
     7  C   -0.070861
     8  C    0.059346
     9  C   -0.071618
    10  C   -0.036598
    11  C    0.062105
    12  C    0.059732
    13  C   -0.072193
    14  H    0.007757
    15  N   -0.409472
    16  C    0.147849
    17  C   -0.174494
    18  C   -0.015326
    19  C    0.192181
    20  C    0.144597
    21  C   -0.033286
    22  O   -0.215700
    23  C    0.089244
    24  N   -0.319242
    25  C    0.023101
    26  C   -0.072992
    27  C   -0.047455
    28  C    0.019175
    29  C    0.084301
    30  C    0.042802
    31  C    0.012940
    32  N   -0.344580
    33  C    0.143219
    34  C   -0.151055
    35  C    0.030897
    36  C    0.129268
    37  C    0.139483
    38  C   -0.006510
    39  O   -0.179820
    40  C   -0.020504
    41  C    0.217674
    42  O   -0.226381
    43  O   -0.390002
    44  C    0.179632
    45  H   -0.026323
    46  H   -0.046925
    47  H   -0.027806
    48  H    0.012226
    49  H    0.017824
    50  H    0.026307
    51  H    0.015295
    52  H    0.028890
    53  H    0.025179
    54  H    0.019043
    55  H    0.034375
    56  H    0.030261
    57  H    0.044821
    58  H    0.045440
    59  H    0.008989
    60  H    0.054019
    61  H    0.041936
    62  H    0.028073
    63  H    0.008460
    64  H   -0.003907
    65  H    0.016876
    66  H    0.020068
    67  H    0.021287
    68  H    0.004886
    69  H    0.011213
    70  H   -0.004507
    71  H    0.017479
    72  H    0.028224
    73  H    0.012458
    74  H    0.025034
    75  H    0.037632
    76  H    0.040527
    77  H    0.031525
    78  H    0.052780
    79  H    0.033570
    80  Mg   0.852847
    81  C    0.059595
    82  C   -0.070837
    83  C   -0.057473
    84  C   -0.106724
    85  N   -0.271043
    86  C    0.000288
    87  C   -0.067228
    88  C   -0.030271
    89  C    0.007079
    90  C    0.073761
    91  C    0.057198
    92  C   -0.089417
    93  H    0.003786
    94  N   -0.473342
    95  C    0.176020
    96  C   -0.108099
    97  C   -0.095514
    98  C    0.154273
    99  C    0.089098
   100  C    0.047434
   101  O   -0.209002
   102  C    0.040323
   103  N   -0.291847
   104  C    0.056784
   105  C   -0.031473
   106  C   -0.009922
   107  C    0.037007
   108  C    0.062901
   109  C    0.033918
   110  C   -0.009096
   111  N   -0.270802
   112  C    0.124380
   113  C   -0.199727
   114  C    0.032768
   115  C    0.059056
   116  C    0.139564
   117  C    0.025833
   118  O   -0.148472
   119  C   -0.069236
   120  C    0.203344
   121  O   -0.256623
   122  O   -0.319719
   123  C    0.175294
   124  H   -0.039457
   125  H    0.000575
   126  H   -0.042876
   127  H    0.011937
   128  H    0.003438
   129  H    0.020778
   130  H    0.015872
   131  H    0.020555
   132  H    0.007601
   133  H    0.035331
   134  H    0.036301
   135  H    0.033624
   136  H    0.029971
   137  H    0.006226
   138  H    0.032728
   139  H    0.052587
   140  H    0.030734
   141  H    0.020740
   142  H    0.015902
   143  H    0.001401
   144  H   -0.000328
   145  H    0.021556
   146  H    0.019818
   147  H    0.012309
   148  H    0.017930
   149  H    0.013131
   150  H    0.020645
   151  H    0.010248
   152  H    0.013426
   153  H    0.043204
   154  H    0.041346
   155  H    0.043553
   156  H    0.032023
   157  H    0.059366
   158  H    0.031120
 Sum of Mulliken charges =  -0.00000

 Dipole moment (field-independent basis, Debye):
    X=             -0.9069    Y=              0.4388    Z=              2.7451  Tot=              2.9242
 Quadrupole moment (field-independent basis, Debye-Ang):
   XX=           -112.7170   YY=           -570.7846   ZZ=           -487.3076
   XY=           -211.3577   XZ=             27.7180   YZ=             -9.6832

 Normal termination of Gaussian 16 at Thu Sep  2 14:07:19 2021.
