 Gaussian 16, Revision A.03,
 Gaussian 16:  ES64L-G16RevA.03 25-Dec-2016

 -----------------------------------
 #p cam-b3lyp/Def2SVP td=(nstates=5)
 -----------------------------------

 --------------------------------
 TDDFT excited states in gaussian
 --------------------------------
 Symbolic Z-matrix:
 Charge =  0 Multiplicity = 1

                         Standard orientation:
 ---------------------------------------------------------------------
 Center     Atomic      Atomic             Coordinates (Angstroms)
 Number     Number       Type             X           Y           Z
 ---------------------------------------------------------------------
      1         12           0        9.396427    0.469994    0.012913
      2          6           0        6.773138   -1.555975   -1.065679
      3          6           0        7.556838    3.249729   -0.866609
      4          6           0       11.939049    2.184919    1.180134
      5          6           0       10.713860   -2.401349    1.830138
      6          7           0        7.331318    0.757940   -0.961271
      7          6           0        6.419471   -0.205827   -1.288861
      8          6           0        5.214832    0.394800   -1.921973
      9          6           0        5.457351    1.953104   -1.814189
     10          6           0        6.894399    2.047838   -1.167863
     11          6           0        5.215870    2.738999   -3.127543
     12          6           0        3.893794   -0.029801   -1.235675
     13          6           0        2.898691   -0.567792   -2.262414
     14          1           0        1.472909    0.061359   -2.280326
     15          7           0        9.716732    2.459111    0.109112
     16          6           0        8.873180    3.474265   -0.339672
     17          6           0        9.614595    4.712295   -0.137138
     18          6           0       10.938659    4.425675    0.438039
     19          6           0       10.962012    2.932745    0.547070
     20          6           0        9.019380    6.018139   -0.316951
     21          6           0       11.841408    5.490352    0.906818
     22          8           0       11.611446    6.676783    0.799906
     23          6           0       13.101591    5.238818    1.658837
     24          7           0       10.988803   -0.033269    1.307142
     25          6           0       12.063376    0.815123    1.394223
     26          6           0       13.144240    0.200150    2.258030
     27          6           0       12.509524   -1.013471    2.826784
     28          6           0       11.314723   -1.154782    2.021764
     29          6           0       14.540725   -0.007917    1.540843
     30          6           0       12.032540   -0.824516    4.307726
     31          6           0       12.024548   -2.015265    5.150252
     32          7           0        8.905727   -1.597503    0.327928
     33          6           0        9.546419   -2.637862    1.013542
     34          6           0        8.953462   -3.881298    0.632568
     35          6           0        7.850342   -3.527665   -0.135415
     36          6           0        7.832481   -2.093382   -0.268328
     37          6           0        9.451610   -5.207312    1.075661
     38          6           0        6.718856   -4.033661   -0.804970
     39          8           0        6.335819   -5.174807   -0.935729
     40          6           0        6.021740   -2.823898   -1.466417
     41          6           0        5.923002   -3.059901   -2.915559
     42          8           0        6.800675   -2.793849   -3.753954
     43          8           0        4.775111   -3.767686   -3.189168
     44          6           0        4.393159   -4.042626   -4.564773
     45          1           0        6.945343    4.079633   -1.225338
     46          1           0       12.812600    2.630115    1.662909
     47          1           0       11.159453   -3.239283    2.370333
     48          1           0        5.360404    0.220817   -2.988478
     49          1           0        4.773664    2.453819   -1.129343
     50          1           0        4.608831    2.041385   -3.705820
     51          1           0        6.100213    3.115558   -3.641697
     52          1           0        4.610019    3.621651   -2.924130
     53          1           0        3.342504    0.794969   -0.784458
     54          1           0        4.166432   -0.774918   -0.488521
     55          1           0        2.760027   -1.571101   -1.859888
     56          1           0        3.405830   -0.582930   -3.226004
     57          1           0        8.001741    5.876436   -0.681490
     58          1           0        9.475176    6.650540   -1.079394
     59          1           0        8.963247    6.524505    0.647300
     60          1           0       13.527939    4.462444    1.023539
     61          1           0       12.846735    4.847963    2.644269
     62          1           0       13.731093    6.128525    1.685658
     63          1           0       13.318399    0.967001    3.011923
     64          1           0       13.021278   -1.966726    2.694045
     65          1           0       14.554340    0.500621    0.576658
     66          1           0       14.889582   -1.040507    1.503748
     67          1           0       15.352386    0.542439    2.015865
     68          1           0       11.041832   -0.369823    4.308602
     69          1           0       12.669126   -0.108750    4.827620
     70          1           0       13.013439   -2.133440    5.594561
     71          1           0       11.714711   -2.906929    4.604240
     72          1           0       11.442001   -1.822042    6.051610
     73          1           0       10.541009   -5.231135    1.099353
     74          1           0        9.067947   -6.042823    0.489929
     75          1           0        9.152553   -5.253994    2.122836
     76          1           0        4.966646   -2.746729   -1.203551
     77          1           0        4.958363   -4.780054   -5.134817
     78          1           0        4.346995   -3.107570   -5.122651
     79          1           0        3.407466   -4.497868   -4.475950
     80         12           0       -9.438069    0.285910    0.157857
     81          6           0       -7.092095   -2.105237   -0.642603
     82          6           0       -7.572225    2.623070   -1.797799
     83          6           0      -11.420277    2.700669    1.159089
     84          6           0      -11.128314   -1.990565    2.188688
     85          7           0       -7.559027    0.176574   -1.054925
     86          6           0       -6.798319   -0.902400   -1.261598
     87          6           0       -5.668674   -0.537478   -2.279148
     88          6           0       -5.808057    1.038366   -2.499464
     89          6           0       -7.071172    1.335045   -1.668235
     90          6           0       -4.713751    1.914565   -1.920748
     91          6           0       -5.668762   -1.371253   -3.569292
     92          6           0       -4.294801   -1.955166   -3.852086
     93          1           0       -3.853209   -2.284177   -5.285566
     94          7           0       -9.519872    2.352857   -0.335521
     95          6           0       -8.738084    3.107173   -1.162180
     96          6           0       -9.184016    4.425073   -1.258053
     97          6           0      -10.254968    4.545315   -0.305196
     98          6           0      -10.460121    3.151896    0.221922
     99          6           0       -8.557120    5.474693   -2.164239
    100          6           0      -11.007318    5.790120    0.136141
    101          8           0      -11.787409    5.699654    1.103933
    102          6           0      -10.752161    7.111750   -0.465138
    103          7           0      -11.020895    0.302147    1.434735
    104          6           0      -11.774380    1.432467    1.676428
    105          6           0      -12.951032    1.228427    2.701540
    106          6           0      -12.961055   -0.358557    2.765293
    107          6           0      -11.614869   -0.717302    2.109848
    108          6           0      -12.910283    1.870740    4.144177
    109          6           0      -14.258528   -1.134245    2.253218
    110          6           0      -14.397771   -1.250144    0.758265
    111          7           0       -9.151522   -1.574897    0.805364
    112          6           0       -9.883031   -2.413949    1.624219
    113          6           0       -9.304837   -3.690538    1.733722
    114          6           0       -8.239311   -3.604483    0.830255
    115          6           0       -8.167820   -2.296152    0.269142
    116          6           0       -9.920784   -4.765846    2.523198
    117          6           0       -7.141494   -4.382760    0.401848
    118          8           0       -6.812285   -5.503093    0.796693
    119          6           0       -6.308454   -3.459213   -0.631632
    120          6           0       -4.941195   -3.332273   -0.158653
    121          8           0       -4.553209   -2.655983    0.766384
    122          8           0       -4.145122   -4.165209   -0.817670
    123          6           0       -2.775853   -4.283034   -0.416386
    124          1           0       -6.967857    3.341422   -2.354855
    125          1           0      -12.151250    3.392991    1.581201
    126          1           0      -11.686197   -2.670203    2.836306
    127          1           0       -4.790758   -0.728400   -1.662791
    128          1           0       -5.742792    1.181978   -3.578570
    129          1           0       -3.872053    1.367253   -1.495314
    130          1           0       -5.104547    2.507529   -1.094279
    131          1           0       -4.427764    2.676259   -2.646728
    132          1           0       -6.015195   -0.843966   -4.458313
    133          1           0       -6.395792   -2.172887   -3.441389
    134          1           0       -4.286451   -2.936518   -3.376383
    135          1           0       -3.579030   -1.256564   -3.419220
    136          1           0       -7.866578    5.028585   -2.880022
    137          1           0       -7.912056    6.115408   -1.562606
    138          1           0       -9.317124    6.123492   -2.598015
    139          1           0      -11.076150    7.910688    0.202771
    140          1           0      -11.378361    7.179180   -1.355301
    141          1           0       -9.691052    7.230891   -0.682781
    142          1           0      -13.925261    1.444731    2.261985
    143          1           0      -12.971489   -0.660130    3.811950
    144          1           0      -11.985368    2.440276    4.226073
    145          1           0      -12.723845    1.082072    4.874194
    146          1           0      -13.759207    2.474280    4.466677
    147          1           0      -15.109730   -0.532343    2.570510
    148          1           0      -14.408835   -2.106338    2.721288
    149          1           0      -14.917924   -2.187303    0.563182
    150          1           0      -13.529109   -1.178373    0.104960
    151          1           0      -15.004933   -0.402131    0.441479
    152          1           0      -11.005696   -4.786290    2.623226
    153          1           0       -9.451246   -4.985985    3.481175
    154          1           0       -9.626126   -5.638490    1.940854
    155          1           0       -6.315898   -3.957939   -1.600624
    156          1           0       -2.130871   -3.566856   -0.926776
    157          1           0       -2.439730   -5.270654   -0.731646
    158          1           0       -2.689671   -4.121264    0.658199
 ---------------------------------------------------------------------

 SCF Done:  E(RCAM-B3LYP) =  -4069.79706887     A.U. after   18 cycles

 Excitation energies and oscillator strengths:

 Excited State   1:      Singlet-A      1.6739 eV  740.70 nm  f=0.2451  <S**2>=0.000
     309 -> 315       -0.18524
     311 -> 313        0.67341
     312 -> 314        0.11786
     309 <- 315       -0.10926
 This state for optimization and/or second-order correction.
 Total Energy, E(TD-HF/TD-DFT) =  -4069.73555523
 Copying the excited state density for this state as the 1-particle RhoCI density.

 Excited State   2:      Singlet-A      1.7077 eV  726.02 nm  f=0.5209  <S**2>=0.000
     310 -> 316        0.17043
     311 -> 313       -0.11642
     312 -> 314        0.67654
     310 <- 316        0.10393

 Excited State   3:      Singlet-A      2.1858 eV  567.24 nm  f=0.1156  <S**2>=0.000
     309 -> 313        0.63403
     311 -> 315        0.29670

 Excited State   4:      Singlet-A      2.2218 eV  558.04 nm  f=0.1569  <S**2>=0.000
     310 -> 314        0.65162
     312 -> 316       -0.25357

 Excited State   5:      Singlet-A      2.8516 eV  434.79 nm  f=0.0000  <S**2>=0.000
     312 -> 313        0.70700

 The electronic state is 1-A.
 Alpha  occ. eigenvalues --  -46.88971 -46.87723 -19.24936 -19.24820 -19.19421
 Alpha  occ. eigenvalues --  -19.18635 -19.18612 -19.18387 -19.18275 -19.17406
 Alpha  occ. eigenvalues --  -14.42359 -14.42341 -14.42201 -14.41956 -14.40296
 Alpha  occ. eigenvalues --  -14.39751 -14.39195 -14.38998 -10.39146 -10.38311
 Alpha  occ. eigenvalues --  -10.34902 -10.34531 -10.34242 -10.33729 -10.31753
 Alpha  occ. eigenvalues --  -10.31658 -10.31612 -10.31594 -10.31533 -10.31228
 Alpha  occ. eigenvalues --  -10.31201 -10.31177 -10.31091 -10.31073 -10.30770
 Alpha  occ. eigenvalues --  -10.30497 -10.30192 -10.29892 -10.29418 -10.29123
 Alpha  occ. eigenvalues --  -10.29120 -10.29089 -10.29026 -10.28588 -10.28586
 Alpha  occ. eigenvalues --  -10.28583 -10.28573 -10.28434 -10.28383 -10.28316
 Alpha  occ. eigenvalues --  -10.28311 -10.28289 -10.28233 -10.28157 -10.28021
 Alpha  occ. eigenvalues --  -10.27994 -10.27856 -10.27768 -10.27708 -10.27617
 Alpha  occ. eigenvalues --  -10.27532 -10.27384 -10.27329 -10.27306 -10.27256
 Alpha  occ. eigenvalues --  -10.27235 -10.27233 -10.27166 -10.26824 -10.26809
 Alpha  occ. eigenvalues --  -10.26659 -10.26550 -10.26443 -10.26342 -10.26311
 Alpha  occ. eigenvalues --  -10.26229 -10.26220 -10.26194 -10.25767 -10.25661
 Alpha  occ. eigenvalues --  -10.25544 -10.25208 -10.25003 -10.24899 -10.24749
 Alpha  occ. eigenvalues --  -10.24672  -3.17460  -3.16507  -1.92363  -1.91924
 Alpha  occ. eigenvalues --   -1.91750  -1.91405  -1.90979  -1.90811  -1.17931
 Alpha  occ. eigenvalues --   -1.15512  -1.10087  -1.09868  -1.08872  -1.08536
 Alpha  occ. eigenvalues --   -1.07803  -1.06768  -1.05007  -1.04630  -1.03833
 Alpha  occ. eigenvalues --   -1.03737  -1.03370  -1.03022  -1.02586  -1.01599
 Alpha  occ. eigenvalues --   -0.92689  -0.92120  -0.90777  -0.89663  -0.89415
 Alpha  occ. eigenvalues --   -0.89074  -0.88819  -0.88379  -0.87741  -0.87691
 Alpha  occ. eigenvalues --   -0.87550  -0.87265  -0.86819  -0.86326  -0.85295
 Alpha  occ. eigenvalues --   -0.84635  -0.84568  -0.83886  -0.83513  -0.82977
 Alpha  occ. eigenvalues --   -0.82612  -0.82438  -0.81444  -0.81212  -0.80859
 Alpha  occ. eigenvalues --   -0.80629  -0.78687  -0.78379  -0.78015  -0.77360
 Alpha  occ. eigenvalues --   -0.77171  -0.76923  -0.76354  -0.76015  -0.75416
 Alpha  occ. eigenvalues --   -0.75330  -0.73485  -0.73437  -0.72068  -0.71490
 Alpha  occ. eigenvalues --   -0.69682  -0.69365  -0.69122  -0.68874  -0.68063
 Alpha  occ. eigenvalues --   -0.67843  -0.67565  -0.67190  -0.66486  -0.65977
 Alpha  occ. eigenvalues --   -0.65442  -0.65309  -0.64963  -0.64720  -0.64639
 Alpha  occ. eigenvalues --   -0.64404  -0.62346  -0.62082  -0.60767  -0.60461
 Alpha  occ. eigenvalues --   -0.60040  -0.59547  -0.59491  -0.59026  -0.58990
 Alpha  occ. eigenvalues --   -0.58554  -0.58373  -0.57946  -0.57713  -0.57455
 Alpha  occ. eigenvalues --   -0.56562  -0.56435  -0.56215  -0.55941  -0.55494
 Alpha  occ. eigenvalues --   -0.55179  -0.55128  -0.54692  -0.54489  -0.54376
 Alpha  occ. eigenvalues --   -0.54301  -0.53584  -0.53229  -0.53197  -0.52848
 Alpha  occ. eigenvalues --   -0.52804  -0.52589  -0.52542  -0.52379  -0.52327
 Alpha  occ. eigenvalues --   -0.52191  -0.52141  -0.51791  -0.51769  -0.51697
 Alpha  occ. eigenvalues --   -0.51354  -0.51316  -0.51258  -0.50465  -0.50339
 Alpha  occ. eigenvalues --   -0.50317  -0.50047  -0.50000  -0.49708  -0.49694
 Alpha  occ. eigenvalues --   -0.49503  -0.49416  -0.49291  -0.49180  -0.49172
 Alpha  occ. eigenvalues --   -0.48980  -0.48884  -0.48580  -0.48550  -0.48423
 Alpha  occ. eigenvalues --   -0.48187  -0.47807  -0.47637  -0.47371  -0.47176
 Alpha  occ. eigenvalues --   -0.47028  -0.46919  -0.46836  -0.46637  -0.46536
 Alpha  occ. eigenvalues --   -0.46405  -0.46341  -0.46239  -0.46062  -0.45775
 Alpha  occ. eigenvalues --   -0.45582  -0.45458  -0.45338  -0.45193  -0.44971
 Alpha  occ. eigenvalues --   -0.44960  -0.44630  -0.44612  -0.44518  -0.44399
 Alpha  occ. eigenvalues --   -0.44072  -0.43940  -0.43715  -0.43669  -0.43521
 Alpha  occ. eigenvalues --   -0.43471  -0.43277  -0.43274  -0.43093  -0.42994
 Alpha  occ. eigenvalues --   -0.42715  -0.42625  -0.42558  -0.42113  -0.42028
 Alpha  occ. eigenvalues --   -0.41685  -0.41642  -0.41582  -0.41550  -0.41360
 Alpha  occ. eigenvalues --   -0.41354  -0.41207  -0.41170  -0.41025  -0.40712
 Alpha  occ. eigenvalues --   -0.40536  -0.40279  -0.39237  -0.39226  -0.38917
 Alpha  occ. eigenvalues --   -0.38577  -0.38252  -0.37786  -0.37773  -0.37381
 Alpha  occ. eigenvalues --   -0.37245  -0.37019  -0.36576  -0.36429  -0.36383
 Alpha  occ. eigenvalues --   -0.36369  -0.36211  -0.34381  -0.34275  -0.33897
 Alpha  occ. eigenvalues --   -0.33762  -0.33168  -0.33058  -0.31487  -0.31413
 Alpha  occ. eigenvalues --   -0.30818  -0.30709  -0.30555  -0.30093  -0.29904
 Alpha  occ. eigenvalues --   -0.29801  -0.29682  -0.29467  -0.24337  -0.24162
 Alpha  occ. eigenvalues --   -0.21602  -0.21518
 Alpha virt. eigenvalues --   -0.09190  -0.09135  -0.02539  -0.01466   0.00219
 Alpha virt. eigenvalues --    0.00451   0.02320   0.02448   0.02645   0.03128
 Alpha virt. eigenvalues --    0.03960   0.04956   0.05382   0.05609   0.05624

 Mulliken charges:
               1
     1  Mg   0.816172
     2  C    0.061234
     3  C   -0.041665
     4  C   -0.115136
     5  C   -0.090267
     6  N   -0.274159
     7  C   -0.072748
     8  C    0.028866
     9  C   -0.105812
    10  C    0.020308
    11  C    0.061988
    12  C    0.063458
    13  C   -0.082006
    14  H    0.021006
    15  N   -0.454261
    16  C    0.183549
    17  C   -0.155332
    18  C   -0.020189
    19  C    0.249146
    20  C    0.148051
    21  C   -0.059493
    22  O   -0.208442
    23  C    0.069715
    24  N   -0.300498
    25  C    0.044368
    26  C   -0.028487
    27  C   -0.022930
    28  C    0.032531
    29  C    0.076691
    30  C    0.046782
    31  C    0.037618
    32  N   -0.321547
    33  C    0.100730
    34  C   -0.177383
    35  C    0.038626
    36  C    0.078151
    37  C    0.134544
    38  C    0.031025
    39  O   -0.149470
    40  C   -0.065447
    41  C    0.185949
    42  O   -0.240082
    43  O   -0.329711
    44  C    0.188638
    45  H   -0.024836
    46  H   -0.026358
    47  H   -0.025681
    48  H    0.025285
    49  H    0.016596
    50  H    0.016923
    51  H    0.029793
    52  H    0.009661
    53  H    0.028247
    54  H    0.029414
    55  H    0.041364
    56  H    0.033042
    57  H   -0.022649
    58  H    0.032602
    59  H    0.041473
    60  H    0.021153
    61  H    0.040177
    62  H    0.031086
    63  H    0.007631
    64  H    0.001099
    65  H    0.012576
    66  H    0.023934
    67  H    0.005989
    68  H    0.014925
    69  H   -0.004734
    70  H    0.004528
    71  H    0.009438
    72  H    0.011134
    73  H    0.014751
    74  H    0.043255
    75  H    0.028211
    76  H    0.023318
    77  H    0.040645
    78  H    0.029795
    79  H    0.032147
    80  Mg   0.849771
    81  C   -0.032488
    82  C   -0.104416
    83  C   -0.040372
    84  C   -0.102860
    85  N   -0.276951
    86  C   -0.073680
    87  C    0.019962
    88  C   -0.112798
    89  C    0.098268
    90  C    0.051744
    91  C    0.081267
    92  C   -0.091353
    93  H    0.011108
    94  N   -0.341445
    95  C    0.146694
    96  C   -0.163462
    97  C   -0.029823
    98  C    0.148808
    99  C    0.116813
   100  C   -0.008352
   101  O   -0.229829
   102  C    0.068408
   103  N   -0.320742
   104  C    0.008010
   105  C   -0.016763
   106  C   -0.037920
   107  C    0.071429
   108  C    0.076339
   109  C    0.018556
   110  C   -0.003802
   111  N   -0.375191
   112  C    0.118533
   113  C   -0.127305
   114  C    0.017296
   115  C    0.159522
   116  C    0.116655
   117  C    0.021895
   118  O   -0.183211
   119  C   -0.013600
   120  C    0.166751
   121  O   -0.221062
   122  O   -0.295139
   123  C    0.174575
   124  H   -0.025216
   125  H   -0.005933
   126  H   -0.029440
   127  H    0.009567
   128  H    0.016680
   129  H    0.019938
   130  H    0.019488
   131  H    0.012722
   132  H    0.015388
   133  H    0.006014
   134  H    0.041854
   135  H    0.035069
   136  H    0.018630
   137  H    0.033781
   138  H    0.033386
   139  H    0.029314
   140  H    0.043678
   141  H    0.024017
   142  H    0.010451
   143  H    0.001520
   144  H    0.018213
   145  H    0.006775
   146  H    0.034705
   147  H    0.004176
   148  H    0.008840
   149  H    0.014832
   150  H    0.026970
   151  H    0.007645
   152  H    0.024950
   153  H    0.031160
   154  H    0.022140
   155  H    0.035996
   156  H    0.024706
   157  H    0.038227
   158  H    0.049903
 Sum of Mulliken charges =  -0.00000

 Dipole moment (field-independent basis, Debye):
    X=             -0.4027    Y=              2.8137    Z=             -1.0406  Tot=              3.0269
 Quadrupole moment (field-independent basis, Debye-Ang):
   XX=           -432.1246   YY=           -565.3250   ZZ=           -493.7609
   XY=            -29.5104   XZ=             46.5125   YZ=            -21.7792

 Normal termination of Gaussian 16 at Wed Sep 15 14:56:52 2021.
