 Gaussian 16, Revision A.03,
 Gaussian 16:  ES64L-G16RevA.03 25-Dec-2016

 ----------------------------------------------------------
 #p cam-b3lyp/Def2SVP td=(nstates=5) density=(transition=1)
 ----------------------------------------------------------

 --------------------------------
 TDDFT excited states in gaussian
 --------------------------------
 Symbolic Z-matrix:
 Charge =  0 Multiplicity = 1

                         Standard orientation:
 ---------------------------------------------------------------------
 Center     Atomic      Atomic             Coordinates (Angstroms)
 Number     Number       Type             X           Y           Z
 ---------------------------------------------------------------------
      1         12           0      -31.076726   -0.550065   -0.231006
      2          6           0      -28.560844    1.800170   -0.285954
      3          6           0      -28.869120   -2.779645    1.117972
      4          6           0      -33.686631   -2.212406    0.925597
      5          6           0      -33.219538    1.881238   -1.581784
      6          7           0      -29.073697   -0.278016    0.758401
      7          6           0      -28.173578    0.670908    0.393244
      8          6           0      -26.781904    0.360853    0.859641
      9          6           0      -26.851245   -1.200386    0.887419
     10          6           0      -28.350646   -1.455401    0.844314
     11          6           0      -26.029300   -1.867537   -0.252460
     12          6           0      -26.480864    0.964043    2.322337
     13          6           0      -24.983169    1.470609    2.560650
     14          1           0      -24.397589    0.669919    3.697326
     15          7           0      -31.236248   -2.366806    0.700257
     16          6           0      -30.266943   -3.119030    1.266086
     17          6           0      -30.837713   -4.295380    1.909990
     18          6           0      -32.238782   -4.157576    1.830973
     19          6           0      -32.434876   -2.858312    1.128594
     20          6           0      -29.934871   -5.361132    2.577314
     21          6           0      -33.190556   -5.066740    2.557221
     22          8           0      -32.759537   -6.007047    3.172272
     23          6           0      -34.716353   -4.864181    2.624345
     24          7           0      -33.211120   -0.310731   -0.409473
     25          6           0      -34.021126   -1.094095    0.150925
     26          6           0      -35.432618   -0.643187    0.069217
     27          6           0      -35.314311    0.693648   -0.763145
     28          6           0      -33.860667    0.783499   -0.938047
     29          6           0      -36.365782   -1.759923   -0.509511
     30          6           0      -35.917657    1.947263    0.024318
     31          6           0      -36.281953    3.222912   -0.815521
     32          7           0      -30.965090    1.398349   -0.902272
     33          6           0      -31.897470    2.211869   -1.520142
     34          6           0      -31.280003    3.419574   -1.993581
     35          6           0      -29.913396    3.281622   -1.564991
     36          6           0      -29.816225    2.113303   -0.834104
     37          6           0      -31.917186    4.540189   -2.750264
     38          6           0      -28.637542    3.908604   -1.606814
     39          8           0      -28.195884    4.965182   -2.076531
     40          6           0      -27.754675    3.076280   -0.618986
     41          6           0      -26.436987    2.876089   -1.290407
     42          8           0      -25.444918    3.601370   -1.132367
     43          8           0      -26.510269    1.810642   -2.144668
     44          6           0      -25.201698    1.657144   -2.840330
     45          1           0      -28.225057   -3.607983    1.421696
     46          1           0      -34.524784   -2.751813    1.370435
     47          1           0      -33.908107    2.677525   -1.874654
     48          1           0      -26.149455    0.707591    0.043377
     49          1           0      -26.390601   -1.559507    1.807860
     50          1           0      -25.218197   -2.450466    0.182939
     51          1           0      -25.553423   -1.063979   -0.815495
     52          1           0      -26.727138   -2.428348   -0.873456
     53          1           0      -26.779540    0.346783    3.169482
     54          1           0      -27.108079    1.835538    2.507172
     55          1           0      -25.104051    2.496869    2.907784
     56          1           0      -24.294746    1.541274    1.718443
     57          1           0      -30.121179   -5.521368    3.639188
     58          1           0      -28.866983   -5.190488    2.436497
     59          1           0      -30.097956   -6.292266    2.035663
     60          1           0      -35.204803   -4.947758    1.654055
     61          1           0      -35.014088   -3.929990    3.101185
     62          1           0      -35.054201   -5.590166    3.364503
     63          1           0      -35.679714   -0.413183    1.105540
     64          1           0      -35.697013    0.705325   -1.783403
     65          1           0      -37.123936   -1.959597    0.247426
     66          1           0      -35.811588   -2.664943   -0.758974
     67          1           0      -37.014813   -1.424058   -1.318097
     68          1           0      -35.222123    2.271367    0.798744
     69          1           0      -36.810358    1.568515    0.519892
     70          1           0      -37.301282    3.607077   -0.842637
     71          1           0      -36.080583    3.054088   -1.872489
     72          1           0      -35.668255    4.067376   -0.501862
     73          1           0      -32.931709    4.372119   -3.111115
     74          1           0      -31.190139    4.640109   -3.555185
     75          1           0      -31.771258    5.351253   -2.036719
     76          1           0      -27.616551    3.539422    0.358594
     77          1           0      -25.062306    2.486369   -3.533181
     78          1           0      -25.188508    0.815155   -3.532450
     79          1           0      -24.430845    1.568298   -2.074544
     80         12           0       30.159391    0.370611    0.637834
     81          6           0       30.189982   -2.306277   -1.746058
     82          6           0       28.555270    2.229891   -1.541949
     83          6           0       30.943407    2.909960    2.618101
     84          6           0       32.275220   -1.800331    2.720864
     85          7           0       29.418270   -0.028817   -1.393787
     86          6           0       29.553449   -1.167461   -2.212788
     87          6           0       28.896063   -1.008899   -3.635756
     88          6           0       28.311748    0.522708   -3.450324
     89          6           0       28.751532    0.965984   -2.058528
     90          6           0       28.866324    1.517919   -4.557779
     91          6           0       27.839045   -2.100027   -4.025766
     92          6           0       26.915323   -1.743454   -5.184320
     93          1           0       27.106599   -2.603377   -6.447066
     94          7           0       29.707319    2.294888    0.590703
     95          6           0       28.996684    2.962796   -0.378736
     96          6           0       28.808595    4.362300   -0.059589
     97          6           0       29.521071    4.530692    1.193266
     98          6           0       30.040868    3.162543    1.549609
     99          6           0       28.017392    5.329993   -0.806546
    100          6           0       29.698135    5.767397    2.057030
    101          8           0       30.212207    5.762736    3.140278
    102          6           0       29.253190    7.053645    1.413183
    103          7           0       31.487098    0.548077    2.391638
    104          6           0       31.587204    1.739260    3.033638
    105          6           0       32.448908    1.607674    4.317875
    106          6           0       32.732819    0.066336    4.374476
    107          6           0       32.084963   -0.457669    3.107318
    108          6           0       33.758507    2.461476    4.420687
    109          6           0       32.176923   -0.693782    5.630032
    110          6           0       33.029375   -0.481966    6.900727
    111          7           0       31.084111   -1.589307    0.571601
    112          6           0       31.810036   -2.329470    1.476144
    113          6           0       31.995646   -3.627776    0.961624
    114          6           0       31.462474   -3.680561   -0.271455
    115          6           0       30.908319   -2.389123   -0.524242
    116          6           0       32.643763   -4.723056    1.798430
    117          6           0       31.232395   -4.439953   -1.504607
    118          8           0       31.550172   -5.562024   -1.803919
    119          6           0       30.398523   -3.524646   -2.522340
    120          6           0       31.306556   -3.189686   -3.662357
    121          8           0       32.113215   -2.300613   -3.816908
    122          8           0       31.013703   -4.130590   -4.629603
    123          6           0       31.758228   -4.036481   -5.907911
    124          1           0       28.071200    2.939358   -2.216153
    125          1           0       31.285973    3.806428    3.140491
    126          1           0       32.815573   -2.345555    3.498192
    127          1           0       29.702672   -0.937786   -4.365617
    128          1           0       27.229495    0.484489   -3.576474
    129          1           0       28.048560    2.134415   -4.930680
    130          1           0       29.414324    1.112509   -5.407913
    131          1           0       29.522847    2.259158   -4.103135
    132          1           0       27.346825   -2.232187   -3.061374
    133          1           0       28.189087   -3.112101   -4.230119
    134          1           0       27.079172   -0.702503   -5.461601
    135          1           0       25.891404   -1.982362   -4.898228
    136          1           0       27.237032    5.523451   -0.070568
    137          1           0       27.667517    4.908618   -1.749078
    138          1           0       28.477246    6.287062   -1.051992
    139          1           0       28.225027    7.265829    1.706062
    140          1           0       29.617824    7.181657    0.393576
    141          1           0       29.982300    7.773313    1.784377
    142          1           0       31.743991    1.725971    5.141335
    143          1           0       33.795906   -0.103663    4.202603
    144          1           0       34.687876    1.906900    4.553579
    145          1           0       33.671745    3.001126    5.363477
    146          1           0       33.940500    3.140542    3.587719
    147          1           0       32.171151   -1.764401    5.428573
    148          1           0       31.147092   -0.348575    5.731605
    149          1           0       34.040055   -0.172549    6.633773
    150          1           0       32.994813   -1.427607    7.441588
    151          1           0       32.673293    0.319025    7.549274
    152          1           0       32.302413   -5.710597    1.487841
    153          1           0       32.429892   -4.532764    2.850215
    154          1           0       33.730053   -4.643018    1.751935
    155          1           0       29.484375   -4.018330   -2.852911
    156          1           0       31.981954   -5.065275   -6.189823
    157          1           0       32.683004   -3.462834   -5.847916
    158          1           0       30.985930   -3.576729   -6.525364
 ---------------------------------------------------------------------

 SCF Done:  E(RCAM-B3LYP) =  -4069.80689858     A.U. after   19 cycles

 Excitation energies and oscillator strengths:

 Excited State   1:      Singlet-A      1.6890 eV  734.06 nm  f=0.3487  <S**2>=0.000
     309 -> 315       -0.16435
     311 -> 313        0.68784
     309 <- 315       -0.10171
 This state for optimization and/or second-order correction.
 Total Energy, E(TD-HF/TD-DFT) =  -4069.74482792
 Copying the excited state density for this state as the 1-particle RhoCI density.

 Excited State   2:      Singlet-A      1.6973 eV  730.49 nm  f=0.4082  <S**2>=0.000
     310 -> 316       -0.17772
     312 -> 314        0.68627
     310 <- 316       -0.10764

 Excited State   3:      Singlet-A      2.2114 eV  560.66 nm  f=0.1431  <S**2>=0.000
     310 -> 314        0.65031
     312 -> 316        0.26488

 Excited State   4:      Singlet-A      2.2121 eV  560.47 nm  f=0.1026  <S**2>=0.000
     309 -> 313        0.64076
     311 -> 315        0.27945

 Excited State   5:      Singlet-A      3.1529 eV  393.24 nm  f=0.0000  <S**2>=0.000
     312 -> 313        0.70711

 The electronic state is 1-A.
 Alpha  occ. eigenvalues --  -46.89233 -46.88561 -19.25572 -19.23832 -19.19912
 Alpha  occ. eigenvalues --  -19.19532 -19.19100 -19.19053 -19.18938 -19.17910
 Alpha  occ. eigenvalues --  -14.42180 -14.42123 -14.41917 -14.41311 -14.40320
 Alpha  occ. eigenvalues --  -14.39617 -14.38839 -14.38599 -10.38965 -10.38672
 Alpha  occ. eigenvalues --  -10.35766 -10.35258 -10.34760 -10.34082 -10.32326
 Alpha  occ. eigenvalues --  -10.31724 -10.31719 -10.31195 -10.30993 -10.30902
 Alpha  occ. eigenvalues --  -10.30855 -10.30691 -10.30358 -10.30262 -10.30179
 Alpha  occ. eigenvalues --  -10.30096 -10.30094 -10.29979 -10.29382 -10.29370
 Alpha  occ. eigenvalues --  -10.29079 -10.28897 -10.28848 -10.28796 -10.28753
 Alpha  occ. eigenvalues --  -10.28478 -10.28400 -10.28399 -10.28222 -10.28170
 Alpha  occ. eigenvalues --  -10.28048 -10.27859 -10.27789 -10.27740 -10.27699
 Alpha  occ. eigenvalues --  -10.27658 -10.27593 -10.27581 -10.27445 -10.27271
 Alpha  occ. eigenvalues --  -10.27178 -10.27174 -10.27004 -10.26984 -10.26932
 Alpha  occ. eigenvalues --  -10.26812 -10.26770 -10.26758 -10.26742 -10.26729
 Alpha  occ. eigenvalues --  -10.26695 -10.26680 -10.26665 -10.26624 -10.26594
 Alpha  occ. eigenvalues --  -10.26287 -10.26230 -10.26228 -10.26144 -10.25872
 Alpha  occ. eigenvalues --  -10.25700 -10.25590 -10.25555 -10.25539 -10.24697
 Alpha  occ. eigenvalues --  -10.24442  -3.17806  -3.17104  -1.92693  -1.92275
 Alpha  occ. eigenvalues --   -1.92097  -1.92000  -1.91540  -1.91428  -1.15960
 Alpha  occ. eigenvalues --   -1.15696  -1.11966  -1.11356  -1.10781  -1.08116
 Alpha  occ. eigenvalues --   -1.07457  -1.07061  -1.06438  -1.04601  -1.03947
 Alpha  occ. eigenvalues --   -1.03798  -1.03287  -1.02838  -1.02493  -1.01583
 Alpha  occ. eigenvalues --   -0.93005  -0.92508  -0.89741  -0.88921  -0.88699
 Alpha  occ. eigenvalues --   -0.88270  -0.88239  -0.88112  -0.87310  -0.87137
 Alpha  occ. eigenvalues --   -0.86888  -0.86835  -0.86638  -0.86012  -0.84310
 Alpha  occ. eigenvalues --   -0.83885  -0.83814  -0.83182  -0.82286  -0.82167
 Alpha  occ. eigenvalues --   -0.82039  -0.81839  -0.80925  -0.80700  -0.80356
 Alpha  occ. eigenvalues --   -0.80067  -0.78434  -0.78103  -0.77852  -0.76965
 Alpha  occ. eigenvalues --   -0.76818  -0.76633  -0.75983  -0.75534  -0.75502
 Alpha  occ. eigenvalues --   -0.74809  -0.72761  -0.72701  -0.72232  -0.71312
 Alpha  occ. eigenvalues --   -0.70497  -0.69633  -0.69324  -0.68740  -0.68162
 Alpha  occ. eigenvalues --   -0.67759  -0.67712  -0.66947  -0.66833  -0.65369
 Alpha  occ. eigenvalues --   -0.65034  -0.64862  -0.64599  -0.64471  -0.64404
 Alpha  occ. eigenvalues --   -0.63880  -0.62431  -0.61450  -0.60526  -0.60070
 Alpha  occ. eigenvalues --   -0.59633  -0.59464  -0.59194  -0.58812  -0.58810
 Alpha  occ. eigenvalues --   -0.58322  -0.57986  -0.57833  -0.57007  -0.56863
 Alpha  occ. eigenvalues --   -0.56702  -0.56220  -0.56119  -0.55759  -0.55681
 Alpha  occ. eigenvalues --   -0.55052  -0.54991  -0.54455  -0.54271  -0.54152
 Alpha  occ. eigenvalues --   -0.54120  -0.53650  -0.53600  -0.52957  -0.52671
 Alpha  occ. eigenvalues --   -0.52648  -0.52401  -0.52368  -0.51985  -0.51939
 Alpha  occ. eigenvalues --   -0.51711  -0.51611  -0.51327  -0.51243  -0.51194
 Alpha  occ. eigenvalues --   -0.50986  -0.50660  -0.50532  -0.50420  -0.50222
 Alpha  occ. eigenvalues --   -0.50180  -0.49927  -0.49791  -0.49700  -0.49665
 Alpha  occ. eigenvalues --   -0.49473  -0.49151  -0.49145  -0.48949  -0.48819
 Alpha  occ. eigenvalues --   -0.48634  -0.48396  -0.48349  -0.47959  -0.47802
 Alpha  occ. eigenvalues --   -0.47781  -0.47739  -0.47690  -0.47416  -0.47044
 Alpha  occ. eigenvalues --   -0.46934  -0.46823  -0.46745  -0.46329  -0.46295
 Alpha  occ. eigenvalues --   -0.46233  -0.45883  -0.45838  -0.45821  -0.45734
 Alpha  occ. eigenvalues --   -0.45437  -0.45387  -0.45290  -0.45166  -0.45114
 Alpha  occ. eigenvalues --   -0.45031  -0.44835  -0.44708  -0.44676  -0.44426
 Alpha  occ. eigenvalues --   -0.44307  -0.44218  -0.43992  -0.43970  -0.43802
 Alpha  occ. eigenvalues --   -0.43466  -0.43387  -0.43175  -0.43173  -0.42927
 Alpha  occ. eigenvalues --   -0.42749  -0.42616  -0.42540  -0.42196  -0.42062
 Alpha  occ. eigenvalues --   -0.41971  -0.41907  -0.41806  -0.41609  -0.41463
 Alpha  occ. eigenvalues --   -0.41171  -0.41106  -0.40937  -0.40774  -0.40766
 Alpha  occ. eigenvalues --   -0.40464  -0.40081  -0.39627  -0.39330  -0.38779
 Alpha  occ. eigenvalues --   -0.38632  -0.38294  -0.38092  -0.37743  -0.37718
 Alpha  occ. eigenvalues --   -0.37000  -0.36824  -0.36715  -0.36532  -0.36497
 Alpha  occ. eigenvalues --   -0.36332  -0.35724  -0.34975  -0.34629  -0.33927
 Alpha  occ. eigenvalues --   -0.33606  -0.33394  -0.32582  -0.31917  -0.31388
 Alpha  occ. eigenvalues --   -0.31302  -0.30821  -0.30606  -0.30559  -0.30100
 Alpha  occ. eigenvalues --   -0.30061  -0.29731  -0.28967  -0.24192  -0.23579
 Alpha  occ. eigenvalues --   -0.21171  -0.20951
 Alpha virt. eigenvalues --   -0.08807  -0.08523  -0.01809  -0.01120   0.00197
 Alpha virt. eigenvalues --    0.00891   0.01654   0.02351   0.02475   0.02685
 Alpha virt. eigenvalues --    0.04615   0.04955   0.05797   0.05861   0.05995

 Mulliken charges:
               1
     1  Mg  11.999640
     2  C    5.982286
     3  C    6.014687
     4  C    6.023760
     5  C    5.993661
     6  N    6.991719
     7  C    6.036638
     8  C    5.988815
     9  C    6.015025
    10  C    5.965597
    11  C    6.003373
    12  C    6.000848
    13  C    5.997887
    14  H    1.009236
    15  N    7.009900
    16  C    5.956207
    17  C    5.978280
    18  C    5.985954
    19  C    5.960722
    20  C    6.005566
    21  C    5.991920
    22  O    7.981387
    23  C    6.002219
    24  N    7.000956
    25  C    5.965382
    26  C    6.010011
    27  C    5.989120
    28  C    6.033706
    29  C    6.002980
    30  C    5.992475
    31  C    5.998751
    32  N    6.998518
    33  C    6.032534
    34  C    6.032933
    35  C    6.000113
    36  C    6.028498
    37  C    5.998623
    38  C    6.015050
    39  O    8.030191
    40  C    5.999076
    41  C    6.004287
    42  O    8.006848
    43  O    7.998746
    44  C    5.998672
    45  H    0.989670
    46  H    0.994131
    47  H    1.008961
    48  H    0.997088
    49  H    0.993850
    50  H    0.996052
    51  H    0.983645
    52  H    1.000379
    53  H    1.011674
    54  H    0.994564
    55  H    0.997697
    56  H    0.999472
    57  H    0.980699
    58  H    0.980772
    59  H    0.981160
    60  H    0.989211
    61  H    0.988654
    62  H    0.988649
    63  H    1.000835
    64  H    1.001211
    65  H    0.999241
    66  H    1.005705
    67  H    0.989901
    68  H    1.002842
    69  H    1.012906
    70  H    1.006208
    71  H    0.998227
    72  H    0.995918
    73  H    1.019738
    74  H    1.017338
    75  H    1.019512
    76  H    1.008633
    77  H    0.999781
    78  H    1.006680
    79  H    1.006201
    80  Mg  12.000015
    81  C    5.999423
    82  C    6.000282
    83  C    6.000391
    84  C    5.999696
    85  N    6.999796
    86  C    6.000620
    87  C    5.999699
    88  C    6.000278
    89  C    5.999455
    90  C    6.000008
    91  C    5.999978
    92  C    6.000005
    93  H    1.000003
    94  N    7.000137
    95  C    5.999204
    96  C    5.999753
    97  C    5.999631
    98  C    5.999459
    99  C    6.000151
   100  C    5.999733
   101  O    7.999491
   102  C    6.000170
   103  N    7.000020
   104  C    5.999360
   105  C    6.000235
   106  C    5.999804
   107  C    6.000569
   108  C    6.000009
   109  C    5.999888
   110  C    6.000022
   111  N    6.999947
   112  C    6.000691
   113  C    6.000433
   114  C    6.000017
   115  C    6.000803
   116  C    5.999941
   117  C    6.000362
   118  O    8.000501
   119  C    6.000150
   120  C    5.999970
   121  O    8.000138
   122  O    8.000025
   123  C    5.999959
   124  H    0.999809
   125  H    0.999912
   126  H    1.000221
   127  H    1.000098
   128  H    0.999904
   129  H    0.999982
   130  H    0.999785
   131  H    1.000106
   132  H    1.000032
   133  H    0.999923
   134  H    1.000123
   135  H    1.000051
   136  H    0.999664
   137  H    0.999646
   138  H    0.999614
   139  H    0.999791
   140  H    0.999871
   141  H    0.999720
   142  H    0.999987
   143  H    1.000001
   144  H    0.999836
   145  H    0.999982
   146  H    1.000074
   147  H    0.999911
   148  H    1.000164
   149  H    1.000052
   150  H    1.000012
   151  H    1.000128
   152  H    1.000289
   153  H    1.000330
   154  H    1.000393
   155  H    1.000155
   156  H    1.000054
   157  H    1.000056
   158  H    1.000104
 Sum of Mulliken charges = 624.00000

 Dipole moment (field-independent basis, Debye):
    X=              0.7233    Y=              9.4317    Z=             -4.4046  Tot=             10.4345
 Quadrupole moment (field-independent basis, Debye-Ang):
   XX=            -35.4178   YY=             -7.7984   ZZ=              0.5216
   XY=           -303.6578   XZ=            137.7963   YZ=              2.3501

 Normal termination of Gaussian 16 at Thu Sep 23 03:28:58 2021.
