 Gaussian 16, Revision A.03,
 Gaussian 16:  ES64L-G16RevA.03 25-Dec-2016

 -----------------------------------
 #p cam-b3lyp/Def2SVP td=(nstates=5)
 -----------------------------------

 --------------------------------
 TDDFT excited states in gaussian
 --------------------------------
 Symbolic Z-matrix:
 Charge =  0 Multiplicity = 1

                         Standard orientation:
 ---------------------------------------------------------------------
 Center     Atomic      Atomic             Coordinates (Angstroms)
 Number     Number       Type             X           Y           Z
 ---------------------------------------------------------------------
      1         12           0       25.312392   -0.629833    0.379138
      2          6           0       25.487820    1.921643   -1.876709
      3          6           0       24.137424    1.686469    2.780828
      4          6           0       25.345289   -3.055170    2.687794
      5          6           0       26.396507   -2.798747   -2.053819
      6          7           0       25.161670    1.580718    0.553276
      7          6           0       25.181670    2.407564   -0.577204
      8          6           0       24.834740    3.881959   -0.225413
      9          6           0       24.491533    3.697829    1.276752
     10          6           0       24.663676    2.225283    1.602796
     11          6           0       25.169192    4.592425    2.400360
     12          6           0       23.649352    4.555295   -1.047619
     13          6           0       23.373589    6.010304   -0.582445
     14          1           0       23.826172    7.063918   -1.594330
     15          7           0       24.749284   -0.677075    2.485286
     16          6           0       24.084979    0.320266    3.166269
     17          6           0       23.899074   -0.183678    4.521954
     18          6           0       24.263692   -1.567963    4.482556
     19          6           0       24.792937   -1.847663    3.184894
     20          6           0       23.337843    0.680125    5.584725
     21          6           0       24.220531   -2.500890    5.742862
     22          8           0       24.729779   -3.639471    5.777904
     23          6           0       23.604837   -2.004521    7.025058
     24          7           0       25.800341   -2.522919    0.337604
     25          6           0       25.752204   -3.400008    1.457505
     26          6           0       26.465537   -4.699060    1.158328
     27          6           0       26.326241   -4.729974   -0.362471
     28          6           0       26.109848   -3.275313   -0.754713
     29          6           0       27.957042   -4.701726    1.634413
     30          6           0       25.096740   -5.538020   -0.834355
     31          6           0       25.239133   -7.026795   -1.003938
     32          7           0       25.903282   -0.563384   -1.594933
     33          6           0       26.169564   -1.513769   -2.505405
     34          6           0       26.449612   -0.896907   -3.768297
     35          6           0       26.181525    0.444640   -3.597399
     36          6           0       25.805313    0.601533   -2.254345
     37          6           0       26.834491   -1.679785   -4.974907
     38          6           0       26.148067    1.672083   -4.271054
     39          8           0       26.361649    1.964202   -5.431842
     40          6           0       25.680853    2.720064   -3.155264
     41          6           0       26.717528    3.783265   -3.065072
     42          8           0       27.848530    3.666931   -2.660002
     43          8           0       26.207228    4.982730   -3.359616
     44          6           0       27.152880    6.159812   -3.252460
     45          1           0       23.635539    2.421355    3.413457
     46          1           0       25.355074   -3.857755    3.427991
     47          1           0       26.619783   -3.440912   -2.907938
     48          1           0       25.738434    4.482585   -0.329283
     49          1           0       23.424091    3.862097    1.427023
     50          1           0       24.534489    4.875674    3.240438
     51          1           0       25.723961    5.408644    1.937290
     52          1           0       25.892906    3.924087    2.866713
     53          1           0       22.822964    3.858902   -0.910816
     54          1           0       23.920338    4.546887   -2.103284
     55          1           0       23.769434    6.160733    0.421937
     56          1           0       22.290628    6.113195   -0.520419
     57          1           0       24.129708    0.877863    6.307439
     58          1           0       22.434297    0.176676    5.928626
     59          1           0       22.979553    1.621983    5.168983
     60          1           0       23.607134   -2.800573    7.769643
     61          1           0       22.553832   -1.861920    6.770031
     62          1           0       24.012038   -1.086344    7.447611
     63          1           0       25.969969   -5.541301    1.641971
     64          1           0       27.213221   -5.107104   -0.871118
     65          1           0       28.578258   -4.088861    0.982434
     66          1           0       28.338652   -5.722195    1.677121
     67          1           0       27.935881   -4.297604    2.645909
     68          1           0       24.661502   -5.149508   -1.754201
     69          1           0       24.264245   -5.362001   -0.152984
     70          1           0       24.514453   -7.486146   -0.332282
     71          1           0       26.209856   -7.231949   -0.552329
     72          1           0       25.191747   -7.372613   -2.036667
     73          1           0       25.962637   -1.862356   -5.601906
     74          1           0       27.440020   -2.576608   -4.840409
     75          1           0       27.470641   -1.009638   -5.553368
     76          1           0       24.730941    3.152578   -3.470270
     77          1           0       27.622362    6.101111   -2.270256
     78          1           0       26.645978    7.124121   -3.296581
     79          1           0       27.890622    6.065779   -4.049629
     80         12           0      -25.245574   -0.835453   -0.403624
     81          6           0      -26.360855    2.006251    1.625728
     82          6           0      -23.391402    1.488471   -2.257635
     83          6           0      -24.488441   -3.242488   -2.467725
     84          6           0      -26.990377   -2.947892    1.659187
     85          7           0      -25.081837    1.469804   -0.454485
     86          6           0      -25.516135    2.438985    0.544002
     87          6           0      -25.090954    3.889517    0.230324
     88          6           0      -24.296610    3.632049   -1.177948
     89          6           0      -24.239765    2.102448   -1.358654
     90          6           0      -24.909638    4.348038   -2.365746
     91          6           0      -24.276219    4.491348    1.415031
     92          6           0      -23.558739    5.773137    1.115491
     93          1           0      -23.597728    6.907111    2.115618
     94          7           0      -24.103361   -0.900709   -2.170649
     95          6           0      -23.407850    0.150993   -2.777915
     96          6           0      -22.690367   -0.345751   -3.950582
     97          6           0      -22.994231   -1.766011   -4.036972
     98          6           0      -23.901771   -2.065289   -2.868252
     99          6           0      -21.717870    0.510272   -4.842189
    100          6           0      -22.609088   -2.795311   -5.037569
    101          8           0      -22.910205   -3.979973   -4.977116
    102          6           0      -21.705198   -2.444275   -6.145777
    103          7           0      -25.585805   -2.770760   -0.360631
    104          6           0      -25.286051   -3.571972   -1.384598
    105          6           0      -25.729264   -5.034854   -1.148252
    106          6           0      -26.104580   -4.990120    0.318437
    107          6           0      -26.312701   -3.446427    0.570080
    108          6           0      -26.882103   -5.467430   -2.046790
    109          6           0      -25.243334   -5.584638    1.402516
    110          6           0      -23.883428   -4.934928    1.544139
    111          7           0      -26.512599   -0.571550    1.228170
    112          6           0      -27.076815   -1.577657    2.033069
    113          6           0      -27.812698   -0.957418    3.107144
    114          6           0      -27.459740    0.409942    2.971830
    115          6           0      -26.683192    0.612062    1.814953
    116          6           0      -28.573123   -1.612388    4.223080
    117          6           0      -27.634949    1.716919    3.677679
    118          8           0      -28.148359    1.986978    4.784485
    119          6           0      -26.953224    2.758263    2.792931
    120          6           0      -27.945225    3.864051    2.426214
    121          8           0      -29.010819    3.813575    1.743690
    122          8           0      -27.403636    5.039239    2.856302
    123          6           0      -28.171975    6.260396    2.524205
    124          1           0      -22.665420    2.172584   -2.699728
    125          1           0      -24.300724   -4.049623   -3.178818
    126          1           0      -27.588484   -3.556086    2.341135
    127          1           0      -26.022815    4.453100    0.185344
    128          1           0      -23.247723    3.895858   -1.042364
    129          1           0      -24.156752    5.008188   -2.797354
    130          1           0      -25.729130    4.947680   -1.971151
    131          1           0      -25.492733    3.752415   -3.067791
    132          1           0      -23.654566    3.674841    1.784040
    133          1           0      -24.961234    4.687454    2.239984
    134          1           0      -23.873118    6.320479    0.227149
    135          1           0      -22.488406    5.577547    1.057132
    136          1           0      -20.744900    0.032349   -4.724473
    137          1           0      -21.637367    1.549257   -4.522970
    138          1           0      -22.097329    0.434570   -5.861278
    139          1           0      -21.941298   -1.493021   -6.623165
    140          1           0      -21.849731   -3.256212   -6.857630
    141          1           0      -20.749019   -2.270831   -5.653014
    142          1           0      -24.868395   -5.666564   -1.367514
    143          1           0      -27.043600   -5.507564    0.516895
    144          1           0      -26.695484   -6.487980   -2.379085
    145          1           0      -26.960586   -4.826885   -2.924575
    146          1           0      -27.799927   -5.557501   -1.464655
    147          1           0      -25.195605   -6.661419    1.237832
    148          1           0      -25.664935   -5.387129    2.387945
    149          1           0      -23.085531   -5.671714    1.629356
    150          1           0      -23.792173   -4.342532    2.454821
    151          1           0      -23.601491   -4.295275    0.707709
    152          1           0      -28.229809   -1.218482    5.179362
    153          1           0      -28.569843   -2.696201    4.338748
    154          1           0      -29.620619   -1.340255    4.091804
    155          1           0      -26.181882    3.251688    3.384942
    156          1           0      -27.726470    6.751395    1.659268
    157          1           0      -28.090993    6.771424    3.483587
    158          1           0      -29.237641    6.062234    2.402404
 ---------------------------------------------------------------------

 SCF Done:  E(RCAM-B3LYP) =  -4069.84378859     A.U. after   19 cycles

 Excitation energies and oscillator strengths:

 Excited State   1:      Singlet-A      1.6534 eV  749.86 nm  f=0.3766  <S**2>=0.000
     309 -> 316       -0.16010
     312 -> 314        0.69068
     309 <- 316       -0.10386
 This state for optimization and/or second-order correction.
 Total Energy, E(TD-HF/TD-DFT) =  -4069.78302652
 Copying the excited state density for this state as the 1-particle RhoCI density.

 Excited State   2:      Singlet-A      1.6630 eV  745.55 nm  f=0.4132  <S**2>=0.000
     310 -> 315       -0.16579
     311 -> 313        0.68874
     310 <- 315       -0.10533

 Excited State   3:      Singlet-A      2.1713 eV  571.01 nm  f=0.1376  <S**2>=0.000
     310 -> 313        0.65261
     311 -> 315        0.25468

 Excited State   4:      Singlet-A      2.2510 eV  550.79 nm  f=0.1081  <S**2>=0.000
     309 -> 314        0.63838
     312 -> 316        0.28836

 Excited State   5:      Singlet-A      3.0341 eV  408.64 nm  f=0.0000  <S**2>=0.000
     312 -> 313        0.70711

 The electronic state is 1-A.
 Alpha  occ. eigenvalues --  -46.87778 -46.87537 -19.25780 -19.24950 -19.19654
 Alpha  occ. eigenvalues --  -19.19410 -19.18787 -19.18773 -19.18586 -19.18490
 Alpha  occ. eigenvalues --  -14.42754 -14.42522 -14.42187 -14.41775 -14.39980
 Alpha  occ. eigenvalues --  -14.38899 -14.38884 -14.38884 -10.39975 -10.38562
 Alpha  occ. eigenvalues --  -10.35247 -10.34975 -10.34760 -10.34671 -10.32325
 Alpha  occ. eigenvalues --  -10.32089 -10.31996 -10.31931 -10.31523 -10.31394
 Alpha  occ. eigenvalues --  -10.31391 -10.31116 -10.30715 -10.30639 -10.30598
 Alpha  occ. eigenvalues --  -10.30492 -10.30044 -10.29595 -10.29507 -10.29301
 Alpha  occ. eigenvalues --  -10.29286 -10.29027 -10.29015 -10.28986 -10.28979
 Alpha  occ. eigenvalues --  -10.28901 -10.28843 -10.28676 -10.28636 -10.28622
 Alpha  occ. eigenvalues --  -10.28613 -10.28514 -10.28274 -10.28131 -10.28092
 Alpha  occ. eigenvalues --  -10.27821 -10.27792 -10.27555 -10.27531 -10.27490
 Alpha  occ. eigenvalues --  -10.27408 -10.27403 -10.27401 -10.27151 -10.27030
 Alpha  occ. eigenvalues --  -10.26991 -10.26861 -10.26799 -10.26705 -10.26566
 Alpha  occ. eigenvalues --  -10.26385 -10.26306 -10.26199 -10.25920 -10.25867
 Alpha  occ. eigenvalues --  -10.25849 -10.25769 -10.25755 -10.25743 -10.25650
 Alpha  occ. eigenvalues --  -10.25610 -10.25560 -10.25133 -10.25051 -10.24726
 Alpha  occ. eigenvalues --  -10.24584  -3.16519  -3.16317  -1.91424  -1.91219
 Alpha  occ. eigenvalues --   -1.90985  -1.90821  -1.90788  -1.90615  -1.16945
 Alpha  occ. eigenvalues --   -1.16022  -1.10473  -1.10408  -1.08313  -1.07825
 Alpha  occ. eigenvalues --   -1.07175  -1.05783  -1.05475  -1.05074  -1.03957
 Alpha  occ. eigenvalues --   -1.03134  -1.02847  -1.02293  -1.01995  -1.00630
 Alpha  occ. eigenvalues --   -0.93368  -0.92329  -0.89716  -0.89117  -0.88883
 Alpha  occ. eigenvalues --   -0.88814  -0.88721  -0.88697  -0.87940  -0.87346
 Alpha  occ. eigenvalues --   -0.87206  -0.87024  -0.86603  -0.85904  -0.84794
 Alpha  occ. eigenvalues --   -0.84362  -0.84076  -0.84003  -0.82965  -0.82563
 Alpha  occ. eigenvalues --   -0.82324  -0.81616  -0.81444  -0.81248  -0.80670
 Alpha  occ. eigenvalues --   -0.80100  -0.78545  -0.78421  -0.77590  -0.77296
 Alpha  occ. eigenvalues --   -0.77252  -0.76835  -0.76246  -0.75990  -0.75522
 Alpha  occ. eigenvalues --   -0.75237  -0.73254  -0.72786  -0.71976  -0.71844
 Alpha  occ. eigenvalues --   -0.70322  -0.69481  -0.69471  -0.68992  -0.68351
 Alpha  occ. eigenvalues --   -0.67659  -0.67166  -0.66117  -0.65834  -0.65087
 Alpha  occ. eigenvalues --   -0.64988  -0.64686  -0.64657  -0.64352  -0.64221
 Alpha  occ. eigenvalues --   -0.63846  -0.62118  -0.61964  -0.60286  -0.60252
 Alpha  occ. eigenvalues --   -0.60027  -0.59186  -0.59151  -0.59105  -0.58916
 Alpha  occ. eigenvalues --   -0.58361  -0.58347  -0.58053  -0.57742  -0.57425
 Alpha  occ. eigenvalues --   -0.56586  -0.56305  -0.56118  -0.56012  -0.55506
 Alpha  occ. eigenvalues --   -0.55324  -0.55059  -0.54829  -0.54791  -0.54314
 Alpha  occ. eigenvalues --   -0.54282  -0.53499  -0.53486  -0.53385  -0.53098
 Alpha  occ. eigenvalues --   -0.52972  -0.52752  -0.52749  -0.52521  -0.52321
 Alpha  occ. eigenvalues --   -0.52153  -0.51798  -0.51704  -0.51362  -0.51170
 Alpha  occ. eigenvalues --   -0.50857  -0.50757  -0.50410  -0.50407  -0.50285
 Alpha  occ. eigenvalues --   -0.50210  -0.50019  -0.49937  -0.49817  -0.49767
 Alpha  occ. eigenvalues --   -0.49545  -0.49310  -0.48979  -0.48865  -0.48835
 Alpha  occ. eigenvalues --   -0.48796  -0.48569  -0.48473  -0.48296  -0.48117
 Alpha  occ. eigenvalues --   -0.48102  -0.47776  -0.47742  -0.47590  -0.47535
 Alpha  occ. eigenvalues --   -0.47156  -0.47044  -0.46961  -0.46781  -0.46555
 Alpha  occ. eigenvalues --   -0.46545  -0.46490  -0.46177  -0.46068  -0.46024
 Alpha  occ. eigenvalues --   -0.45890  -0.45725  -0.45533  -0.45465  -0.45308
 Alpha  occ. eigenvalues --   -0.44967  -0.44730  -0.44558  -0.44378  -0.44261
 Alpha  occ. eigenvalues --   -0.44205  -0.43999  -0.43786  -0.43748  -0.43591
 Alpha  occ. eigenvalues --   -0.43513  -0.43370  -0.43207  -0.42881  -0.42657
 Alpha  occ. eigenvalues --   -0.42528  -0.42224  -0.42040  -0.41874  -0.41842
 Alpha  occ. eigenvalues --   -0.41780  -0.41661  -0.41587  -0.41228  -0.41159
 Alpha  occ. eigenvalues --   -0.40979  -0.40913  -0.40674  -0.40486  -0.40447
 Alpha  occ. eigenvalues --   -0.40078  -0.39978  -0.39857  -0.39253  -0.39129
 Alpha  occ. eigenvalues --   -0.38918  -0.38473  -0.38097  -0.37512  -0.37356
 Alpha  occ. eigenvalues --   -0.37153  -0.36968  -0.36790  -0.36699  -0.36601
 Alpha  occ. eigenvalues --   -0.36545  -0.36134  -0.34328  -0.34252  -0.34120
 Alpha  occ. eigenvalues --   -0.34043  -0.33312  -0.33093  -0.31537  -0.31495
 Alpha  occ. eigenvalues --   -0.31294  -0.31279  -0.30684  -0.30511  -0.30424
 Alpha  occ. eigenvalues --   -0.30341  -0.29196  -0.29131  -0.24642  -0.24274
 Alpha  occ. eigenvalues --   -0.21501  -0.21150
 Alpha virt. eigenvalues --   -0.09317  -0.09104  -0.01685  -0.01580   0.00306
 Alpha virt. eigenvalues --    0.00374   0.02166   0.02325   0.03344   0.03381
 Alpha virt. eigenvalues --    0.04486   0.04623   0.05136   0.05329   0.05712

 Mulliken charges:
               1
     1  Mg   0.828545
     2  C    0.007416
     3  C   -0.059506
     4  C   -0.069207
     5  C   -0.093562
     6  N   -0.267921
     7  C   -0.051167
     8  C    0.020216
     9  C   -0.103948
    10  C    0.038324
    11  C    0.063714
    12  C    0.034977
    13  C   -0.056562
    14  H    0.031809
    15  N   -0.358571
    16  C    0.139178
    17  C   -0.203020
    18  C   -0.035943
    19  C    0.110408
    20  C    0.139561
    21  C    0.019215
    22  O   -0.225603
    23  C    0.056047
    24  N   -0.391531
    25  C    0.083591
    26  C   -0.019362
    27  C   -0.020636
    28  C    0.118469
    29  C    0.088233
    30  C   -0.004930
    31  C    0.053334
    32  N   -0.339583
    33  C    0.089602
    34  C   -0.168131
    35  C    0.069280
    36  C    0.103953
    37  C    0.107992
    38  C    0.017656
    39  O   -0.153782
    40  C   -0.052429
    41  C    0.180650
    42  O   -0.217031
    43  O   -0.331562
    44  C    0.179180
    45  H   -0.027514
    46  H   -0.006587
    47  H   -0.026943
    48  H    0.017591
    49  H    0.009437
    50  H    0.020282
    51  H    0.021753
    52  H    0.015409
    53  H    0.010947
    54  H    0.033006
    55  H    0.030022
    56  H    0.029300
    57  H    0.042935
    58  H    0.027690
    59  H    0.001084
    60  H    0.024421
    61  H    0.024836
    62  H    0.039987
    63  H    0.000241
    64  H   -0.003808
    65  H    0.020454
    66  H    0.019252
    67  H    0.019164
    68  H   -0.002536
    69  H   -0.003887
    70  H    0.012705
    71  H   -0.002468
    72  H    0.028756
    73  H    0.038329
    74  H    0.023680
    75  H    0.027426
    76  H    0.043173
    77  H    0.041493
    78  H    0.041632
    79  H    0.051375
    80  Mg   0.833763
    81  C   -0.021276
    82  C   -0.080166
    83  C   -0.082767
    84  C   -0.070305
    85  N   -0.301391
    86  C   -0.047354
    87  C   -0.021591
    88  C   -0.058515
    89  C    0.064040
    90  C    0.100735
    91  C    0.032557
    92  C   -0.071167
    93  H    0.011793
    94  N   -0.386349
    95  C    0.147005
    96  C   -0.156161
    97  C   -0.010732
    98  C    0.125032
    99  C    0.113800
   100  C   -0.027310
   101  O   -0.211682
   102  C    0.063954
   103  N   -0.345430
   104  C    0.087696
   105  C   -0.030107
   106  C   -0.026327
   107  C    0.096077
   108  C    0.087956
   109  C    0.059798
   110  C   -0.013216
   111  N   -0.360276
   112  C    0.064897
   113  C   -0.139135
   114  C   -0.053522
   115  C    0.135973
   116  C    0.107473
   117  C    0.083471
   118  O   -0.200394
   119  C    0.008571
   120  C    0.216123
   121  O   -0.257632
   122  O   -0.336369
   123  C    0.163760
   124  H   -0.033260
   125  H   -0.005307
   126  H   -0.025192
   127  H    0.025825
   128  H    0.008727
   129  H    0.023464
   130  H    0.000247
   131  H    0.025565
   132  H    0.009571
   133  H    0.036935
   134  H    0.030381
   135  H    0.032688
   136  H    0.039133
   137  H    0.020296
   138  H    0.045789
   139  H    0.005840
   140  H    0.040886
   141  H    0.037698
   142  H    0.013761
   143  H   -0.013263
   144  H    0.012826
   145  H    0.026535
   146  H    0.015547
   147  H    0.009189
   148  H    0.004006
   149  H    0.005184
   150  H    0.012486
   151  H    0.021964
   152  H    0.039108
   153  H    0.005117
   154  H    0.032624
   155  H    0.049789
   156  H    0.048527
   157  H    0.042670
   158  H    0.059348
 Sum of Mulliken charges =  -0.00000

 Dipole moment (field-independent basis, Debye):
    X=              1.2749    Y=              2.9285    Z=             -1.1235  Tot=              3.3858
 Quadrupole moment (field-independent basis, Debye-Ang):
   XX=           -884.3795   YY=           -462.2043   ZZ=           -542.6974
   XY=             20.4993   XZ=            120.9647   YZ=              4.4161

 Normal termination of Gaussian 16 at Thu Sep  2 09:10:48 2021.
