 Gaussian 16, Revision A.03,
 Gaussian 16:  ES64L-G16RevA.03 25-Dec-2016

 ----------------------------------------------------------
 #p cam-b3lyp/Def2SVP td=(nstates=5) density=(transition=1)
 ----------------------------------------------------------

 --------------------------------
 TDDFT excited states in gaussian
 --------------------------------
 Symbolic Z-matrix:
 Charge =  0 Multiplicity = 1

                         Standard orientation:
 ---------------------------------------------------------------------
 Center     Atomic      Atomic             Coordinates (Angstroms)
 Number     Number       Type             X           Y           Z
 ---------------------------------------------------------------------
      1         12           0        4.900344    0.539256    0.278546
      2          6           0        2.859227   -2.074523    1.137362
      3          6           0        7.396166   -1.598540   -0.353961
      4          6           0        6.851827    3.226882   -0.297241
      5          6           0        2.330244    2.814571    1.477212
      6          7           0        5.157010   -1.629720    0.654769
      7          6           0        4.178454   -2.511793    0.891280
      8          6           0        4.742387   -4.022403    0.815586
      9          6           0        6.208405   -3.738191    0.316591
     10          6           0        6.315486   -2.202691    0.224030
     11          6           0        7.295462   -4.432248    1.160120
     12          6           0        3.929945   -4.949023   -0.132901
     13          6           0        4.569867   -6.307053   -0.570128
     14          1           0        4.047844   -7.620307    0.127114
     15          7           0        6.889556    0.780625   -0.211082
     16          6           0        7.718009   -0.193133   -0.526409
     17          6           0        8.986999    0.390526   -0.934074
     18          6           0        8.923352    1.812738   -0.831436
     19          6           0        7.509687    1.997541   -0.436264
     20          6           0       10.254093   -0.386285   -1.251388
     21          6           0       10.002207    2.874311   -1.019077
     22          8           0        9.841840    4.019746   -0.607628
     23          6           0       11.265326    2.496414   -1.710352
     24          7           0        4.633448    2.718716    0.599585
     25          6           0        5.566618    3.590090    0.235279
     26          6           0        5.066424    5.041700    0.319764
     27          6           0        3.598509    4.817847    0.673631
     28          6           0        3.536398    3.364850    0.964621
     29          6           0        5.809127    6.007424    1.255087
     30          6           0        2.628310    5.428952   -0.305460
     31          6           0        1.699408    6.564180    0.255278
     32          7           0        3.015342    0.440388    1.063745
     33          6           0        2.040812    1.427718    1.431793
     34          6           0        0.780682    0.811788    1.785006
     35          6           0        1.109022   -0.565795    1.649146
     36          6           0        2.437778   -0.718399    1.233582
     37          6           0       -0.563491    1.392552    2.049992
     38          6           0        0.437388   -1.840710    1.628710
     39          8           0       -0.750510   -2.193687    1.675170
     40          6           0        1.496050   -2.897559    1.435929
     41          6           0        1.687846   -3.644738    2.774146
     42          8           0        1.741900   -3.156207    3.913199
     43          8           0        1.800443   -4.973318    2.489997
     44          6           0        1.959225   -5.920244    3.638938
     45          1           0        8.243951   -2.188333   -0.708760
     46          1           0        7.458559    4.134240   -0.265012
     47          1           0        1.561319    3.559551    1.689554
     48          1           0        4.731141   -4.353672    1.853333
     49          1           0        6.278254   -4.095645   -0.710735
     50          1           0        8.023389   -4.842130    0.460809
     51          1           0        6.897196   -5.274937    1.725344
     52          1           0        7.770792   -3.725487    1.840414
     53          1           0        3.884938   -4.412005   -1.080350
     54          1           0        2.967393   -5.190876    0.317625
     55          1           0        5.613833   -6.277510   -0.256406
     56          1           0        4.410054   -6.438847   -1.639709
     57          1           0       10.092145   -1.461192   -1.171399
     58          1           0       11.040749   -0.102707   -0.552628
     59          1           0       10.621374   -0.171785   -2.254177
     60          1           0       10.948783    1.986464   -2.620647
     61          1           0       12.020902    1.854536   -1.258385
     62          1           0       11.875142    3.359011   -1.976789
     63          1           0        5.135213    5.470889   -0.679236
     64          1           0        3.412439    5.337508    1.613374
     65          1           0        5.830136    6.945221    0.700484
     66          1           0        6.785451    5.605608    1.525685
     67          1           0        5.358968    6.113352    2.242071
     68          1           0        1.952691    4.607395   -0.541408
     69          1           0        3.105493    5.843468   -1.193009
     70          1           0        1.897489    6.717286    1.316473
     71          1           0        0.670362    6.219288    0.149636
     72          1           0        1.721075    7.503082   -0.298164
     73          1           0       -0.566664    2.455573    1.810445
     74          1           0       -0.682669    1.349832    3.132001
     75          1           0       -1.243915    0.813464    1.423998
     76          1           0        1.085591   -3.546412    0.661996
     77          1           0        2.695192   -5.623368    4.386544
     78          1           0        2.158297   -6.951187    3.348184
     79          1           0        1.008308   -5.888388    4.170496
     80         12           0       -4.906344    0.557526   -0.293515
     81          6           0       -2.735382   -1.968216   -1.366917
     82          6           0       -7.314125   -1.786582    0.329667
     83          6           0       -7.006853    3.023019    0.377605
     84          6           0       -2.366988    2.915713   -1.169328
     85          7           0       -4.998120   -1.641500   -0.553592
     86          6           0       -3.997903   -2.507401   -0.936312
     87          6           0       -4.399142   -3.942795   -0.650642
     88          6           0       -5.952362   -3.830792   -0.384484
     89          6           0       -6.053834   -2.293548   -0.099289
     90          6           0       -6.807747   -4.257590   -1.570603
     91          6           0       -3.460980   -4.553088    0.453564
     92          6           0       -3.929818   -5.944504    0.962360
     93          1           0       -4.680276   -6.812496   -0.026248
     94          7           0       -6.814841    0.605695    0.272007
     95          6           0       -7.702965   -0.456784    0.382464
     96          6           0       -9.058225   -0.000345    0.737597
     97          6           0       -8.932765    1.422216    0.785182
     98          6           0       -7.542505    1.730402    0.460598
     99          6           0      -10.182796   -0.927551    1.010282
    100          6           0      -10.036113    2.400765    1.095071
    101          8           0       -9.827493    3.643915    1.161102
    102          6           0      -11.428112    1.931334    1.420720
    103          7           0       -4.683383    2.691139   -0.333417
    104          6           0       -5.732910    3.442736   -0.000066
    105          6           0       -5.407836    4.983175   -0.235649
    106          6           0       -3.876291    4.949611   -0.790796
    107          6           0       -3.622921    3.441482   -0.782283
    108          6           0       -6.467482    5.570193   -1.255677
    109          6           0       -2.820283    5.674306    0.148786
    110          6           0       -2.656700    7.205701   -0.071021
    111          7           0       -3.010261    0.556695   -1.145220
    112          6           0       -2.028247    1.562699   -1.344813
    113          6           0       -0.736357    0.921931   -1.850481
    114          6           0       -0.982956   -0.443912   -1.946229
    115          6           0       -2.362611   -0.619188   -1.424981
    116          6           0        0.567481    1.595344   -2.144464
    117          6           0       -0.432241   -1.743127   -2.253534
    118          8           0        0.675030   -2.096191   -2.671493
    119          6           0       -1.493766   -2.825028   -1.714277
    120          6           0       -1.779486   -3.916205   -2.720519
    121          8           0       -2.611411   -3.834685   -3.583382
    122          8           0       -1.120774   -5.116754   -2.371260
    123          6           0       -1.633303   -6.362541   -2.961220
    124          1           0       -7.985381   -2.642298    0.431386
    125          1           0       -7.709530    3.832844    0.585436
    126          1           0       -1.590386    3.580602   -1.553338
    127          1           0       -4.214435   -4.519321   -1.556173
    128          1           0       -6.315307   -4.341917    0.507799
    129          1           0       -7.459571   -5.045286   -1.193066
    130          1           0       -6.145839   -4.530421   -2.392196
    131          1           0       -7.548176   -3.507895   -1.848550
    132          1           0       -3.331651   -3.698858    1.117414
    133          1           0       -2.489605   -4.664162   -0.027131
    134          1           0       -4.551697   -5.693549    1.821702
    135          1           0       -3.048081   -6.500110    1.281326
    136          1           0      -10.878144   -0.692430    0.204667
    137          1           0      -10.604593   -0.811127    2.008240
    138          1           0      -10.023938   -2.003336    0.925481
    139          1           0      -11.398470    1.351792    2.342388
    140          1           0      -11.624681    1.373536    0.504273
    141          1           0      -12.197171    2.700579    1.485095
    142          1           0       -5.472010    5.346293    0.790823
    143          1           0       -3.720833    5.145852   -1.852508
    144          1           0       -7.190415    4.843297   -1.625538
    145          1           0       -5.955097    5.974910   -2.128882
    146          1           0       -7.048778    6.293267   -0.684287
    147          1           0       -1.878630    5.129553    0.210589
    148          1           0       -3.215561    5.578577    1.159548
    149          1           0       -2.834293    7.679506    0.893769
    150          1           0       -3.331190    7.513796   -0.870027
    151          1           0       -1.644729    7.469056   -0.379609
    152          1           0        1.242193    1.312624   -1.336128
    153          1           0        0.430037    2.675831   -2.201235
    154          1           0        1.095984    1.306610   -3.052751
    155          1           0       -1.067462   -3.230580   -0.797188
    156          1           0       -1.237116   -6.371486   -3.976281
    157          1           0       -2.715214   -6.429258   -2.844913
    158          1           0       -1.228974   -7.172300   -2.354432
 ---------------------------------------------------------------------

 SCF Done:  E(RCAM-B3LYP) =  -4069.83459612     A.U. after   19 cycles

 Excitation energies and oscillator strengths:

 Excited State   1:      Singlet-A      1.6668 eV  743.86 nm  f=0.9049  <S**2>=0.000
     310 -> 316       -0.11949
     311 -> 313        0.45012
     312 -> 314        0.51337
 This state for optimization and/or second-order correction.
 Total Energy, E(TD-HF/TD-DFT) =  -4069.77334332
 Copying the excited state density for this state as the 1-particle RhoCI density.

 Excited State   2:      Singlet-A      1.7389 eV  712.98 nm  f=0.0135  <S**2>=0.000
     309 -> 315       -0.13045
     310 -> 316        0.13188
     311 -> 313        0.51426
     312 -> 314       -0.44055

 Excited State   3:      Singlet-A      2.0422 eV  607.11 nm  f=0.0004  <S**2>=0.000
     312 -> 313        0.69832

 Excited State   4:      Singlet-A      2.2492 eV  551.23 nm  f=0.0582  <S**2>=0.000
     309 -> 313        0.60362
     310 -> 313        0.12545
     310 -> 314        0.17227
     311 -> 315        0.24072
     311 -> 316       -0.10354

 Excited State   5:      Singlet-A      2.2839 eV  542.87 nm  f=0.0645  <S**2>=0.000
     309 -> 313       -0.18812
     310 -> 314        0.55895
     312 -> 315        0.15098
     312 -> 316        0.33028

 The electronic state is 1-A.
 Alpha  occ. eigenvalues --  -46.89060 -46.87536 -19.25698 -19.23511 -19.19768
 Alpha  occ. eigenvalues --  -19.19537 -19.19488 -19.18851 -19.18229 -19.18016
 Alpha  occ. eigenvalues --  -14.42012 -14.41572 -14.41547 -14.41121 -14.39998
 Alpha  occ. eigenvalues --  -14.39480 -14.39391 -14.39241 -10.39629 -10.38853
 Alpha  occ. eigenvalues --  -10.36044 -10.35114 -10.34876 -10.33705 -10.32303
 Alpha  occ. eigenvalues --  -10.31500 -10.31384 -10.30851 -10.30469 -10.30382
 Alpha  occ. eigenvalues --  -10.30351 -10.30266 -10.30261 -10.30171 -10.29965
 Alpha  occ. eigenvalues --  -10.29946 -10.29885 -10.29868 -10.29791 -10.29628
 Alpha  occ. eigenvalues --  -10.28981 -10.28920 -10.28789 -10.28735 -10.28675
 Alpha  occ. eigenvalues --  -10.28665 -10.28552 -10.28117 -10.28105 -10.28041
 Alpha  occ. eigenvalues --  -10.28002 -10.27951 -10.27941 -10.27711 -10.27536
 Alpha  occ. eigenvalues --  -10.27498 -10.27490 -10.27424 -10.27217 -10.27139
 Alpha  occ. eigenvalues --  -10.27022 -10.27018 -10.26946 -10.26864 -10.26584
 Alpha  occ. eigenvalues --  -10.26460 -10.26457 -10.26445 -10.26397 -10.26365
 Alpha  occ. eigenvalues --  -10.26256 -10.26243 -10.26233 -10.26106 -10.26004
 Alpha  occ. eigenvalues --  -10.25988 -10.25941 -10.25901 -10.25777 -10.25660
 Alpha  occ. eigenvalues --  -10.25505 -10.25445 -10.25338 -10.25204 -10.24703
 Alpha  occ. eigenvalues --  -10.24375  -3.17586  -3.16219  -1.92475  -1.92035
 Alpha  occ. eigenvalues --   -1.91902  -1.91122  -1.90660  -1.90552  -1.15640
 Alpha  occ. eigenvalues --   -1.14966  -1.10337  -1.08771  -1.08431  -1.07436
 Alpha  occ. eigenvalues --   -1.07283  -1.06639  -1.05683  -1.04290  -1.03795
 Alpha  occ. eigenvalues --   -1.03741  -1.02987  -1.02846  -1.02352  -1.00884
 Alpha  occ. eigenvalues --   -0.91238  -0.90961  -0.89944  -0.88500  -0.88489
 Alpha  occ. eigenvalues --   -0.88070  -0.87716  -0.87544  -0.87484  -0.87101
 Alpha  occ. eigenvalues --   -0.87039  -0.86906  -0.86323  -0.85916  -0.84067
 Alpha  occ. eigenvalues --   -0.83582  -0.83368  -0.82602  -0.82305  -0.82022
 Alpha  occ. eigenvalues --   -0.81772  -0.81508  -0.81059  -0.80263  -0.79954
 Alpha  occ. eigenvalues --   -0.79509  -0.78527  -0.78449  -0.77566  -0.77090
 Alpha  occ. eigenvalues --   -0.76591  -0.76389  -0.76014  -0.75264  -0.75190
 Alpha  occ. eigenvalues --   -0.74143  -0.72550  -0.71607  -0.71593  -0.70987
 Alpha  occ. eigenvalues --   -0.69494  -0.68987  -0.68753  -0.68439  -0.67714
 Alpha  occ. eigenvalues --   -0.67652  -0.67422  -0.66553  -0.65841  -0.65272
 Alpha  occ. eigenvalues --   -0.64839  -0.64523  -0.64295  -0.63749  -0.63353
 Alpha  occ. eigenvalues --   -0.63127  -0.62675  -0.60786  -0.60679  -0.60217
 Alpha  occ. eigenvalues --   -0.59592  -0.58972  -0.58807  -0.58595  -0.58142
 Alpha  occ. eigenvalues --   -0.57928  -0.57571  -0.57054  -0.56963  -0.56398
 Alpha  occ. eigenvalues --   -0.56216  -0.55744  -0.55548  -0.55373  -0.55095
 Alpha  occ. eigenvalues --   -0.54502  -0.54162  -0.54061  -0.53745  -0.53599
 Alpha  occ. eigenvalues --   -0.53440  -0.53332  -0.53271  -0.52761  -0.52726
 Alpha  occ. eigenvalues --   -0.52600  -0.52292  -0.52188  -0.51900  -0.51620
 Alpha  occ. eigenvalues --   -0.51575  -0.51388  -0.51287  -0.51044  -0.50875
 Alpha  occ. eigenvalues --   -0.50634  -0.50566  -0.50424  -0.50411  -0.50068
 Alpha  occ. eigenvalues --   -0.49849  -0.49800  -0.49702  -0.49655  -0.49346
 Alpha  occ. eigenvalues --   -0.49011  -0.48990  -0.48972  -0.48920  -0.48769
 Alpha  occ. eigenvalues --   -0.48595  -0.48580  -0.48403  -0.48211  -0.48040
 Alpha  occ. eigenvalues --   -0.47936  -0.47616  -0.47613  -0.47392  -0.47219
 Alpha  occ. eigenvalues --   -0.46972  -0.46872  -0.46440  -0.46228  -0.46071
 Alpha  occ. eigenvalues --   -0.45920  -0.45741  -0.45589  -0.45214  -0.45153
 Alpha  occ. eigenvalues --   -0.44936  -0.44877  -0.44733  -0.44687  -0.44545
 Alpha  occ. eigenvalues --   -0.44430  -0.44336  -0.44157  -0.44041  -0.44018
 Alpha  occ. eigenvalues --   -0.43690  -0.43670  -0.43614  -0.43373  -0.43043
 Alpha  occ. eigenvalues --   -0.42875  -0.42643  -0.42624  -0.42588  -0.42254
 Alpha  occ. eigenvalues --   -0.42160  -0.42086  -0.42008  -0.41925  -0.41865
 Alpha  occ. eigenvalues --   -0.41807  -0.41584  -0.41448  -0.41220  -0.41049
 Alpha  occ. eigenvalues --   -0.40838  -0.40760  -0.40456  -0.40298  -0.40135
 Alpha  occ. eigenvalues --   -0.39579  -0.39310  -0.38957  -0.38842  -0.38318
 Alpha  occ. eigenvalues --   -0.38124  -0.38035  -0.37792  -0.37554  -0.37478
 Alpha  occ. eigenvalues --   -0.37002  -0.36599  -0.36084  -0.35982  -0.35833
 Alpha  occ. eigenvalues --   -0.35760  -0.35324  -0.34227  -0.34003  -0.33979
 Alpha  occ. eigenvalues --   -0.33684  -0.33289  -0.32683  -0.31916  -0.31024
 Alpha  occ. eigenvalues --   -0.30872  -0.30535  -0.30515  -0.30373  -0.30142
 Alpha  occ. eigenvalues --   -0.30121  -0.29624  -0.29445  -0.23806  -0.23440
 Alpha  occ. eigenvalues --   -0.21051  -0.19935
 Alpha virt. eigenvalues --   -0.08518  -0.07422  -0.01720  -0.01599   0.00134
 Alpha virt. eigenvalues --    0.00654   0.02240   0.02383   0.02729   0.04168
 Alpha virt. eigenvalues --    0.05033   0.05159   0.05608   0.05705   0.06246

 Mulliken charges:
               1
     1  Mg  11.996933
     2  C    6.010584
     3  C    5.982256
     4  C    5.993576
     5  C    6.007692
     6  N    6.999852
     7  C    5.979364
     8  C    6.005698
     9  C    5.992434
    10  C    6.023605
    11  C    5.998501
    12  C    6.002672
    13  C    5.997972
    14  H    1.003835
    15  N    6.995915
    16  C    6.031804
    17  C    6.012827
    18  C    6.012223
    19  C    6.023231
    20  C    5.996322
    21  C    6.009694
    22  O    8.017550
    23  C    5.994601
    24  N    7.000402
    25  C    6.024244
    26  C    5.991257
    27  C    6.008698
    28  C    5.977043
    29  C    5.997950
    30  C    6.000352
    31  C    6.000519
    32  N    7.003426
    33  C    5.968161
    34  C    5.972661
    35  C    5.994414
    36  C    5.978609
    37  C    6.001049
    38  C    5.984707
    39  O    7.978157
    40  C    6.001800
    41  C    5.997518
    42  O    8.000967
    43  O    7.998133
    44  C    5.999888
    45  H    1.004535
    46  H    1.007193
    47  H    0.993457
    48  H    1.002016
    49  H    1.001814
    50  H    1.000523
    51  H    1.008696
    52  H    0.999504
    53  H    0.995066
    54  H    1.004166
    55  H    0.996253
    56  H    0.998940
    57  H    1.015140
    58  H    1.014334
    59  H    1.014696
    60  H    1.003457
    61  H    1.007501
    62  H    1.011801
    63  H    1.001583
    64  H    1.002381
    65  H    1.005207
    66  H    0.996828
    67  H    1.008947
    68  H    0.997715
    69  H    0.993396
    70  H    1.001046
    71  H    1.001089
    72  H    0.998771
    73  H    0.989061
    74  H    0.995396
    75  H    0.984271
    76  H    0.992089
    77  H    0.997789
    78  H    0.997246
    79  H    1.001384
    80  Mg  12.000032
    81  C    5.981966
    82  C    6.008869
    83  C    6.019872
    84  C    5.990971
    85  N    6.991643
    86  C    6.029717
    87  C    5.994194
    88  C    6.005836
    89  C    5.977770
    90  C    6.002615
    91  C    5.998178
    92  C    6.000552
    93  H    1.000729
    94  N    7.007452
    95  C    5.968461
    96  C    5.980421
    97  C    5.987549
    98  C    5.974787
    99  C    6.005803
   100  C    5.990534
   101  O    7.975333
   102  C    6.002616
   103  N    7.003256
   104  C    5.974653
   105  C    6.004459
   106  C    5.992080
   107  C    6.026623
   108  C    6.002781
   109  C    5.994352
   110  C    6.001194
   111  N    6.994722
   112  C    6.036071
   113  C    6.028637
   114  C    6.008342
   115  C    6.025210
   116  C    5.995790
   117  C    6.014842
   118  O    8.021227
   119  C    6.002092
   120  C    5.999367
   121  O    8.003624
   122  O    8.001009
   123  C    5.998935
   124  H    0.988023
   125  H    0.994907
   126  H    1.004881
   127  H    0.998545
   128  H    0.998790
   129  H    0.995554
   130  H    0.987173
   131  H    1.003244
   132  H    1.005531
   133  H    0.995321
   134  H    1.004800
   135  H    0.998327
   136  H    0.984329
   137  H    0.983273
   138  H    0.984422
   139  H    0.994109
   140  H    0.996459
   141  H    0.986855
   142  H    1.000956
   143  H    0.997571
   144  H    1.004097
   145  H    0.990595
   146  H    0.999090
   147  H    0.999772
   148  H    1.007840
   149  H    1.002851
   150  H    1.002299
   151  H    0.998013
   152  H    1.024686
   153  H    1.008307
   154  H    1.007301
   155  H    1.009111
   156  H    0.999037
   157  H    1.004548
   158  H    1.001830
 Sum of Mulliken charges = 624.00000

 Dipole moment (field-independent basis, Debye):
    X=             16.3921    Y=              0.9958    Z=             -4.0801  Tot=             16.9215
 Quadrupole moment (field-independent basis, Debye-Ang):
   XX=            -10.0237   YY=              2.5942   ZZ=              1.0548
   XY=             15.3304   XZ=              0.4137   YZ=             -1.3170

 Normal termination of Gaussian 16 at Wed Sep 22 08:39:50 2021.
