 Gaussian 16, Revision A.03,
 Gaussian 16:  ES64L-G16RevA.03 25-Dec-2016

 -----------------------------------
 #p cam-b3lyp/Def2SVP td=(nstates=5)
 -----------------------------------

 --------------------------------
 TDDFT excited states in gaussian
 --------------------------------
 Symbolic Z-matrix:
 Charge =  0 Multiplicity = 1

                         Standard orientation:
 ---------------------------------------------------------------------
 Center     Atomic      Atomic             Coordinates (Angstroms)
 Number     Number       Type             X           Y           Z
 ---------------------------------------------------------------------
      1         12           0       -4.660657   -0.598414    1.118771
      2          6           0       -5.448110    2.415986   -0.543617
      3          6           0       -2.961554    1.168733    3.499611
      4          6           0       -3.424716   -3.458192    2.197757
      5          6           0       -6.025381   -2.335638   -1.657096
      6          7           0       -4.366090    1.574853    1.475226
      7          6           0       -4.777449    2.554595    0.694803
      8          6           0       -4.667511    3.856495    1.467698
      9          6           0       -3.520249    3.560924    2.508947
     10          6           0       -3.589238    1.988221    2.513936
     11          6           0       -2.161310    4.229122    2.072432
     12          6           0       -5.970621    4.206068    2.231352
     13          6           0       -6.144616    5.735829    2.635656
     14          1           0       -5.073800    6.783833    2.320698
     15          7           0       -3.562503   -1.085519    2.727953
     16          6           0       -2.974972   -0.224770    3.690269
     17          6           0       -2.335829   -1.062567    4.731760
     18          6           0       -2.405727   -2.433523    4.293102
     19          6           0       -3.153754   -2.422694    3.017197
     20          6           0       -1.743249   -0.519228    5.983856
     21          6           0       -1.895329   -3.788430    4.921308
     22          8           0       -2.127577   -4.906825    4.442478
     23          6           0       -0.957197   -3.720347    6.091355
     24          7           0       -4.618196   -2.630569    0.308086
     25          6           0       -4.094866   -3.629533    0.967898
     26          6           0       -4.267555   -4.980009    0.331105
     27          6           0       -5.113654   -4.634313   -0.944402
     28          6           0       -5.361707   -3.107737   -0.727170
     29          6           0       -2.928458   -5.702040    0.155041
     30          6           0       -6.428623   -5.394594   -1.062617
     31          6           0       -6.832225   -5.886442   -2.498723
     32          7           0       -5.652149   -0.134952   -0.754944
     33          6           0       -6.187124   -0.968712   -1.756444
     34          6           0       -6.905015   -0.163929   -2.684080
     35          6           0       -6.516887    1.179759   -2.379683
     36          6           0       -5.816847    1.146417   -1.200316
     37          6           0       -7.881239   -0.666566   -3.708670
     38          6           0       -6.659047    2.630738   -2.649670
     39          8           0       -7.238715    3.203857   -3.548546
     40          6           0       -5.743077    3.416198   -1.595233
     41          6           0       -6.321225    4.759409   -1.290891
     42          8           0       -7.387634    4.983621   -0.798785
     43          8           0       -5.484464    5.792949   -1.751842
     44          6           0       -6.149656    7.044416   -2.172315
     45          1           0       -2.246699    1.641927    4.176648
     46          1           0       -3.187710   -4.466414    2.542078
     47          1           0       -6.502047   -2.905217   -2.457703
     48          1           0       -4.542839    4.596519    0.677247
     49          1           0       -3.772824    3.936003    3.501295
     50          1           0       -2.284809    4.750359    1.123727
     51          1           0       -1.528048    3.375786    1.829649
     52          1           0       -1.762333    4.956875    2.779150
     53          1           0       -5.912796    3.609883    3.142939
     54          1           0       -6.802476    3.859200    1.618431
     55          1           0       -6.319574    5.712558    3.712349
     56          1           0       -7.090691    6.033664    2.182964
     57          1           0       -1.920575    0.522901    6.247155
     58          1           0       -0.654889   -0.572047    5.983448
     59          1           0       -2.196707   -1.127327    6.766999
     60          1           0       -1.456302   -3.666248    7.058744
     61          1           0       -0.407111   -2.818450    5.820057
     62          1           0       -0.309326   -4.592239    6.005245
     63          1           0       -4.880305   -5.495766    1.070338
     64          1           0       -4.582661   -4.788897   -1.882879
     65          1           0       -2.070828   -5.032108    0.086400
     66          1           0       -3.005576   -6.212184   -0.804307
     67          1           0       -2.726302   -6.415285    0.954416
     68          1           0       -7.264103   -4.791798   -0.707056
     69          1           0       -6.358996   -6.157327   -0.287204
     70          1           0       -6.162761   -5.486976   -3.260336
     71          1           0       -7.826722   -5.469445   -2.656056
     72          1           0       -6.911024   -6.957978   -2.685225
     73          1           0       -7.360853   -1.481623   -4.211874
     74          1           0       -8.172994    0.069724   -4.457797
     75          1           0       -8.750051   -1.099854   -3.212141
     76          1           0       -4.816843    3.704408   -2.091322
     77          1           0       -5.828395    7.835429   -1.494517
     78          1           0       -7.236323    6.953018   -2.183069
     79          1           0       -5.783844    7.235392   -3.181149
     80         12           0        4.331486   -0.540202   -1.290163
     81          6           0        6.794069    1.771525   -0.255039
     82          6           0        2.007033    1.785927   -1.044221
     83          6           0        2.005581   -3.040080   -1.406811
     84          6           0        6.810312   -3.165562   -0.491350
     85          7           0        4.434550    1.537972   -0.649107
     86          6           0        5.532781    2.309742   -0.516648
     87          6           0        5.112306    3.792522   -0.528313
     88          6           0        3.641564    3.793984   -0.797121
     89          6           0        3.290377    2.275326   -0.798864
     90          6           0        2.838199    4.757136    0.169431
     91          6           0        5.913216    4.788628   -1.432015
     92          6           0        5.221636    6.011427   -2.173964
     93          1           0        5.917606    7.379830   -2.135029
     94          7           0        2.290732   -0.565139   -1.479255
     95          6           0        1.489868    0.547158   -1.350917
     96          6           0        0.135258    0.138377   -1.591799
     97          6           0        0.058883   -1.306774   -1.670459
     98          6           0        1.471209   -1.697148   -1.465370
     99          6           0       -0.917887    1.170499   -1.554978
    100          6           0       -1.139229   -2.242581   -1.965809
    101          8           0       -0.996924   -3.420594   -1.942662
    102          6           0       -2.409976   -1.689593   -2.523984
    103          7           0        4.426737   -2.793161   -0.927115
    104          6           0        3.313021   -3.513820   -1.188079
    105          6           0        3.568382   -5.050806   -1.074301
    106          6           0        5.105706   -5.116101   -0.821559
    107          6           0        5.508456   -3.624142   -0.718336
    108          6           0        2.784174   -5.764380   -0.005347
    109          6           0        5.997485   -5.864407   -1.873111
    110          6           0        6.334754   -5.184938   -3.157109
    111          7           0        6.376221   -0.789051   -0.552478
    112          6           0        7.193977   -1.864725   -0.355801
    113          6           0        8.521588   -1.402172   -0.032452
    114          6           0        8.452884    0.014502    0.030908
    115          6           0        7.108114    0.330990   -0.249535
    116          6           0        9.700854   -2.219288    0.362296
    117          6           0        9.172078    1.225831    0.304486
    118          8           0       10.342076    1.466670    0.579023
    119          6           0        8.145389    2.425730    0.084228
    120          6           0        8.132204    3.414957    1.237386
    121          8           0        7.766175    3.142452    2.351525
    122          8           0        8.557011    4.652587    0.781013
    123          6           0        8.612479    5.668368    1.832902
    124          1           0        1.211450    2.520743   -1.186776
    125          1           0        1.208782   -3.780112   -1.503670
    126          1           0        7.573628   -3.934847   -0.357885
    127          1           0        5.382088    4.037065    0.499081
    128          1           0        3.490386    4.239621   -1.780692
    129          1           0        3.540896    5.343664    0.761070
    130          1           0        2.112626    4.149511    0.710132
    131          1           0        2.320186    5.536318   -0.390018
    132          1           0        6.377109    4.189855   -2.216221
    133          1           0        6.758554    5.227928   -0.901724
    134          1           0        4.236650    6.082349   -1.712150
    135          1           0        5.063744    5.746907   -3.219595
    136          1           0       -1.783603    0.686935   -1.102988
    137          1           0       -1.170832    1.403680   -2.588586
    138          1           0       -0.771884    2.127427   -1.053631
    139          1           0       -2.991199   -1.496051   -1.623364
    140          1           0       -2.814060   -2.393110   -3.252554
    141          1           0       -2.320514   -0.711502   -2.997188
    142          1           0        3.438462   -5.555850   -2.031670
    143          1           0        5.479511   -5.481565    0.134382
    144          1           0        2.000059   -5.127642    0.406379
    145          1           0        3.406120   -6.044047    0.845400
    146          1           0        2.350472   -6.635700   -0.495439
    147          1           0        5.531188   -6.813146   -2.138966
    148          1           0        6.886172   -6.223504   -1.353594
    149          1           0        5.592925   -4.415522   -3.371963
    150          1           0        6.350572   -5.734527   -4.098544
    151          1           0        7.353848   -4.821554   -3.021062
    152          1           0        9.556330   -2.832811    1.251099
    153          1           0       10.413853   -1.508592    0.780947
    154          1           0       10.091579   -2.798380   -0.474874
    155          1           0        8.463907    2.919235   -0.834198
    156          1           0        7.782647    6.199749    1.367977
    157          1           0        9.582526    6.138698    1.673715
    158          1           0        8.437337    5.264711    2.830375
 ---------------------------------------------------------------------

 SCF Done:  E(RCAM-B3LYP) =  -4069.78926035     A.U. after   19 cycles

 Excitation energies and oscillator strengths:

 Excited State   1:      Singlet-A      1.6947 eV  731.59 nm  f=0.3774  <S**2>=0.000
     310 -> 316        0.18404
     312 -> 314        0.68122
     310 <- 316        0.10932
 This state for optimization and/or second-order correction.
 Total Energy, E(TD-HF/TD-DFT) =  -4069.72698040
 Copying the excited state density for this state as the 1-particle RhoCI density.

 Excited State   2:      Singlet-A      1.7976 eV  689.72 nm  f=0.3792  <S**2>=0.000
     309 -> 315        0.18466
     311 -> 313        0.67859
     309 <- 315        0.10199

 Excited State   3:      Singlet-A      2.1742 eV  570.25 nm  f=0.0099  <S**2>=0.000
     309 -> 313        0.55266
     310 -> 314        0.33367
     311 -> 315       -0.22894
     312 -> 316       -0.14014

 Excited State   4:      Singlet-A      2.1959 eV  564.63 nm  f=0.1639  <S**2>=0.000
     309 -> 313       -0.32716
     310 -> 314        0.54752
     311 -> 315        0.14930
     312 -> 316       -0.24521

 Excited State   5:      Singlet-A      2.3675 eV  523.69 nm  f=0.0000  <S**2>=0.000
     312 -> 313        0.70516

 The electronic state is 1-A.
 Alpha  occ. eigenvalues --  -46.90049 -46.88901 -19.24831 -19.23618 -19.20372
 Alpha  occ. eigenvalues --  -19.20130 -19.19903 -19.19724 -19.18688 -19.18668
 Alpha  occ. eigenvalues --  -14.42305 -14.42281 -14.41990 -14.41837 -14.40016
 Alpha  occ. eigenvalues --  -14.39539 -14.38865 -14.38408 -10.39216 -10.38884
 Alpha  occ. eigenvalues --  -10.36858 -10.35718 -10.35129 -10.34857 -10.32565
 Alpha  occ. eigenvalues --  -10.31843 -10.31691 -10.31359 -10.31211 -10.31173
 Alpha  occ. eigenvalues --  -10.31051 -10.30941 -10.30839 -10.30822 -10.30789
 Alpha  occ. eigenvalues --  -10.30418 -10.30412 -10.29888 -10.29614 -10.29488
 Alpha  occ. eigenvalues --  -10.29400 -10.29057 -10.28696 -10.28630 -10.28566
 Alpha  occ. eigenvalues --  -10.28476 -10.28362 -10.28244 -10.28214 -10.28180
 Alpha  occ. eigenvalues --  -10.28101 -10.28051 -10.28003 -10.27923 -10.27900
 Alpha  occ. eigenvalues --  -10.27848 -10.27718 -10.27627 -10.27592 -10.27477
 Alpha  occ. eigenvalues --  -10.27469 -10.27440 -10.27384 -10.27048 -10.26886
 Alpha  occ. eigenvalues --  -10.26834 -10.26824 -10.26766 -10.26624 -10.26413
 Alpha  occ. eigenvalues --  -10.26363 -10.26341 -10.26306 -10.26268 -10.26198
 Alpha  occ. eigenvalues --  -10.26145 -10.25985 -10.25849 -10.25818 -10.25618
 Alpha  occ. eigenvalues --  -10.25454 -10.25261 -10.25215 -10.25027 -10.24926
 Alpha  occ. eigenvalues --  -10.24719  -3.18358  -3.17373  -1.93232  -1.92823
 Alpha  occ. eigenvalues --   -1.92649  -1.92293  -1.91825  -1.91666  -1.16389
 Alpha  occ. eigenvalues --   -1.15537  -1.12996  -1.10539  -1.09853  -1.09272
 Alpha  occ. eigenvalues --   -1.08637  -1.07338  -1.05294  -1.04857  -1.04281
 Alpha  occ. eigenvalues --   -1.03198  -1.02529  -1.02028  -1.01886  -1.01222
 Alpha  occ. eigenvalues --   -0.92142  -0.91672  -0.89364  -0.89308  -0.88940
 Alpha  occ. eigenvalues --   -0.88894  -0.88287  -0.88075  -0.87754  -0.87468
 Alpha  occ. eigenvalues --   -0.87419  -0.87142  -0.86136  -0.85717  -0.84149
 Alpha  occ. eigenvalues --   -0.84057  -0.83804  -0.83691  -0.82881  -0.82311
 Alpha  occ. eigenvalues --   -0.81978  -0.81912  -0.80940  -0.80889  -0.80435
 Alpha  occ. eigenvalues --   -0.80140  -0.78778  -0.78239  -0.77207  -0.77154
 Alpha  occ. eigenvalues --   -0.77124  -0.76670  -0.75911  -0.75679  -0.75194
 Alpha  occ. eigenvalues --   -0.74703  -0.72705  -0.72364  -0.71913  -0.71532
 Alpha  occ. eigenvalues --   -0.69864  -0.69766  -0.69332  -0.68870  -0.68247
 Alpha  occ. eigenvalues --   -0.67494  -0.66882  -0.66814  -0.66024  -0.65496
 Alpha  occ. eigenvalues --   -0.64969  -0.64783  -0.64374  -0.64193  -0.64071
 Alpha  occ. eigenvalues --   -0.63721  -0.61791  -0.61327  -0.60309  -0.59970
 Alpha  occ. eigenvalues --   -0.59611  -0.59348  -0.58847  -0.58835  -0.58413
 Alpha  occ. eigenvalues --   -0.58217  -0.58061  -0.57803  -0.57398  -0.57081
 Alpha  occ. eigenvalues --   -0.56653  -0.56209  -0.55899  -0.55706  -0.55398
 Alpha  occ. eigenvalues --   -0.55322  -0.55126  -0.54648  -0.54434  -0.54125
 Alpha  occ. eigenvalues --   -0.53730  -0.53647  -0.53411  -0.53309  -0.53144
 Alpha  occ. eigenvalues --   -0.53015  -0.52821  -0.52434  -0.52420  -0.52285
 Alpha  occ. eigenvalues --   -0.51798  -0.51755  -0.51548  -0.51299  -0.51230
 Alpha  occ. eigenvalues --   -0.50975  -0.50939  -0.50809  -0.50649  -0.50602
 Alpha  occ. eigenvalues --   -0.50490  -0.50292  -0.50084  -0.50012  -0.49601
 Alpha  occ. eigenvalues --   -0.49500  -0.49260  -0.49212  -0.49018  -0.48822
 Alpha  occ. eigenvalues --   -0.48758  -0.48658  -0.48449  -0.48316  -0.48256
 Alpha  occ. eigenvalues --   -0.48023  -0.47698  -0.47628  -0.47407  -0.47257
 Alpha  occ. eigenvalues --   -0.47234  -0.47182  -0.46805  -0.46686  -0.46429
 Alpha  occ. eigenvalues --   -0.46310  -0.46088  -0.45871  -0.45746  -0.45640
 Alpha  occ. eigenvalues --   -0.45539  -0.45429  -0.45216  -0.45079  -0.44692
 Alpha  occ. eigenvalues --   -0.44559  -0.44391  -0.44305  -0.44146  -0.44123
 Alpha  occ. eigenvalues --   -0.43773  -0.43730  -0.43624  -0.43546  -0.43309
 Alpha  occ. eigenvalues --   -0.43297  -0.43047  -0.43008  -0.42794  -0.42702
 Alpha  occ. eigenvalues --   -0.42599  -0.42429  -0.42388  -0.42114  -0.42069
 Alpha  occ. eigenvalues --   -0.41977  -0.41892  -0.41667  -0.41512  -0.41442
 Alpha  occ. eigenvalues --   -0.41302  -0.41068  -0.40928  -0.40649  -0.40267
 Alpha  occ. eigenvalues --   -0.40194  -0.39885  -0.39249  -0.39173  -0.39070
 Alpha  occ. eigenvalues --   -0.39030  -0.38177  -0.38019  -0.37951  -0.37773
 Alpha  occ. eigenvalues --   -0.37425  -0.36962  -0.36636  -0.36003  -0.35946
 Alpha  occ. eigenvalues --   -0.35780  -0.35727  -0.34720  -0.34486  -0.34065
 Alpha  occ. eigenvalues --   -0.33615  -0.33382  -0.33206  -0.31971  -0.31809
 Alpha  occ. eigenvalues --   -0.31394  -0.30891  -0.30769  -0.30665  -0.30190
 Alpha  occ. eigenvalues --   -0.29847  -0.29394  -0.28654  -0.24040  -0.23885
 Alpha  occ. eigenvalues --   -0.21582  -0.21101
 Alpha virt. eigenvalues --   -0.08719  -0.08688  -0.02264  -0.01686  -0.00302
 Alpha virt. eigenvalues --    0.00250   0.01114   0.02418   0.02479   0.02775
 Alpha virt. eigenvalues --    0.04472   0.04477   0.05117   0.05502   0.05599

 Mulliken charges:
               1
     1  Mg   0.797956
     2  C    0.068248
     3  C   -0.079085
     4  C   -0.045698
     5  C   -0.082191
     6  N   -0.246079
     7  C   -0.050256
     8  C   -0.077767
     9  C   -0.051878
    10  C    0.069496
    11  C    0.077133
    12  C    0.030779
    13  C   -0.039905
    14  H    0.026720
    15  N   -0.473349
    16  C    0.157865
    17  C   -0.128439
    18  C   -0.041628
    19  C    0.187348
    20  C    0.082299
    21  C    0.033705
    22  O   -0.205019
    23  C    0.048356
    24  N   -0.246334
    25  C   -0.060701
    26  C    0.004916
    27  C   -0.044244
    28  C    0.031291
    29  C    0.081112
    30  C    0.038495
    31  C    0.000385
    32  N   -0.359097
    33  C    0.120847
    34  C   -0.178531
    35  C    0.004733
    36  C    0.035622
    37  C    0.125506
    38  C    0.058571
    39  O   -0.165211
    40  C   -0.026675
    41  C    0.157486
    42  O   -0.177239
    43  O   -0.380285
    44  C    0.174100
    45  H   -0.023874
    46  H   -0.010142
    47  H   -0.046614
    48  H    0.008838
    49  H    0.011570
    50  H    0.013930
    51  H    0.012786
    52  H    0.028405
    53  H    0.001671
    54  H    0.031758
    55  H    0.020196
    56  H    0.042152
    57  H    0.019449
    58  H    0.045971
    59  H    0.038775
    60  H    0.057004
    61  H    0.024107
    62  H    0.040200
    63  H    0.013690
    64  H    0.019426
    65  H    0.036476
    66  H    0.010922
    67  H    0.027227
    68  H    0.005295
    69  H   -0.001858
    70  H    0.016336
    71  H    0.016099
    72  H    0.022719
    73  H    0.015166
    74  H    0.033567
    75  H    0.029185
    76  H    0.045958
    77  H    0.034893
    78  H    0.053869
    79  H    0.037296
    80  Mg   0.817345
    81  C   -0.011259
    82  C   -0.049864
    83  C   -0.056325
    84  C   -0.096600
    85  N   -0.298042
    86  C   -0.057733
    87  C    0.017601
    88  C   -0.085818
    89  C    0.071061
    90  C    0.068551
    91  C    0.007437
    92  C   -0.067149
    93  H    0.036348
    94  N   -0.428402
    95  C    0.123157
    96  C   -0.121200
    97  C   -0.042096
    98  C    0.091882
    99  C    0.077896
   100  C    0.007742
   101  O   -0.174715
   102  C    0.046739
   103  N   -0.241084
   104  C    0.047460
   105  C   -0.014336
   106  C   -0.001634
   107  C   -0.022183
   108  C    0.083680
   109  C    0.000321
   110  C    0.023670
   111  N   -0.309144
   112  C    0.157550
   113  C   -0.179412
   114  C    0.018080
   115  C    0.070389
   116  C    0.109278
   117  C    0.054568
   118  O   -0.173688
   119  C    0.002965
   120  C    0.190201
   121  O   -0.198477
   122  O   -0.349589
   123  C    0.157910
   124  H   -0.039840
   125  H   -0.001496
   126  H   -0.031601
   127  H    0.021249
   128  H    0.018533
   129  H    0.020258
   130  H    0.027409
   131  H    0.011904
   132  H    0.005785
   133  H    0.023553
   134  H    0.015059
   135  H    0.033138
   136  H    0.027737
   137  H    0.034090
   138  H    0.035133
   139  H    0.063299
   140  H    0.044096
   141  H    0.016930
   142  H    0.012389
   143  H    0.007811
   144  H    0.023460
   145  H    0.012677
   146  H    0.018580
   147  H   -0.002028
   148  H   -0.002458
   149  H    0.016750
   150  H    0.009434
   151  H    0.016495
   152  H    0.021946
   153  H    0.027030
   154  H    0.029801
   155  H    0.040900
   156  H    0.033891
   157  H    0.050389
   158  H    0.068805
 Sum of Mulliken charges =  -0.00000

 Dipole moment (field-independent basis, Debye):
    X=             -0.5649    Y=             -1.0054    Z=              1.2352  Tot=              1.6899
 Quadrupole moment (field-independent basis, Debye-Ang):
   XX=           -600.3616   YY=           -475.6793   ZZ=           -493.5689
   XY=             12.5985   XZ=            -31.7189   YZ=             14.1808

 Normal termination of Gaussian 16 at Wed Sep 15 01:40:31 2021.
