 Gaussian 16, Revision A.03,
 Gaussian 16:  ES64L-G16RevA.03 25-Dec-2016

 -----------------------------------
 #p cam-b3lyp/Def2SVP td=(nstates=5)
 -----------------------------------

 --------------------------------
 TDDFT excited states in gaussian
 --------------------------------
 Symbolic Z-matrix:
 Charge =  0 Multiplicity = 1

                         Standard orientation:
 ---------------------------------------------------------------------
 Center     Atomic      Atomic             Coordinates (Angstroms)
 Number     Number       Type             X           Y           Z
 ---------------------------------------------------------------------
      1         12           0      -20.680769    0.154206    0.129684
      2          6           0      -17.669025    1.422345   -0.824894
      3          6           0      -21.230539   -0.668942   -3.194383
      4          6           0      -23.466979   -1.430694    1.128546
      5          6           0      -19.739556    0.419819    3.510415
      6          7           0      -19.439667    0.130776   -1.754750
      7          6           0      -18.250944    0.758558   -1.855751
      8          6           0      -17.643361    0.614158   -3.203107
      9          6           0      -19.010407    0.258392   -4.061663
     10          6           0      -19.997363   -0.130121   -2.940725
     11          6           0      -19.475076    1.432797   -4.972624
     12          6           0      -16.646064   -0.533498   -3.196210
     13          6           0      -17.125138   -1.982123   -2.719022
     14          1           0      -16.642826   -3.231757   -3.445100
     15          7           0      -22.141463   -0.899548   -0.874044
     16          6           0      -22.272005   -1.017812   -2.280902
     17          6           0      -23.557685   -1.576958   -2.534930
     18          6           0      -24.213826   -1.859326   -1.343253
     19          6           0      -23.327088   -1.372919   -0.272887
     20          6           0      -23.971863   -1.782178   -3.977889
     21          6           0      -25.526611   -2.583695   -1.164055
     22          8           0      -26.088949   -2.959346   -2.222771
     23          6           0      -26.065453   -3.051307    0.068838
     24          7           0      -21.367277   -0.608961    2.060885
     25          6           0      -22.600336   -1.175975    2.196403
     26          6           0      -22.903538   -1.512541    3.676097
     27          6           0      -21.671434   -0.898833    4.422601
     28          6           0      -20.827839   -0.391517    3.265287
     29          6           0      -24.242010   -0.990107    4.152657
     30          6           0      -20.930711   -2.008818    5.342819
     31          6           0      -20.493521   -1.490086    6.717505
     32          7           0      -19.021815    0.803696    1.241235
     33          6           0      -18.844234    1.048101    2.565385
     34          6           0      -17.663731    1.859736    2.685952
     35          6           0      -17.131364    2.106848    1.373316
     36          6           0      -17.993065    1.411449    0.541246
     37          6           0      -16.950120    2.156647    3.960264
     38          6           0      -16.086727    2.655760    0.569903
     39          8           0      -15.148141    3.332697    1.008276
     40          6           0      -16.415794    2.267626   -0.859760
     41          6           0      -16.557923    3.505582   -1.664160
     42          8           0      -15.631692    4.290896   -1.712608
     43          8           0      -17.723638    3.598802   -2.361294
     44          6           0      -17.865616    4.806030   -3.177602
     45          1           0      -21.522352   -0.675944   -4.246533
     46          1           0      -24.474866   -1.730265    1.422711
     47          1           0      -19.460168    0.698996    4.528794
     48          1           0      -17.103902    1.465267   -3.618798
     49          1           0      -18.807942   -0.502823   -4.816219
     50          1           0      -19.510069    1.106565   -6.011428
     51          1           0      -18.715294    2.210911   -4.894676
     52          1           0      -20.431636    1.875988   -4.692690
     53          1           0      -15.770922   -0.190145   -2.644161
     54          1           0      -16.251305   -0.496616   -4.211474
     55          1           0      -18.202631   -2.147289   -2.717138
     56          1           0      -16.688237   -2.037673   -1.722386
     57          1           0      -23.552352   -2.746906   -4.263831
     58          1           0      -23.503451   -1.013751   -4.591608
     59          1           0      -25.042849   -1.765221   -4.182100
     60          1           0      -26.672474   -3.946814   -0.067873
     61          1           0      -26.558109   -2.273297    0.653435
     62          1           0      -25.205848   -3.438192    0.614422
     63          1           0      -22.864782   -2.602295    3.692075
     64          1           0      -21.985980   -0.010256    4.969613
     65          1           0      -24.849909   -0.544161    3.365904
     66          1           0      -24.320621   -0.357988    5.036749
     67          1           0      -24.802929   -1.909219    4.324586
     68          1           0      -20.037169   -2.435236    4.886789
     69          1           0      -21.543581   -2.899028    5.483178
     70          1           0      -21.154166   -1.925026    7.466998
     71          1           0      -20.678580   -0.416185    6.749818
     72          1           0      -19.458655   -1.735940    6.956146
     73          1           0      -17.438552    2.826367    4.667059
     74          1           0      -15.985315    2.564494    3.656394
     75          1           0      -16.773678    1.257567    4.550806
     76          1           0      -15.558968    1.699533   -1.223178
     77          1           0      -17.024834    4.838611   -3.871107
     78          1           0      -17.958636    5.719189   -2.589516
     79          1           0      -18.833757    4.819428   -3.678011
     80         12           0       19.933472   -0.767014   -0.060248
     81          6           0       21.263219    2.358526   -0.151216
     82          6           0       16.803145    0.355876    0.858036
     83          6           0       18.873751   -4.015421    0.159306
     84          6           0       23.258460   -2.093603   -0.585130
     85          7           0       19.208698    1.114072    0.504969
     86          6           0       19.866960    2.336876    0.142577
     87          6           0       18.928813    3.475870    0.190691
     88          6           0       17.667561    2.812710    0.906000
     89          6           0       17.863116    1.318708    0.774445
     90          6           0       17.521249    3.235704    2.452563
     91          6           0       18.717114    4.206160   -1.171086
     92          6           0       18.742698    5.699290   -1.104936
     93          1           0       18.033586    6.351559    0.146699
     94          7           0       18.068285   -1.698724    0.370519
     95          6           0       16.946181   -1.014163    0.731938
     96          6           0       15.907275   -1.967016    0.924243
     97          6           0       16.437603   -3.286342    0.642552
     98          6           0       17.878709   -3.063716    0.285463
     99          6           0       14.511105   -1.566672    1.449074
    100          6           0       15.824562   -4.651546    0.615236
    101          8           0       16.385095   -5.742876    0.464031
    102          6           0       14.254977   -4.682610    0.748893
    103          7           0       20.956875   -2.831984   -0.090238
    104          6           0       20.277926   -3.951995   -0.079522
    105          6           0       21.128493   -5.153005   -0.487869
    106          6           0       22.528216   -4.516332   -0.722002
    107          6           0       22.250072   -3.042655   -0.432312
    108          6           0       21.159493   -6.329097    0.615182
    109          6           0       22.960481   -4.771802   -2.232996
    110          6           0       22.199635   -4.104300   -3.405203
    111          7           0       21.907734   -0.043184   -0.158032
    112          6           0       23.098824   -0.692414   -0.422644
    113          6           0       24.110304    0.363617   -0.631202
    114          6           0       23.503261    1.581445   -0.560949
    115          6           0       22.128819    1.264105   -0.261186
    116          6           0       25.574789    0.108620   -0.731427
    117          6           0       23.663973    3.033028   -0.642092
    118          8           0       24.649750    3.722258   -0.843680
    119          6           0       22.192113    3.571354   -0.364262
    120          6           0       22.246406    4.361794    0.882300
    121          8           0       22.646834    3.998955    2.002110
    122          8           0       21.759977    5.600088    0.515058
    123          6           0       21.539553    6.522849    1.636295
    124          1           0       15.786350    0.673683    1.097378
    125          1           0       18.442010   -5.018675    0.130189
    126          1           0       24.254131   -2.472857   -0.821794
    127          1           0       19.411864    4.193711    0.854825
    128          1           0       16.776742    3.107586    0.352226
    129          1           0       18.133639    4.093415    2.730793
    130          1           0       17.963472    2.422902    3.028494
    131          1           0       16.443710    3.315475    2.590132
    132          1           0       17.753695    3.921417   -1.594084
    133          1           0       19.559282    3.850254   -1.764370
    134          1           0       18.208725    6.171762   -1.928463
    135          1           0       19.676750    6.257811   -1.167325
    136          1           0       13.849005   -1.093228    0.724202
    137          1           0       14.758165   -0.934544    2.301835
    138          1           0       13.897315   -2.424700    1.722371
    139          1           0       13.984129   -4.455714    1.780068
    140          1           0       13.897711   -5.605017    0.291409
    141          1           0       13.747047   -3.971698    0.096871
    142          1           0       20.748178   -5.539435   -1.433156
    143          1           0       23.308274   -4.928380   -0.081759
    144          1           0       20.536763   -7.129263    0.213523
    145          1           0       20.722446   -5.978279    1.550631
    146          1           0       22.102784   -6.815935    0.859449
    147          1           0       23.047070   -5.820501   -2.516844
    148          1           0       23.947932   -4.309215   -2.243750
    149          1           0       22.958123   -3.449128   -3.833850
    150          1           0       21.302821   -3.578587   -3.079809
    151          1           0       21.854322   -4.805892   -4.164527
    152          1           0       25.907090    0.901408   -1.400916
    153          1           0       25.807498   -0.882611   -1.120987
    154          1           0       26.021103    0.419143    0.212381
    155          1           0       22.090807    4.245096   -1.214680
    156          1           0       21.277581    7.447175    1.120607
    157          1           0       22.514281    6.658923    2.104800
    158          1           0       20.865580    6.168911    2.416688
 ---------------------------------------------------------------------

 SCF Done:  E(RCAM-B3LYP) =  -4069.80501776     A.U. after   19 cycles

 Excitation energies and oscillator strengths:

 Excited State   1:      Singlet-A      1.6992 eV  729.67 nm  f=0.3932  <S**2>=0.000
     309 -> 315       -0.18624
     312 -> 314        0.68401
     309 <- 315       -0.10902
 This state for optimization and/or second-order correction.
 Total Energy, E(TD-HF/TD-DFT) =  -4069.74257414
 Copying the excited state density for this state as the 1-particle RhoCI density.

 Excited State   2:      Singlet-A      1.7419 eV  711.78 nm  f=0.3833  <S**2>=0.000
     310 -> 316        0.17692
     311 -> 313        0.68519
     310 <- 316        0.10390

 Excited State   3:      Singlet-A      2.2176 eV  559.10 nm  f=0.1294  <S**2>=0.000
     310 -> 313        0.65047
     311 -> 316       -0.25334

 Excited State   4:      Singlet-A      2.2666 eV  547.00 nm  f=0.0453  <S**2>=0.000
     309 -> 314        0.60928
     312 -> 315        0.34927

 Excited State   5:      Singlet-A      2.9707 eV  417.35 nm  f=0.0000  <S**2>=0.000
     312 -> 313        0.70710

 The electronic state is 1-A.
 Alpha  occ. eigenvalues --  -46.89236 -46.89150 -19.26438 -19.25636 -19.20241
 Alpha  occ. eigenvalues --  -19.19539 -19.19524 -19.19482 -19.18322 -19.18200
 Alpha  occ. eigenvalues --  -14.42276 -14.42178 -14.42120 -14.42103 -14.39830
 Alpha  occ. eigenvalues --  -14.39487 -14.39467 -14.38647 -10.39513 -10.39505
 Alpha  occ. eigenvalues --  -10.35688 -10.35393 -10.34875 -10.34493 -10.32789
 Alpha  occ. eigenvalues --  -10.31965 -10.31816 -10.31757 -10.31720 -10.31259
 Alpha  occ. eigenvalues --  -10.31229 -10.30856 -10.30560 -10.30430 -10.30320
 Alpha  occ. eigenvalues --  -10.30253 -10.30162 -10.29879 -10.29574 -10.29241
 Alpha  occ. eigenvalues --  -10.29220 -10.29091 -10.29065 -10.28802 -10.28605
 Alpha  occ. eigenvalues --  -10.28497 -10.28414 -10.28385 -10.28319 -10.28318
 Alpha  occ. eigenvalues --  -10.28314 -10.28249 -10.28115 -10.28066 -10.27869
 Alpha  occ. eigenvalues --  -10.27824 -10.27773 -10.27744 -10.27569 -10.27539
 Alpha  occ. eigenvalues --  -10.27482 -10.27440 -10.27401 -10.27393 -10.27361
 Alpha  occ. eigenvalues --  -10.27336 -10.27334 -10.27275 -10.27217 -10.27033
 Alpha  occ. eigenvalues --  -10.26813 -10.26582 -10.26568 -10.26504 -10.26480
 Alpha  occ. eigenvalues --  -10.26384 -10.26212 -10.25831 -10.25828 -10.25655
 Alpha  occ. eigenvalues --  -10.25594 -10.25558 -10.25480 -10.25015 -10.24716
 Alpha  occ. eigenvalues --  -10.24593  -3.17639  -3.17602  -1.92543  -1.92479
 Alpha  occ. eigenvalues --   -1.92084  -1.92078  -1.91941  -1.91885  -1.17463
 Alpha  occ. eigenvalues --   -1.15947  -1.10184  -1.09589  -1.09098  -1.08436
 Alpha  occ. eigenvalues --   -1.08038  -1.07457  -1.05113  -1.05026  -1.04583
 Alpha  occ. eigenvalues --   -1.03762  -1.02877  -1.02773  -1.01698  -1.01557
 Alpha  occ. eigenvalues --   -0.94115  -0.92362  -0.89324  -0.89085  -0.89085
 Alpha  occ. eigenvalues --   -0.88793  -0.88778  -0.87993  -0.87834  -0.87264
 Alpha  occ. eigenvalues --   -0.86895  -0.86367  -0.86232  -0.85887  -0.85142
 Alpha  occ. eigenvalues --   -0.84632  -0.84170  -0.83393  -0.83359  -0.82846
 Alpha  occ. eigenvalues --   -0.82404  -0.81523  -0.81502  -0.81193  -0.80943
 Alpha  occ. eigenvalues --   -0.79949  -0.78668  -0.78069  -0.78035  -0.77342
 Alpha  occ. eigenvalues --   -0.77188  -0.77101  -0.76208  -0.75790  -0.75000
 Alpha  occ. eigenvalues --   -0.74962  -0.72557  -0.72453  -0.72168  -0.72163
 Alpha  occ. eigenvalues --   -0.70193  -0.69856  -0.69247  -0.69164  -0.68886
 Alpha  occ. eigenvalues --   -0.68335  -0.67417  -0.67172  -0.66601  -0.65380
 Alpha  occ. eigenvalues --   -0.65260  -0.65220  -0.64985  -0.64692  -0.64436
 Alpha  occ. eigenvalues --   -0.64378  -0.63870  -0.62523  -0.60285  -0.60285
 Alpha  occ. eigenvalues --   -0.59778  -0.59404  -0.59382  -0.58902  -0.58872
 Alpha  occ. eigenvalues --   -0.58762  -0.58430  -0.58065  -0.57960  -0.57470
 Alpha  occ. eigenvalues --   -0.56887  -0.56628  -0.55910  -0.55848  -0.55524
 Alpha  occ. eigenvalues --   -0.55202  -0.55052  -0.54862  -0.54565  -0.54408
 Alpha  occ. eigenvalues --   -0.54296  -0.53799  -0.53524  -0.53523  -0.53175
 Alpha  occ. eigenvalues --   -0.53139  -0.53117  -0.52527  -0.52382  -0.52272
 Alpha  occ. eigenvalues --   -0.52111  -0.51931  -0.51925  -0.51867  -0.51489
 Alpha  occ. eigenvalues --   -0.51477  -0.51123  -0.51040  -0.50961  -0.50874
 Alpha  occ. eigenvalues --   -0.50373  -0.49841  -0.49641  -0.49636  -0.49513
 Alpha  occ. eigenvalues --   -0.49321  -0.49160  -0.48903  -0.48796  -0.48728
 Alpha  occ. eigenvalues --   -0.48572  -0.48521  -0.48505  -0.48457  -0.48203
 Alpha  occ. eigenvalues --   -0.48104  -0.47684  -0.47671  -0.47365  -0.47223
 Alpha  occ. eigenvalues --   -0.47138  -0.46830  -0.46767  -0.46729  -0.46470
 Alpha  occ. eigenvalues --   -0.46448  -0.46125  -0.46095  -0.45862  -0.45780
 Alpha  occ. eigenvalues --   -0.45685  -0.45603  -0.45277  -0.45174  -0.44901
 Alpha  occ. eigenvalues --   -0.44759  -0.44702  -0.44664  -0.44583  -0.44519
 Alpha  occ. eigenvalues --   -0.43893  -0.43774  -0.43592  -0.43445  -0.43204
 Alpha  occ. eigenvalues --   -0.42970  -0.42893  -0.42856  -0.42755  -0.42483
 Alpha  occ. eigenvalues --   -0.42345  -0.42290  -0.42290  -0.42123  -0.42091
 Alpha  occ. eigenvalues --   -0.41947  -0.41920  -0.41826  -0.41675  -0.41519
 Alpha  occ. eigenvalues --   -0.41316  -0.41196  -0.41003  -0.40726  -0.40525
 Alpha  occ. eigenvalues --   -0.40522  -0.39778  -0.39567  -0.39499  -0.39234
 Alpha  occ. eigenvalues --   -0.38723  -0.37873  -0.37857  -0.37739  -0.37562
 Alpha  occ. eigenvalues --   -0.37478  -0.37130  -0.36932  -0.36708  -0.36378
 Alpha  occ. eigenvalues --   -0.36243  -0.36011  -0.34739  -0.34652  -0.34193
 Alpha  occ. eigenvalues --   -0.34036  -0.33463  -0.33148  -0.31822  -0.31204
 Alpha  occ. eigenvalues --   -0.31095  -0.30966  -0.30917  -0.30488  -0.30363
 Alpha  occ. eigenvalues --   -0.30141  -0.29865  -0.29030  -0.24394  -0.24339
 Alpha  occ. eigenvalues --   -0.21709  -0.20939
 Alpha virt. eigenvalues --   -0.09182  -0.08469  -0.02340  -0.01923  -0.00225
 Alpha virt. eigenvalues --    0.00108   0.01303   0.01967   0.01973   0.02189
 Alpha virt. eigenvalues --    0.04751   0.04943   0.04958   0.05458   0.05468

 Mulliken charges:
               1
     1  Mg   0.798151
     2  C    0.011988
     3  C   -0.057736
     4  C   -0.074844
     5  C   -0.069391
     6  N   -0.239892
     7  C   -0.031557
     8  C   -0.030223
     9  C   -0.077629
    10  C    0.066849
    11  C    0.065557
    12  C    0.047174
    13  C   -0.074952
    14  H    0.019458
    15  N   -0.433573
    16  C    0.129037
    17  C   -0.132417
    18  C   -0.006622
    19  C    0.148045
    20  C    0.133179
    21  C   -0.016192
    22  O   -0.242201
    23  C    0.083989
    24  N   -0.253724
    25  C    0.012190
    26  C   -0.005327
    27  C   -0.034254
    28  C    0.078930
    29  C    0.065226
    30  C    0.032747
    31  C   -0.000109
    32  N   -0.354107
    33  C    0.076904
    34  C   -0.160979
    35  C    0.052216
    36  C    0.082294
    37  C    0.092186
    38  C   -0.004243
    39  O   -0.166276
    40  C   -0.005019
    41  C    0.184407
    42  O   -0.197460
    43  O   -0.322792
    44  C    0.181846
    45  H   -0.028828
    46  H   -0.058512
    47  H   -0.033096
    48  H   -0.003213
    49  H    0.010748
    50  H    0.015792
    51  H    0.005746
    52  H    0.017998
    53  H    0.000102
    54  H    0.007521
    55  H    0.057227
    56  H    0.043823
    57  H    0.028995
    58  H    0.009142
    59  H    0.039496
    60  H    0.034011
    61  H    0.054645
    62  H    0.027246
    63  H    0.023338
    64  H    0.016297
    65  H    0.015931
    66  H    0.029094
    67  H    0.005149
    68  H    0.011773
    69  H    0.004226
    70  H    0.012625
    71  H    0.012480
    72  H    0.024987
    73  H    0.015375
    74  H    0.034347
    75  H    0.015774
    76  H    0.059679
    77  H    0.045634
    78  H    0.040611
    79  H    0.032984
    80  Mg   0.798371
    81  C    0.018696
    82  C   -0.098284
    83  C   -0.026581
    84  C   -0.072700
    85  N   -0.371552
    86  C   -0.042100
    87  C   -0.004783
    88  C   -0.083352
    89  C    0.109737
    90  C    0.079486
    91  C    0.115791
    92  C   -0.087250
    93  H   -0.012813
    94  N   -0.377598
    95  C    0.154374
    96  C   -0.133021
    97  C   -0.038218
    98  C    0.104466
    99  C    0.104458
   100  C    0.019086
   101  O   -0.205655
   102  C    0.005655
   103  N   -0.192979
   104  C   -0.005876
   105  C   -0.021530
   106  C    0.004553
   107  C    0.005355
   108  C    0.043650
   109  C   -0.019976
   110  C   -0.000255
   111  N   -0.317225
   112  C    0.124285
   113  C   -0.222861
   114  C    0.035476
   115  C    0.083029
   116  C    0.127713
   117  C    0.060036
   118  O   -0.156835
   119  C   -0.043829
   120  C    0.209642
   121  O   -0.230317
   122  O   -0.341663
   123  C    0.182882
   124  H   -0.025315
   125  H   -0.002718
   126  H   -0.021336
   127  H    0.011622
   128  H    0.000621
   129  H    0.022068
   130  H    0.023876
   131  H    0.028464
   132  H    0.014456
   133  H    0.017190
   134  H    0.020381
   135  H    0.040222
   136  H    0.031632
   137  H    0.040631
   138  H   -0.006121
   139  H    0.059122
   140  H    0.025854
   141  H    0.020852
   142  H    0.023716
   143  H    0.011234
   144  H    0.021381
   145  H    0.027455
   146  H    0.018991
   147  H    0.016285
   148  H   -0.003175
   149  H    0.022460
   150  H    0.020532
   151  H    0.015697
   152  H    0.023451
   153  H    0.018802
   154  H    0.042557
   155  H    0.039236
   156  H    0.040916
   157  H    0.037701
   158  H    0.041772
 Sum of Mulliken charges =  -0.00000

 Dipole moment (field-independent basis, Debye):
    X=             -8.4952    Y=             -0.6161    Z=             -0.8140  Tot=              8.5564
 Quadrupole moment (field-independent basis, Debye-Ang):
   XX=           -542.6589   YY=           -525.2547   ZZ=           -483.1548
   XY=            -33.5162   XZ=            -85.0660   YZ=            -15.0305

 Normal termination of Gaussian 16 at Wed Sep 15 16:45:09 2021.
