 Gaussian 16, Revision A.03,
 Gaussian 16:  ES64L-G16RevA.03 25-Dec-2016

 -----------------------------------
 #p cam-b3lyp/Def2SVP td=(nstates=5)
 -----------------------------------

 --------------------------------
 TDDFT excited states in gaussian
 --------------------------------
 Symbolic Z-matrix:
 Charge =  0 Multiplicity = 1

                         Standard orientation:
 ---------------------------------------------------------------------
 Center     Atomic      Atomic             Coordinates (Angstroms)
 Number     Number       Type             X           Y           Z
 ---------------------------------------------------------------------
      1         12           0       25.432531   -0.271673    0.022287
      2          6           0       22.014682   -1.075736    0.170575
      3          6           0       25.289303   -0.611280   -3.396236
      4          6           0       28.388335    1.210661   -0.084767
      5          6           0       25.377543    0.299711    3.527760
      6          7           0       23.791061   -0.530425   -1.433160
      7          6           0       22.437852   -0.855384   -1.156879
      8          6           0       21.726690   -1.389841   -2.331030
      9          6           0       22.844103   -1.323070   -3.459628
     10          6           0       24.076773   -0.822650   -2.723295
     11          6           0       22.982002   -2.653424   -4.238833
     12          6           0       20.571605   -0.556748   -2.796499
     13          6           0       20.736041    0.967446   -2.701862
     14          1           0       20.116949    1.930538   -3.788309
     15          7           0       26.728440    0.218928   -1.526050
     16          6           0       26.521248   -0.121438   -2.812473
     17          6           0       27.707913    0.199987   -3.565118
     18          6           0       28.660642    0.663827   -2.624795
     19          6           0       27.969762    0.694473   -1.325643
     20          6           0       27.864315    0.088001   -5.057855
     21          6           0       30.104663    1.054761   -2.937810
     22          8           0       30.537949    0.997581   -4.072032
     23          6           0       31.114151    1.643266   -1.997211
     24          7           0       26.591988    0.852881    1.449201
     25          6           0       27.841026    1.336642    1.164182
     26          6           0       28.614504    1.727720    2.466212
     27          6           0       27.482312    1.700389    3.537207
     28          6           0       26.427332    0.891540    2.814722
     29          6           0       29.769721    0.777874    2.864937
     30          6           0       26.772708    3.102182    3.846795
     31          6           0       26.573871    3.452036    5.277079
     32          7           0       24.109979   -0.442425    1.542925
     33          6           0       24.295330   -0.362220    2.867474
     34          6           0       23.170445   -1.065274    3.592198
     35          6           0       22.287067   -1.396934    2.516052
     36          6           0       22.835095   -0.867772    1.313419
     37          6           0       22.961508   -1.328388    5.076578
     38          6           0       20.971910   -1.902788    2.247382
     39          8           0       20.108727   -2.315889    3.005541
     40          6           0       20.762171   -1.736725    0.688178
     41          6           0       19.664555   -0.710441    0.498181
     42          8           0       19.707936    0.450963    0.737443
     43          8           0       18.603595   -1.335388   -0.121924
     44          6           0       17.586483   -0.407596   -0.626907
     45          1           0       25.287398   -0.910954   -4.446126
     46          1           0       29.428989    1.538979   -0.073533
     47          1           0       25.485779    0.369587    4.612118
     48          1           0       21.371602   -2.388031   -2.074871
     49          1           0       22.742513   -0.517328   -4.186577
     50          1           0       22.970375   -2.281964   -5.263675
     51          1           0       22.118945   -3.265500   -3.976678
     52          1           0       23.937858   -3.149807   -4.070189
     53          1           0       19.605167   -0.889104   -2.416575
     54          1           0       20.323016   -0.670876   -3.851849
     55          1           0       21.813009    1.126755   -2.638518
     56          1           0       20.336250    1.175534   -1.709251
     57          1           0       28.326010    0.985142   -5.471591
     58          1           0       26.902568   -0.146849   -5.513750
     59          1           0       28.541411   -0.756526   -5.188203
     60          1           0       30.882924    2.641088   -1.625791
     61          1           0       31.953103    1.810698   -2.672823
     62          1           0       31.503907    0.921400   -1.278710
     63          1           0       29.038612    2.720007    2.313122
     64          1           0       27.775240    1.208627    4.465179
     65          1           0       29.490308    0.259547    3.782021
     66          1           0       30.738943    1.273143    2.808816
     67          1           0       29.855030    0.001471    2.105502
     68          1           0       25.821268    3.183596    3.321719
     69          1           0       27.441237    3.834539    3.393898
     70          1           0       27.019372    4.409057    5.547838
     71          1           0       26.935778    2.688977    5.966569
     72          1           0       25.518885    3.576582    5.519696
     73          1           0       22.017269   -0.853056    5.342286
     74          1           0       23.873224   -1.033073    5.597332
     75          1           0       22.774876   -2.399203    5.156950
     76          1           0       20.521707   -2.680900    0.200007
     77          1           0       17.996958    0.560830   -0.912518
     78          1           0       16.904791   -0.297983    0.216585
     79          1           0       17.025276   -0.965440   -1.376055
     80         12           0      -25.274669    0.505502    0.126954
     81          6           0      -22.278140   -1.350188    0.449077
     82          6           0      -26.952558   -2.417260   -0.050282
     83          6           0      -27.996718    2.272271   -0.305815
     84          6           0      -23.228683    3.403236   -0.406835
     85          7           0      -24.683756   -1.697484    0.087341
     86          6           0      -23.438987   -2.150673    0.491004
     87          6           0      -23.583345   -3.604878    0.784707
     88          6           0      -24.884401   -4.014881    0.094079
     89          6           0      -25.607476   -2.645831    0.039619
     90          6           0      -24.604739   -4.552656   -1.359294
     91          6           0      -23.574586   -4.038897    2.348081
     92          6           0      -22.782814   -5.298799    2.814560
     93          1           0      -23.017478   -6.610777    2.011376
     94          7           0      -27.226475   -0.049354   -0.155253
     95          6           0      -27.687037   -1.265304   -0.175911
     96          6           0      -29.137015   -1.205248   -0.429379
     97          6           0      -29.533169    0.160184   -0.297463
     98          6           0      -28.226524    0.876876   -0.271364
     99          6           0      -30.130441   -2.384115   -0.737251
    100          6           0      -30.911312    0.816661   -0.222459
    101          8           0      -31.102709    2.047722   -0.225911
    102          6           0      -32.087233   -0.028743   -0.360154
    103          7           0      -25.529334    2.584729   -0.479344
    104          6           0      -26.823704    3.097914   -0.474222
    105          6           0      -26.749097    4.671234   -0.559939
    106          6           0      -25.231787    4.961871   -0.446462
    107          6           0      -24.605780    3.566218   -0.399895
    108          6           0      -27.483708    5.239076   -1.774630
    109          6           0      -24.803298    5.928747    0.685955
    110          6           0      -23.681434    6.947563    0.377427
    111          7           0      -23.201893    0.984323    0.014448
    112          6           0      -22.524015    2.169216   -0.254263
    113          6           0      -21.115436    1.948318   -0.046726
    114          6           0      -20.973779    0.577166    0.171958
    115          6           0      -22.272174   -0.001200    0.219771
    116          6           0      -20.098065    2.915386   -0.044169
    117          6           0      -20.024659   -0.505663    0.469700
    118          8           0      -18.814711   -0.526924    0.630801
    119          6           0      -20.859785   -1.809713    0.687414
    120          6           0      -20.339997   -2.846867   -0.292062
    121          8           0      -20.569865   -3.080053   -1.457133
    122          8           0      -19.548771   -3.615726    0.511666
    123          6           0      -19.124936   -4.940376   -0.001317
    124          1           0      -27.518404   -3.351158   -0.020735
    125          1           0      -28.933562    2.829485   -0.241310
    126          1           0      -22.608338    4.299086   -0.342360
    127          1           0      -22.798910   -4.252276    0.391949
    128          1           0      -25.514645   -4.643580    0.722598
    129          1           0      -25.299124   -5.326309   -1.685256
    130          1           0      -23.651013   -5.073245   -1.449268
    131          1           0      -24.738937   -3.687162   -2.007247
    132          1           0      -24.598624   -4.066551    2.719023
    133          1           0      -23.175268   -3.221619    2.949814
    134          1           0      -23.211730   -5.485070    3.799827
    135          1           0      -21.756088   -4.933804    2.786809
    136          1           0      -30.852956   -2.603279    0.048579
    137          1           0      -29.521646   -3.269739   -0.921441
    138          1           0      -30.817434   -2.208536   -1.565130
    139          1           0      -32.071370   -0.840073    0.368056
    140          1           0      -32.150785   -0.443004   -1.366439
    141          1           0      -32.941083    0.566398   -0.037828
    142          1           0      -27.168440    5.040533    0.376061
    143          1           0      -24.835943    5.308111   -1.401004
    144          1           0      -26.792690    5.289887   -2.616711
    145          1           0      -27.824506    6.267417   -1.658630
    146          1           0      -28.199503    4.499810   -2.132592
    147          1           0      -24.568408    5.433217    1.627835
    148          1           0      -25.649329    6.526332    1.028052
    149          1           0      -22.782381    6.480310    0.779538
    150          1           0      -23.917349    7.813395    0.996953
    151          1           0      -23.620821    7.127028   -0.695638
    152          1           0      -19.066908    2.623143   -0.241403
    153          1           0      -20.175618    3.446615    0.904975
    154          1           0      -20.342406    3.589433   -0.864384
    155          1           0      -20.755861   -2.151709    1.716977
    156          1           0      -19.254704   -5.615265    0.844237
    157          1           0      -18.088158   -5.022045   -0.326705
    158          1           0      -19.788715   -5.257648   -0.805151
 ---------------------------------------------------------------------

 SCF Done:  E(RCAM-B3LYP) =  -4069.79504101     A.U. after   17 cycles

 Excitation energies and oscillator strengths:

 Excited State   1:      Singlet-A      1.6651 eV  744.62 nm  f=0.3774  <S**2>=0.000
     309 -> 316        0.17251
     311 -> 313        0.68782
     309 <- 316        0.10780
 This state for optimization and/or second-order correction.
 Total Energy, E(TD-HF/TD-DFT) =  -4069.73385059
 Copying the excited state density for this state as the 1-particle RhoCI density.

 Excited State   2:      Singlet-A      1.7330 eV  715.44 nm  f=0.3833  <S**2>=0.000
     310 -> 315        0.19056
     312 -> 314        0.68152
     310 <- 315        0.10758

 Excited State   3:      Singlet-A      2.2617 eV  548.20 nm  f=0.0685  <S**2>=0.000
     310 -> 314        0.62174
     312 -> 315       -0.32225

 Excited State   4:      Singlet-A      2.2662 eV  547.11 nm  f=0.1012  <S**2>=0.000
     309 -> 313        0.62923
     311 -> 316       -0.31015

 Excited State   5:      Singlet-A      3.1317 eV  395.90 nm  f=0.0000  <S**2>=0.000
     312 -> 313        0.70710

 The electronic state is 1-A.
 Alpha  occ. eigenvalues --  -46.89361 -46.88566 -19.24586 -19.24349 -19.20410
 Alpha  occ. eigenvalues --  -19.20021 -19.19250 -19.19108 -19.18672 -19.18236
 Alpha  occ. eigenvalues --  -14.42360 -14.41871 -14.41769 -14.41416 -14.39849
 Alpha  occ. eigenvalues --  -14.39580 -14.39519 -14.38946 -10.39227 -10.39223
 Alpha  occ. eigenvalues --  -10.35516 -10.34977 -10.34806 -10.34592 -10.31690
 Alpha  occ. eigenvalues --  -10.31443 -10.31416 -10.31195 -10.30932 -10.30805
 Alpha  occ. eigenvalues --  -10.30802 -10.30742 -10.30643 -10.30568 -10.30454
 Alpha  occ. eigenvalues --  -10.30332 -10.30033 -10.29978 -10.29934 -10.29857
 Alpha  occ. eigenvalues --  -10.29535 -10.29445 -10.29303 -10.28701 -10.28503
 Alpha  occ. eigenvalues --  -10.28490 -10.28319 -10.28271 -10.28204 -10.28109
 Alpha  occ. eigenvalues --  -10.28034 -10.27909 -10.27889 -10.27805 -10.27730
 Alpha  occ. eigenvalues --  -10.27703 -10.27659 -10.27573 -10.27523 -10.27473
 Alpha  occ. eigenvalues --  -10.27420 -10.27345 -10.27306 -10.27174 -10.27027
 Alpha  occ. eigenvalues --  -10.26736 -10.26681 -10.26606 -10.26550 -10.26531
 Alpha  occ. eigenvalues --  -10.26494 -10.26472 -10.26377 -10.26363 -10.26197
 Alpha  occ. eigenvalues --  -10.26042 -10.25985 -10.25795 -10.25704 -10.25619
 Alpha  occ. eigenvalues --  -10.25499 -10.25477 -10.25357 -10.25247 -10.25114
 Alpha  occ. eigenvalues --  -10.24787  -3.17749  -3.17211  -1.92646  -1.92206
 Alpha  occ. eigenvalues --   -1.92073  -1.92041  -1.91671  -1.91529  -1.17248
 Alpha  occ. eigenvalues --   -1.16105  -1.10396  -1.09935  -1.09581  -1.09356
 Alpha  occ. eigenvalues --   -1.08943  -1.07750  -1.05144  -1.04569  -1.03980
 Alpha  occ. eigenvalues --   -1.03931  -1.03324  -1.03046  -1.02613  -1.02060
 Alpha  occ. eigenvalues --   -0.93168  -0.92757  -0.89852  -0.89417  -0.88871
 Alpha  occ. eigenvalues --   -0.88468  -0.88373  -0.87976  -0.87553  -0.87511
 Alpha  occ. eigenvalues --   -0.87118  -0.86875  -0.86321  -0.85791  -0.84731
 Alpha  occ. eigenvalues --   -0.84223  -0.84155  -0.83582  -0.82722  -0.82698
 Alpha  occ. eigenvalues --   -0.82459  -0.81677  -0.81492  -0.80861  -0.80586
 Alpha  occ. eigenvalues --   -0.80500  -0.78378  -0.77934  -0.77493  -0.77441
 Alpha  occ. eigenvalues --   -0.77023  -0.76833  -0.76031  -0.75851  -0.75121
 Alpha  occ. eigenvalues --   -0.75108  -0.72690  -0.72498  -0.71807  -0.71677
 Alpha  occ. eigenvalues --   -0.69616  -0.68888  -0.68795  -0.68743  -0.68671
 Alpha  occ. eigenvalues --   -0.67688  -0.67356  -0.67072  -0.65853  -0.65467
 Alpha  occ. eigenvalues --   -0.65300  -0.65066  -0.65038  -0.64524  -0.64365
 Alpha  occ. eigenvalues --   -0.64318  -0.62084  -0.61928  -0.60472  -0.59992
 Alpha  occ. eigenvalues --   -0.59595  -0.59402  -0.59225  -0.59050  -0.58928
 Alpha  occ. eigenvalues --   -0.58310  -0.58123  -0.57933  -0.57491  -0.57367
 Alpha  occ. eigenvalues --   -0.56548  -0.56144  -0.56089  -0.55887  -0.55404
 Alpha  occ. eigenvalues --   -0.55193  -0.55085  -0.54591  -0.54453  -0.54059
 Alpha  occ. eigenvalues --   -0.53689  -0.53558  -0.53237  -0.53215  -0.53027
 Alpha  occ. eigenvalues --   -0.52939  -0.52840  -0.52418  -0.52361  -0.52269
 Alpha  occ. eigenvalues --   -0.52112  -0.52111  -0.51675  -0.51604  -0.51559
 Alpha  occ. eigenvalues --   -0.51407  -0.51194  -0.51148  -0.50915  -0.50790
 Alpha  occ. eigenvalues --   -0.50404  -0.50120  -0.49967  -0.49599  -0.49590
 Alpha  occ. eigenvalues --   -0.49389  -0.49349  -0.49238  -0.48974  -0.48923
 Alpha  occ. eigenvalues --   -0.48827  -0.48754  -0.48586  -0.48350  -0.48167
 Alpha  occ. eigenvalues --   -0.47652  -0.47542  -0.47380  -0.47182  -0.47122
 Alpha  occ. eigenvalues --   -0.47093  -0.46891  -0.46885  -0.46767  -0.46639
 Alpha  occ. eigenvalues --   -0.46363  -0.46245  -0.45990  -0.45910  -0.45867
 Alpha  occ. eigenvalues --   -0.45539  -0.45489  -0.45213  -0.45022  -0.44917
 Alpha  occ. eigenvalues --   -0.44682  -0.44662  -0.44359  -0.44343  -0.44037
 Alpha  occ. eigenvalues --   -0.44034  -0.43888  -0.43838  -0.43675  -0.43586
 Alpha  occ. eigenvalues --   -0.43217  -0.43008  -0.42957  -0.42790  -0.42711
 Alpha  occ. eigenvalues --   -0.42508  -0.42367  -0.42295  -0.42185  -0.42152
 Alpha  occ. eigenvalues --   -0.42112  -0.41906  -0.41889  -0.41530  -0.41230
 Alpha  occ. eigenvalues --   -0.41104  -0.40857  -0.40759  -0.40542  -0.40385
 Alpha  occ. eigenvalues --   -0.40238  -0.39844  -0.39810  -0.39602  -0.39141
 Alpha  occ. eigenvalues --   -0.38765  -0.38439  -0.37865  -0.37655  -0.37384
 Alpha  occ. eigenvalues --   -0.37317  -0.37023  -0.36515  -0.36439  -0.36427
 Alpha  occ. eigenvalues --   -0.35920  -0.35748  -0.35087  -0.34654  -0.34215
 Alpha  occ. eigenvalues --   -0.33890  -0.33092  -0.33011  -0.31679  -0.31364
 Alpha  occ. eigenvalues --   -0.31161  -0.31086  -0.30550  -0.30524  -0.30453
 Alpha  occ. eigenvalues --   -0.29890  -0.29640  -0.29249  -0.24296  -0.23960
 Alpha  occ. eigenvalues --   -0.21033  -0.20961
 Alpha virt. eigenvalues --   -0.08766  -0.08268  -0.02050  -0.01775  -0.00128
 Alpha virt. eigenvalues --    0.00231   0.01395   0.01760   0.02329   0.02537
 Alpha virt. eigenvalues --    0.05069   0.05206   0.05444   0.05790   0.05907

 Mulliken charges:
               1
     1  Mg   0.832736
     2  C   -0.065564
     3  C   -0.081989
     4  C   -0.051840
     5  C   -0.084148
     6  N   -0.298296
     7  C   -0.025818
     8  C    0.018495
     9  C   -0.084325
    10  C    0.035855
    11  C    0.085087
    12  C    0.008040
    13  C   -0.055356
    14  H    0.025517
    15  N   -0.351561
    16  C    0.137568
    17  C   -0.183562
    18  C   -0.001213
    19  C    0.138272
    20  C    0.160172
    21  C   -0.032213
    22  O   -0.208006
    23  C    0.057960
    24  N   -0.289629
    25  C    0.015905
    26  C   -0.027207
    27  C   -0.062464
    28  C    0.016102
    29  C    0.089649
    30  C    0.056720
    31  C    0.010154
    32  N   -0.344921
    33  C    0.137346
    34  C   -0.195332
    35  C   -0.004412
    36  C    0.133847
    37  C    0.146232
    38  C    0.051138
    39  O   -0.169696
    40  C    0.007116
    41  C    0.187072
    42  O   -0.181050
    43  O   -0.345669
    44  C    0.175640
    45  H   -0.026732
    46  H   -0.055809
    47  H   -0.024811
    48  H    0.014641
    49  H    0.028496
    50  H    0.016097
    51  H    0.023449
    52  H    0.024289
    53  H   -0.006907
    54  H   -0.001122
    55  H    0.031129
    56  H    0.037566
    57  H    0.042134
    58  H   -0.001149
    59  H    0.032063
    60  H    0.043732
    61  H    0.018221
    62  H    0.031555
    63  H    0.006919
    64  H    0.007264
    65  H    0.018872
    66  H    0.023698
    67  H    0.006581
    68  H    0.033398
    69  H   -0.000402
    70  H    0.016104
    71  H    0.005055
    72  H    0.013774
    73  H    0.046485
    74  H    0.016159
    75  H    0.034355
    76  H    0.034149
    77  H    0.056370
    78  H    0.035455
    79  H    0.036572
    80  Mg   0.808025
    81  C   -0.037958
    82  C   -0.089794
    83  C   -0.053010
    84  C   -0.086835
    85  N   -0.255067
    86  C    0.011436
    87  C   -0.052175
    88  C   -0.029225
    89  C   -0.033307
    90  C    0.087636
    91  C    0.015891
    92  C   -0.056949
    93  H    0.015480
    94  N   -0.338733
    95  C    0.178092
    96  C   -0.150822
    97  C   -0.029488
    98  C    0.090550
    99  C    0.102833
   100  C    0.020439
   101  O   -0.219870
   102  C    0.059537
   103  N   -0.286768
   104  C    0.009218
   105  C   -0.007523
   106  C   -0.009750
   107  C    0.041948
   108  C    0.096740
   109  C    0.007903
   110  C    0.017129
   111  N   -0.353016
   112  C    0.116911
   113  C   -0.178598
   114  C    0.026939
   115  C    0.138508
   116  C    0.109214
   117  C    0.030122
   118  O   -0.162834
   119  C   -0.011625
   120  C    0.215711
   121  O   -0.195419
   122  O   -0.342974
   123  C    0.168215
   124  H   -0.039322
   125  H   -0.000880
   126  H   -0.036911
   127  H    0.001997
   128  H   -0.005758
   129  H    0.006470
   130  H    0.024721
   131  H    0.035949
   132  H   -0.001571
   133  H   -0.000257
   134  H    0.042180
   135  H    0.049219
   136  H    0.021989
   137  H    0.018328
   138  H    0.019670
   139  H    0.017022
   140  H    0.053762
   141  H    0.028148
   142  H    0.011540
   143  H    0.009123
   144  H   -0.005881
   145  H    0.023804
   146  H    0.026160
   147  H   -0.000012
   148  H   -0.001194
   149  H    0.023417
   150  H    0.015938
   151  H    0.024083
   152  H    0.035017
   153  H    0.030453
   154  H    0.016864
   155  H    0.051187
   156  H    0.029863
   157  H    0.045945
   158  H    0.042205
 Sum of Mulliken charges =  -0.00000

 Dipole moment (field-independent basis, Debye):
    X=             -1.5879    Y=             -2.1431    Z=              3.0283  Tot=              4.0354
 Quadrupole moment (field-independent basis, Debye-Ang):
   XX=           -288.0453   YY=           -477.6754   ZZ=           -510.8348
   XY=             34.7804   XZ=              6.4468   YZ=             11.8936

 Normal termination of Gaussian 16 at Tue Sep 14 18:46:51 2021.
