 Gaussian 16, Revision A.03,
 Gaussian 16:  ES64L-G16RevA.03 25-Dec-2016

 -----------------------------------
 #p cam-b3lyp/Def2SVP td=(nstates=5)
 -----------------------------------

 --------------------------------
 TDDFT excited states in gaussian
 --------------------------------
 Symbolic Z-matrix:
 Charge =  0 Multiplicity = 1

                         Standard orientation:
 ---------------------------------------------------------------------
 Center     Atomic      Atomic             Coordinates (Angstroms)
 Number     Number       Type             X           Y           Z
 ---------------------------------------------------------------------
      1         12           0      -13.027118    0.637391    0.386178
      2          6           0      -11.558515   -2.237066   -1.172765
      3          6           0      -15.045037   -1.352300    2.044707
      4          6           0      -14.750344    3.384416    1.070855
      5          6           0      -10.911075    2.626112   -1.871273
      6          7           0      -13.229043   -1.551431    0.453795
      7          6           0      -12.565150   -2.557420   -0.276120
      8          6           0      -13.056300   -4.016147    0.060072
      9          6           0      -14.180938   -3.623375    1.201364
     10          6           0      -14.173970   -2.099957    1.279798
     11          6           0      -15.629696   -4.159724    0.830032
     12          6           0      -11.944184   -5.023666    0.516209
     13          6           0      -12.437971   -6.279263    1.224945
     14          1           0      -12.202381   -7.589126    0.450777
     15          7           0      -14.622933    0.973484    1.504146
     16          6           0      -15.380431    0.045686    2.179648
     17          6           0      -16.447674    0.655692    2.944322
     18          6           0      -16.324822    2.069909    2.643450
     19          6           0      -15.124235    2.188371    1.741475
     20          6           0      -17.364958   -0.016200    3.854007
     21          6           0      -17.145108    3.248251    3.138948
     22          8           0      -16.877699    4.395301    2.914255
     23          6           0      -18.401515    2.873485    3.879178
     24          7           0      -12.894942    2.712109   -0.354229
     25          6           0      -13.736658    3.652324    0.144382
     26          6           0      -13.377818    5.062273   -0.396346
     27          6           0      -12.070895    4.783741   -1.217265
     28          6           0      -11.902214    3.280327   -1.111055
     29          6           0      -14.457222    5.830680   -1.232429
     30          6           0      -10.774423    5.517831   -0.723815
     31          6           0      -10.722040    7.007158   -1.130468
     32          7           0      -11.572903    0.348339   -1.195744
     33          6           0      -10.779971    1.202919   -1.926469
     34          6           0       -9.874740    0.444049   -2.694229
     35          6           0      -10.142103   -0.860184   -2.507051
     36          6           0      -11.226529   -0.918101   -1.579977
     37          6           0       -8.771327    1.113552   -3.503042
     38          6           0       -9.867889   -2.257381   -2.857659
     39          8           0       -9.074646   -2.729420   -3.630678
     40          6           0      -10.828355   -3.201899   -1.989154
     41          6           0      -11.802657   -3.830749   -2.933425
     42          8           0      -12.870519   -3.453507   -3.360502
     43          8           0      -11.250898   -5.059656   -3.236699
     44          6           0      -12.018562   -5.934431   -4.154690
     45          1           0      -15.791472   -1.926590    2.597195
     46          1           0      -15.443028    4.217202    1.214221
     47          1           0      -10.286981    3.357477   -2.390021
     48          1           0      -13.615499   -4.382512   -0.801001
     49          1           0      -13.895023   -4.111467    2.133385
     50          1           0      -16.088780   -4.600549    1.714778
     51          1           0      -15.740617   -4.852751   -0.003515
     52          1           0      -16.297169   -3.325160    0.617568
     53          1           0      -11.330116   -4.357212    1.123298
     54          1           0      -11.221682   -5.369015   -0.223593
     55          1           0      -13.508425   -6.186837    1.406314
     56          1           0      -11.836256   -6.431852    2.120485
     57          1           0      -17.044903    0.437448    4.791993
     58          1           0      -17.248019   -1.098785    3.802314
     59          1           0      -18.431114    0.181310    3.744501
     60          1           0      -18.195354    2.849956    4.949161
     61          1           0      -18.997295    2.113260    3.373167
     62          1           0      -19.101205    3.651367    3.574805
     63          1           0      -12.979357    5.599347    0.464915
     64          1           0      -12.278762    4.939612   -2.276080
     65          1           0      -14.173644    6.109984   -2.247572
     66          1           0      -14.557996    6.799268   -0.743261
     67          1           0      -15.420378    5.329036   -1.326101
     68          1           0       -9.900615    5.039285   -1.164610
     69          1           0      -10.757144    5.358148    0.355185
     70          1           0      -11.375337    7.191970   -1.983418
     71          1           0       -9.673044    7.221842   -1.334134
     72          1           0      -11.089781    7.692269   -0.366017
     73          1           0       -7.919093    0.446790   -3.634753
     74          1           0       -8.486931    2.041217   -3.006292
     75          1           0       -9.159992    1.459068   -4.461244
     76          1           0      -10.262308   -3.943118   -1.424486
     77          1           0      -11.275356   -6.396712   -4.804218
     78          1           0      -12.759599   -5.411240   -4.758854
     79          1           0      -12.443018   -6.623399   -3.423783
     80         12           0       13.310380    0.547320   -0.236591
     81          6           0       11.307263   -2.194644    0.594853
     82          6           0       16.034181   -1.570688   -0.195570
     83          6           0       15.377689    3.261254   -0.345484
     84          6           0       10.610683    2.618995    0.405890
     85          7           0       13.557494   -1.605274    0.066891
     86          6           0       12.591245   -2.526376    0.172945
     87          6           0       13.064146   -3.976143   -0.008519
     88          6           0       14.628011   -3.786204   -0.076733
     89          6           0       14.800276   -2.168562   -0.169926
     90          6           0       15.464409   -4.392844    1.070491
     91          6           0       12.465980   -4.695367   -1.217751
     92          6           0       12.408959   -6.224544   -1.049093
     93          1           0       12.953147   -6.858973    0.238641
     94          7           0       15.393108    0.830326   -0.378912
     95          6           0       16.369758   -0.191568   -0.414382
     96          6           0       17.668883    0.426727   -0.587614
     97          6           0       17.505966    1.862135   -0.568122
     98          6           0       16.059519    2.048277   -0.464275
     99          6           0       18.896577   -0.406111   -0.834640
    100          6           0       18.570023    3.027919   -0.794133
    101          8           0       18.276856    4.194625   -0.893858
    102          6           0       20.021507    2.605834   -0.865497
    103          7           0       13.053286    2.612908    0.088237
    104          6           0       14.034250    3.551214   -0.047338
    105          6           0       13.486663    5.015859    0.124877
    106          6           0       11.989917    4.756081    0.287470
    107          6           0       11.887655    3.242605    0.264074
    108          6           0       14.113600    6.014420    1.179408
    109          6           0       11.179456    5.417133   -0.852038
    110          6           0       11.059002    4.682676   -2.205725
    111          7           0       11.280010    0.340807    0.235410
    112          6           0       10.296501    1.267172    0.467202
    113          6           0        9.053726    0.637735    0.764940
    114          6           0        9.397058   -0.786637    0.839031
    115          6           0       10.701907   -0.873704    0.544636
    116          6           0        7.716793    1.186050    1.003280
    117          6           0        8.919208   -2.114046    1.200456
    118          8           0        7.776672   -2.501315    1.467751
    119          6           0       10.113236   -3.103457    1.059149
    120          6           0       10.376998   -3.806824    2.310280
    121          8           0       10.964953   -3.350570    3.285156
    122          8           0        9.669662   -4.982766    2.322628
    123          6           0        9.422418   -5.674310    3.602751
    124          1           0       16.836795   -2.309149   -0.137641
    125          1           0       16.001673    4.130728   -0.562398
    126          1           0        9.735684    3.263270    0.513893
    127          1           0       12.914208   -4.563267    0.897237
    128          1           0       15.058560   -4.082800   -1.032496
    129          1           0       16.179971   -4.981907    0.497113
    130          1           0       14.847320   -5.032907    1.700612
    131          1           0       15.910172   -3.604292    1.676899
    132          1           0       12.995112   -4.456330   -2.139447
    133          1           0       11.445291   -4.353235   -1.390834
    134          1           0       12.986305   -6.540976   -1.918041
    135          1           0       11.412268   -6.619379   -1.251228
    136          1           0       18.591495   -1.435349   -0.645363
    137          1           0       19.686709   -0.083995   -0.156049
    138          1           0       19.286396   -0.302020   -1.848327
    139          1           0       20.507496    2.336286    0.072756
    140          1           0       20.570432    3.396137   -1.377543
    141          1           0       19.967659    1.739082   -1.524148
    142          1           0       13.732457    5.437733   -0.849387
    143          1           0       11.710594    5.173144    1.254338
    144          1           0       13.387139    6.526805    1.809031
    145          1           0       14.624578    6.805310    0.631241
    146          1           0       14.862075    5.463824    1.750036
    147          1           0       11.632704    6.397539   -0.993478
    148          1           0       10.189792    5.581540   -0.424836
    149          1           0       11.174247    5.468821   -2.951477
    150          1           0       10.079070    4.234496   -2.368334
    151          1           0       11.754600    3.853639   -2.331023
    152          1           0        7.001700    0.544790    0.489171
    153          1           0        7.566993    2.218095    0.686046
    154          1           0        7.435695    1.037751    2.046074
    155          1           0        9.804450   -3.773817    0.257185
    156          1           0        9.907157   -5.173782    4.441685
    157          1           0        9.851420   -6.673723    3.526361
    158          1           0        8.334769   -5.633356    3.649688
 ---------------------------------------------------------------------

 SCF Done:  E(RCAM-B3LYP) =  -4069.83253570     A.U. after   19 cycles

 Excitation energies and oscillator strengths:

 Excited State   1:      Singlet-A      1.6969 eV  730.63 nm  f=0.4885  <S**2>=0.000
     309 -> 316        0.17608
     312 -> 314        0.68041
     309 <- 316        0.10668
 This state for optimization and/or second-order correction.
 Total Energy, E(TD-HF/TD-DFT) =  -4069.77017418
 Copying the excited state density for this state as the 1-particle RhoCI density.

 Excited State   2:      Singlet-A      1.7180 eV  721.66 nm  f=0.3292  <S**2>=0.000
     310 -> 315        0.18002
     311 -> 313        0.67800
     310 <- 315        0.10585

 Excited State   3:      Singlet-A      2.1354 eV  580.60 nm  f=0.1531  <S**2>=0.000
     310 -> 313        0.65929
     311 -> 315       -0.23564

 Excited State   4:      Singlet-A      2.2114 eV  560.67 nm  f=0.1398  <S**2>=0.000
     309 -> 314        0.65072
     312 -> 316       -0.26504

 Excited State   5:      Singlet-A      2.9145 eV  425.41 nm  f=0.0000  <S**2>=0.000
     312 -> 313        0.70705

 The electronic state is 1-A.
 Alpha  occ. eigenvalues --  -46.88520 -46.88210 -19.23840 -19.23791 -19.19914
 Alpha  occ. eigenvalues --  -19.19872 -19.19054 -19.18953 -19.18903 -19.18668
 Alpha  occ. eigenvalues --  -14.42247 -14.42139 -14.41858 -14.41271 -14.39577
 Alpha  occ. eigenvalues --  -14.39397 -14.38797 -14.38129 -10.38924 -10.38649
 Alpha  occ. eigenvalues --  -10.36157 -10.35212 -10.35047 -10.34725 -10.31156
 Alpha  occ. eigenvalues --  -10.31135 -10.30861 -10.30852 -10.30845 -10.30813
 Alpha  occ. eigenvalues --  -10.30676 -10.30640 -10.30318 -10.30283 -10.30137
 Alpha  occ. eigenvalues --  -10.30056 -10.30055 -10.29837 -10.29323 -10.29040
 Alpha  occ. eigenvalues --  -10.28856 -10.28835 -10.28820 -10.28806 -10.28713
 Alpha  occ. eigenvalues --  -10.28543 -10.28437 -10.28238 -10.28120 -10.28074
 Alpha  occ. eigenvalues --  -10.27742 -10.27695 -10.27627 -10.27623 -10.27542
 Alpha  occ. eigenvalues --  -10.27536 -10.27392 -10.27126 -10.27091 -10.26963
 Alpha  occ. eigenvalues --  -10.26949 -10.26917 -10.26891 -10.26883 -10.26777
 Alpha  occ. eigenvalues --  -10.26729 -10.26718 -10.26700 -10.26690 -10.26660
 Alpha  occ. eigenvalues --  -10.26559 -10.26315 -10.26295 -10.26106 -10.25956
 Alpha  occ. eigenvalues --  -10.25885 -10.25841 -10.25817 -10.25760 -10.25669
 Alpha  occ. eigenvalues --  -10.25544 -10.25523 -10.25500 -10.25437 -10.24723
 Alpha  occ. eigenvalues --  -10.24655  -3.17063  -3.16735  -1.91959  -1.91636
 Alpha  occ. eigenvalues --   -1.91499  -1.91387  -1.91187  -1.91041  -1.15655
 Alpha  occ. eigenvalues --   -1.15056  -1.11552  -1.11322  -1.10735  -1.08828
 Alpha  occ. eigenvalues --   -1.07416  -1.06611  -1.04418  -1.03757  -1.03294
 Alpha  occ. eigenvalues --   -1.03246  -1.02454  -1.02413  -1.01541  -1.00988
 Alpha  occ. eigenvalues --   -0.92963  -0.92040  -0.89151  -0.88883  -0.88772
 Alpha  occ. eigenvalues --   -0.88203  -0.88107  -0.88068  -0.87097  -0.87063
 Alpha  occ. eigenvalues --   -0.86797  -0.86427  -0.86053  -0.85970  -0.84168
 Alpha  occ. eigenvalues --   -0.83844  -0.83406  -0.83145  -0.82306  -0.82130
 Alpha  occ. eigenvalues --   -0.82003  -0.81936  -0.80967  -0.80659  -0.80139
 Alpha  occ. eigenvalues --   -0.80026  -0.78095  -0.78066  -0.77109  -0.76929
 Alpha  occ. eigenvalues --   -0.76805  -0.76590  -0.75869  -0.75494  -0.74982
 Alpha  occ. eigenvalues --   -0.74770  -0.72719  -0.72399  -0.71273  -0.71062
 Alpha  occ. eigenvalues --   -0.69788  -0.69594  -0.68703  -0.68415  -0.67670
 Alpha  occ. eigenvalues --   -0.67652  -0.66908  -0.66046  -0.64996  -0.64735
 Alpha  occ. eigenvalues --   -0.64669  -0.64560  -0.64410  -0.64362  -0.63839
 Alpha  occ. eigenvalues --   -0.63694  -0.61409  -0.61368  -0.60032  -0.59740
 Alpha  occ. eigenvalues --   -0.59423  -0.59058  -0.59050  -0.58768  -0.58283
 Alpha  occ. eigenvalues --   -0.58279  -0.57794  -0.57637  -0.57377  -0.56823
 Alpha  occ. eigenvalues --   -0.56079  -0.55825  -0.55718  -0.55404  -0.55139
 Alpha  occ. eigenvalues --   -0.54953  -0.54631  -0.54418  -0.54231  -0.54085
 Alpha  occ. eigenvalues --   -0.53673  -0.53610  -0.53317  -0.52835  -0.52647
 Alpha  occ. eigenvalues --   -0.52610  -0.52327  -0.52296  -0.52101  -0.51945
 Alpha  occ. eigenvalues --   -0.51900  -0.51578  -0.51573  -0.51290  -0.50945
 Alpha  occ. eigenvalues --   -0.50770  -0.50604  -0.50489  -0.50193  -0.50143
 Alpha  occ. eigenvalues --   -0.49753  -0.49640  -0.49625  -0.49552  -0.49436
 Alpha  occ. eigenvalues --   -0.49334  -0.49106  -0.49030  -0.48970  -0.48777
 Alpha  occ. eigenvalues --   -0.48510  -0.48357  -0.48198  -0.48100  -0.47921
 Alpha  occ. eigenvalues --   -0.47765  -0.47700  -0.47592  -0.47080  -0.47008
 Alpha  occ. eigenvalues --   -0.46714  -0.46709  -0.46288  -0.46223  -0.46092
 Alpha  occ. eigenvalues --   -0.45841  -0.45792  -0.45691  -0.45613  -0.45401
 Alpha  occ. eigenvalues --   -0.45248  -0.45214  -0.45123  -0.44996  -0.44990
 Alpha  occ. eigenvalues --   -0.44794  -0.44668  -0.44610  -0.44234  -0.43937
 Alpha  occ. eigenvalues --   -0.43929  -0.43764  -0.43608  -0.43429  -0.43373
 Alpha  occ. eigenvalues --   -0.43153  -0.43139  -0.43024  -0.42757  -0.42711
 Alpha  occ. eigenvalues --   -0.42643  -0.42500  -0.42331  -0.42021  -0.41895
 Alpha  occ. eigenvalues --   -0.41767  -0.41570  -0.41465  -0.41069  -0.41063
 Alpha  occ. eigenvalues --   -0.40898  -0.40852  -0.40726  -0.40583  -0.40427
 Alpha  occ. eigenvalues --   -0.40197  -0.39883  -0.39295  -0.38737  -0.38481
 Alpha  occ. eigenvalues --   -0.38358  -0.38057  -0.37805  -0.37703  -0.37655
 Alpha  occ. eigenvalues --   -0.36959  -0.36595  -0.36488  -0.36292  -0.36090
 Alpha  occ. eigenvalues --   -0.35682  -0.35639  -0.34588  -0.34286  -0.33887
 Alpha  occ. eigenvalues --   -0.33767  -0.33241  -0.32541  -0.31574  -0.31263
 Alpha  occ. eigenvalues --   -0.30850  -0.30784  -0.30779  -0.30515  -0.30060
 Alpha  occ. eigenvalues --   -0.29690  -0.29572  -0.28619  -0.23538  -0.23480
 Alpha  occ. eigenvalues --   -0.21284  -0.20911
 Alpha virt. eigenvalues --   -0.08880  -0.08483  -0.01279  -0.01080   0.00637
 Alpha virt. eigenvalues --    0.00932   0.02520   0.02525   0.02646   0.02727
 Alpha virt. eigenvalues --    0.05000   0.05177   0.05367   0.05904   0.06041

 Mulliken charges:
               1
     1  Mg   0.840209
     2  C   -0.023535
     3  C   -0.059900
     4  C   -0.059532
     5  C   -0.088211
     6  N   -0.312906
     7  C   -0.052824
     8  C    0.013278
     9  C   -0.070178
    10  C    0.084892
    11  C    0.032894
    12  C    0.022232
    13  C   -0.067094
    14  H    0.013076
    15  N   -0.403461
    16  C    0.093523
    17  C   -0.114464
    18  C   -0.089717
    19  C    0.139416
    20  C    0.129809
    21  C   -0.007927
    22  O   -0.175203
    23  C    0.037103
    24  N   -0.268494
    25  C    0.008177
    26  C    0.022492
    27  C   -0.064404
    28  C   -0.003218
    29  C    0.067840
    30  C    0.012971
    31  C    0.024890
    32  N   -0.316167
    33  C    0.150981
    34  C   -0.226448
    35  C    0.063402
    36  C    0.099516
    37  C    0.138205
    38  C    0.034532
    39  O   -0.135558
    40  C   -0.039688
    41  C    0.217437
    42  O   -0.203507
    43  O   -0.356755
    44  C    0.167149
    45  H   -0.052266
    46  H   -0.001904
    47  H   -0.022151
    48  H    0.024604
    49  H    0.022183
    50  H    0.009483
    51  H    0.028635
    52  H    0.021678
    53  H    0.009588
    54  H    0.037250
    55  H    0.040038
    56  H    0.040453
    57  H    0.035111
    58  H    0.015695
    59  H    0.025318
    60  H    0.055333
    61  H    0.027281
    62  H    0.014854
    63  H    0.011961
    64  H    0.007709
    65  H    0.012329
    66  H    0.017540
    67  H    0.029838
    68  H    0.004844
    69  H    0.008161
    70  H    0.011262
    71  H    0.020269
    72  H    0.015844
    73  H    0.034718
    74  H    0.007420
    75  H    0.021642
    76  H    0.051992
    77  H    0.045620
    78  H    0.055890
    79  H    0.036942
    80  Mg   0.823084
    81  C    0.006443
    82  C   -0.075158
    83  C   -0.064081
    84  C   -0.084806
    85  N   -0.287757
    86  C   -0.049476
    87  C   -0.003285
    88  C   -0.105762
    89  C    0.045259
    90  C    0.081861
    91  C    0.056979
    92  C   -0.056553
    93  H    0.033284
    94  N   -0.398848
    95  C    0.148713
    96  C   -0.158271
    97  C   -0.054764
    98  C    0.106840
    99  C    0.107926
   100  C    0.035158
   101  O   -0.175893
   102  C    0.039524
   103  N   -0.264173
   104  C    0.020559
   105  C   -0.037446
   106  C    0.004162
   107  C    0.026920
   108  C    0.071310
   109  C    0.003289
   110  C    0.023084
   111  N   -0.363423
   112  C    0.130877
   113  C   -0.149132
   114  C    0.007118
   115  C    0.102506
   116  C    0.128362
   117  C    0.019683
   118  O   -0.184880
   119  C    0.009721
   120  C    0.206532
   121  O   -0.224868
   122  O   -0.347388
   123  C    0.166009
   124  H   -0.022175
   125  H   -0.007244
   126  H   -0.041566
   127  H    0.017775
   128  H    0.005516
   129  H    0.018261
   130  H    0.021336
   131  H    0.034460
   132  H    0.006365
   133  H    0.007392
   134  H    0.018440
   135  H    0.031329
   136  H    0.004027
   137  H    0.025125
   138  H    0.045385
   139  H    0.059557
   140  H    0.027270
   141  H    0.011670
   142  H    0.014061
   143  H    0.008302
   144  H    0.018855
   145  H    0.013812
   146  H    0.029113
   147  H    0.005350
   148  H    0.006333
   149  H    0.017069
   150  H    0.015080
   151  H    0.026926
   152  H    0.029968
   153  H    0.012622
   154  H    0.034280
   155  H    0.043502
   156  H    0.050238
   157  H    0.036859
   158  H    0.055469
 Sum of Mulliken charges =  -0.00000

 Dipole moment (field-independent basis, Debye):
    X=              0.9384    Y=             -1.4111    Z=              0.4779  Tot=              1.7607
 Quadrupole moment (field-independent basis, Debye-Ang):
   XX=           -404.7935   YY=           -475.6182   ZZ=           -515.8851
   XY=             -1.4928   XZ=            -70.3861   YZ=            -13.1587

 Normal termination of Gaussian 16 at Wed Sep 15 07:50:48 2021.
