 Gaussian 16, Revision A.03,
 Gaussian 16:  ES64L-G16RevA.03 25-Dec-2016

 -----------------------------------
 #p cam-b3lyp/Def2SVP td=(nstates=5)
 -----------------------------------

 --------------------------------
 TDDFT excited states in gaussian
 --------------------------------
 Symbolic Z-matrix:
 Charge =  0 Multiplicity = 1

                         Standard orientation:
 ---------------------------------------------------------------------
 Center     Atomic      Atomic             Coordinates (Angstroms)
 Number     Number       Type             X           Y           Z
 ---------------------------------------------------------------------
      1         12           0       19.750794    0.442317   -0.105051
      2          6           0       19.011202   -2.972273    0.495200
      3          6           0       16.537998    1.159312    0.726500
      4          6           0       20.689365    3.702320    0.120457
      5          6           0       23.088987   -0.440498   -0.404797
      6          7           0       18.083464   -0.862962    0.684137
      7          6           0       17.930421   -2.221783    0.763287
      8          6           0       16.543290   -2.606097    1.122619
      9          6           0       15.713548   -1.263714    0.853888
     10          6           0       16.813272   -0.261559    0.763886
     11          6           0       14.860698   -1.365851   -0.400386
     12          6           0       16.576307   -3.140213    2.563192
     13          6           0       15.969024   -4.582470    2.825903
     14          1           0       14.854834   -4.810520    3.891397
     15          7           0       18.798984    2.224229    0.306532
     16          6           0       17.419154    2.299776    0.541855
     17          6           0       17.054510    3.684680    0.546901
     18          6           0       18.241483    4.480056    0.405152
     19          6           0       19.305426    3.462425    0.193037
     20          6           0       15.596636    4.107283    0.674986
     21          6           0       18.384593    5.985583    0.417979
     22          8           0       17.277275    6.596318    0.454423
     23          6           0       19.681790    6.839084    0.499392
     24          7           0       21.644355    1.524395   -0.144588
     25          6           0       21.756212    2.868652   -0.064767
     26          6           0       23.226298    3.363276   -0.108486
     27          6           0       23.987793    2.022546   -0.391761
     28          6           0       22.815550    0.941285   -0.251705
     29          6           0       23.380603    4.410522   -1.196791
     30          6           0       25.112640    1.711490    0.547778
     31          6           0       26.473121    1.765770   -0.092589
     32          7           0       20.845421   -1.263515   -0.166834
     33          6           0       22.207235   -1.536614   -0.347513
     34          6           0       22.443440   -2.875722   -0.540045
     35          6           0       21.205303   -3.486748   -0.254938
     36          6           0       20.296626   -2.472972    0.040001
     37          6           0       23.744760   -3.430024   -1.080105
     38          6           0       20.499996   -4.795916   -0.242267
     39          8           0       20.917916   -5.880964   -0.503980
     40          6           0       19.081574   -4.428139    0.336609
     41          6           0       18.065481   -5.237801   -0.439047
     42          8           0       17.494838   -6.240646   -0.009961
     43          8           0       17.827940   -4.647383   -1.704050
     44          6           0       16.760559   -5.321597   -2.442539
     45          1           0       15.470450    1.385562    0.772482
     46          1           0       21.022831    4.742159    0.086077
     47          1           0       24.118467   -0.777207   -0.270724
     48          1           0       16.205603   -3.404253    0.461425
     49          1           0       15.048696   -1.101246    1.701806
     50          1           0       15.343872   -1.918423   -1.205013
     51          1           0       14.724588   -0.361647   -0.803204
     52          1           0       13.858504   -1.754759   -0.220365
     53          1           0       16.040089   -2.420671    3.181755
     54          1           0       17.564233   -3.108024    3.022617
     55          1           0       16.868190   -5.104991    3.153387
     56          1           0       15.749038   -5.085137    1.884816
     57          1           0       15.118891    3.615868    1.522569
     58          1           0       15.102937    3.764221   -0.234149
     59          1           0       15.393122    5.157743    0.887362
     60          1           0       20.144981    6.677374   -0.473432
     61          1           0       20.305468    6.445753    1.302232
     62          1           0       19.479552    7.889773    0.709062
     63          1           0       23.566799    3.828227    0.816360
     64          1           0       24.268932    1.970882   -1.443299
     65          1           0       22.603086    5.159688   -1.046444
     66          1           0       23.241606    3.920054   -2.160768
     67          1           0       24.348210    4.887905   -1.346831
     68          1           0       25.064078    0.708261    0.971193
     69          1           0       25.188975    2.328296    1.443008
     70          1           0       27.090858    2.445342    0.493213
     71          1           0       26.453340    2.203954   -1.090439
     72          1           0       26.947644    0.792000   -0.218442
     73          1           0       23.518160   -4.437105   -1.431643
     74          1           0       24.522620   -3.476727   -0.318340
     75          1           0       24.026196   -2.743696   -1.878448
     76          1           0       19.103661   -4.922186    1.308652
     77          1           0       16.279152   -4.630223   -3.134299
     78          1           0       15.934547   -5.594105   -1.787151
     79          1           0       17.097988   -6.223491   -2.953994
     80         12           0      -19.921593   -0.188974    0.473504
     81          6           0      -17.438762    1.176946   -1.483977
     82          6           0      -21.130662   -1.889268   -2.427433
     83          6           0      -22.518121   -1.244145    2.178594
     84          6           0      -18.801530    1.623798    3.234456
     85          7           0      -19.284901   -0.289875   -1.670799
     86          6           0      -18.232962    0.319352   -2.225634
     87          6           0      -18.103788   -0.148017   -3.712091
     88          6           0      -19.408816   -1.029065   -3.980241
     89          6           0      -20.043078   -1.039589   -2.575954
     90          6           0      -20.457495   -0.443276   -4.906128
     91          6           0      -16.776614   -0.840044   -4.057580
     92          6           0      -16.134824   -0.224649   -5.289688
     93          1           0      -15.195190   -1.043592   -6.186647
     94          7           0      -21.541374   -1.463822   -0.049427
     95          6           0      -21.844077   -2.090173   -1.223993
     96          6           0      -22.973821   -2.900888   -1.117548
     97          6           0      -23.506710   -2.657651    0.196301
     98          6           0      -22.501427   -1.756846    0.859258
     99          6           0      -23.503137   -3.779486   -2.241721
    100          6           0      -24.812733   -3.143132    0.803722
    101          8           0      -25.165919   -2.674189    1.903132
    102          6           0      -25.720696   -4.052017    0.080619
    103          7           0      -20.505732    0.131300    2.395021
    104          6           0      -21.619341   -0.467699    2.947158
    105          6           0      -21.895180   -0.080618    4.447517
    106          6           0      -20.508648    0.614086    4.790441
    107          6           0      -19.898964    0.827106    3.392790
    108          6           0      -23.120785    0.829487    4.853756
    109          6           0      -19.578735   -0.048621    5.905534
    110          6           0      -18.798445   -1.258814    5.464754
    111          7           0      -18.556398    1.214934    0.833037
    112          6           0      -18.174846    1.891719    1.975848
    113          6           0      -17.088774    2.754543    1.747899
    114          6           0      -16.762180    2.464203    0.418221
    115          6           0      -17.675532    1.512253   -0.121472
    116          6           0      -16.483810    3.555037    2.821295
    117          6           0      -15.879800    2.921196   -0.585279
    118          8           0      -15.060906    3.839242   -0.507622
    119          6           0      -16.240132    2.082723   -1.920233
    120          6           0      -16.574137    3.009713   -2.987167
    121          8           0      -17.597649    3.644176   -3.103247
    122          8           0      -15.537185    3.171989   -3.799702
    123          6           0      -15.620480    4.142442   -4.849032
    124          1           0      -21.522356   -2.363072   -3.329479
    125          1           0      -23.322833   -1.510006    2.866756
    126          1           0      -18.485559    2.174677    4.122851
    127          1           0      -18.216719    0.808672   -4.221088
    128          1           0      -19.049096   -1.922647   -4.491576
    129          1           0      -20.166043    0.490259   -5.388381
    130          1           0      -21.358209   -0.195602   -4.345100
    131          1           0      -20.809837   -1.209756   -5.597052
    132          1           0      -16.842988   -1.918949   -4.198872
    133          1           0      -16.115908   -0.729530   -3.198044
    134          1           0      -15.474847    0.560474   -4.918976
    135          1           0      -16.957247    0.150744   -5.898332
    136          1           0      -22.784963   -3.866944   -3.057063
    137          1           0      -24.349920   -3.276436   -2.709144
    138          1           0      -23.881734   -4.725272   -1.855897
    139          1           0      -26.733714   -3.986018    0.479131
    140          1           0      -25.375038   -5.066877    0.279721
    141          1           0      -25.733814   -3.808953   -0.981579
    142          1           0      -21.884378   -0.948468    5.107697
    143          1           0      -20.713091    1.570282    5.270482
    144          1           0      -23.670391    1.068539    3.944178
    145          1           0      -22.748578    1.817638    5.127073
    146          1           0      -23.800669    0.468377    5.625958
    147          1           0      -20.254791   -0.414230    6.678052
    148          1           0      -18.922768    0.656951    6.413984
    149          1           0      -17.871809   -1.260603    6.037664
    150          1           0      -18.571286   -1.429555    4.413194
    151          1           0      -19.408393   -2.125222    5.720540
    152          1           0      -16.505391    3.167091    3.839377
    153          1           0      -16.723168    4.617746    2.819355
    154          1           0      -15.443616    3.574735    2.497158
    155          1           0      -15.357000    1.507653   -2.197902
    156          1           0      -16.031548    3.724704   -5.768775
    157          1           0      -14.598769    4.441043   -5.082921
    158          1           0      -16.251263    4.974191   -4.534969
 ---------------------------------------------------------------------

 SCF Done:  E(RCAM-B3LYP) =  -4069.82429678     A.U. after   17 cycles

 Excitation energies and oscillator strengths:

 Excited State   1:      Singlet-A      1.6837 eV  736.38 nm  f=0.3614  <S**2>=0.000
     309 -> 315        0.17380
     311 -> 313        0.68637
     309 <- 315        0.10787
 This state for optimization and/or second-order correction.
 Total Energy, E(TD-HF/TD-DFT) =  -4069.76242206
 Copying the excited state density for this state as the 1-particle RhoCI density.

 Excited State   2:      Singlet-A      1.7068 eV  726.42 nm  f=0.4174  <S**2>=0.000
     310 -> 316        0.17252
     312 -> 314        0.68627
     310 <- 316        0.10530

 Excited State   3:      Singlet-A      2.2196 eV  558.58 nm  f=0.1645  <S**2>=0.000
     309 -> 313        0.64831
     311 -> 315       -0.26667

 Excited State   4:      Singlet-A      2.2215 eV  558.10 nm  f=0.1548  <S**2>=0.000
     310 -> 314        0.65285
     312 -> 316       -0.25392

 Excited State   5:      Singlet-A      3.0692 eV  403.97 nm  f=0.0000  <S**2>=0.000
     312 -> 313        0.70710

 The electronic state is 1-A.
 Alpha  occ. eigenvalues --  -46.89016 -46.87688 -19.25638 -19.24831 -19.21019
 Alpha  occ. eigenvalues --  -19.19863 -19.18628 -19.18594 -19.18308 -19.18244
 Alpha  occ. eigenvalues --  -14.42378 -14.42301 -14.42237 -14.42168 -14.40096
 Alpha  occ. eigenvalues --  -14.39716 -14.39006 -14.38965 -10.40364 -10.38305
 Alpha  occ. eigenvalues --  -10.35668 -10.35488 -10.34871 -10.34513 -10.31994
 Alpha  occ. eigenvalues --  -10.31674 -10.31504 -10.31222 -10.31189 -10.31160
 Alpha  occ. eigenvalues --  -10.31130 -10.30863 -10.30740 -10.30674 -10.30643
 Alpha  occ. eigenvalues --  -10.30558 -10.30157 -10.29386 -10.29067 -10.29056
 Alpha  occ. eigenvalues --  -10.28990 -10.28870 -10.28578 -10.28556 -10.28548
 Alpha  occ. eigenvalues --  -10.28544 -10.28528 -10.28413 -10.28337 -10.28327
 Alpha  occ. eigenvalues --  -10.28285 -10.28277 -10.28270 -10.28211 -10.27994
 Alpha  occ. eigenvalues --  -10.27964 -10.27733 -10.27702 -10.27665 -10.27589
 Alpha  occ. eigenvalues --  -10.27501 -10.27487 -10.27377 -10.27307 -10.27296
 Alpha  occ. eigenvalues --  -10.27192 -10.27041 -10.26979 -10.26800 -10.26765
 Alpha  occ. eigenvalues --  -10.26607 -10.26592 -10.26499 -10.26308 -10.26303
 Alpha  occ. eigenvalues --  -10.26278 -10.26188 -10.26167 -10.25961 -10.25748
 Alpha  occ. eigenvalues --  -10.25563 -10.25371 -10.25211 -10.25092 -10.24981
 Alpha  occ. eigenvalues --  -10.24641  -3.17579  -3.16472  -1.92460  -1.92040
 Alpha  occ. eigenvalues --   -1.91884  -1.91370  -1.90944  -1.90776  -1.17936
 Alpha  occ. eigenvalues --   -1.15600  -1.12051  -1.08856  -1.08505  -1.07963
 Alpha  occ. eigenvalues --   -1.07800  -1.07634  -1.05262  -1.04596  -1.04281
 Alpha  occ. eigenvalues --   -1.03704  -1.03365  -1.03334  -1.02761  -1.02549
 Alpha  occ. eigenvalues --   -0.93327  -0.92091  -0.89944  -0.89367  -0.89330
 Alpha  occ. eigenvalues --   -0.89071  -0.88776  -0.88347  -0.87874  -0.87653
 Alpha  occ. eigenvalues --   -0.87519  -0.87022  -0.86787  -0.85962  -0.84848
 Alpha  occ. eigenvalues --   -0.84596  -0.84289  -0.83867  -0.82953  -0.82644
 Alpha  occ. eigenvalues --   -0.82401  -0.81959  -0.81184  -0.80713  -0.80597
 Alpha  occ. eigenvalues --   -0.80507  -0.78342  -0.77824  -0.77473  -0.77335
 Alpha  occ. eigenvalues --   -0.76909  -0.76897  -0.76510  -0.75983  -0.75519
 Alpha  occ. eigenvalues --   -0.75286  -0.73538  -0.73453  -0.72237  -0.71455
 Alpha  occ. eigenvalues --   -0.69654  -0.69423  -0.69001  -0.68841  -0.67798
 Alpha  occ. eigenvalues --   -0.67727  -0.67248  -0.67149  -0.66364  -0.65708
 Alpha  occ. eigenvalues --   -0.65397  -0.65365  -0.64946  -0.64922  -0.64608
 Alpha  occ. eigenvalues --   -0.64387  -0.63136  -0.62347  -0.60544  -0.60429
 Alpha  occ. eigenvalues --   -0.60107  -0.60005  -0.59608  -0.58997  -0.58974
 Alpha  occ. eigenvalues --   -0.58515  -0.58353  -0.58071  -0.57684  -0.56903
 Alpha  occ. eigenvalues --   -0.56529  -0.56241  -0.56207  -0.55843  -0.55643
 Alpha  occ. eigenvalues --   -0.55094  -0.54963  -0.54675  -0.54363  -0.54363
 Alpha  occ. eigenvalues --   -0.53914  -0.53604  -0.53537  -0.53220  -0.53169
 Alpha  occ. eigenvalues --   -0.52777  -0.52714  -0.52508  -0.52354  -0.52298
 Alpha  occ. eigenvalues --   -0.52135  -0.52058  -0.51726  -0.51725  -0.51331
 Alpha  occ. eigenvalues --   -0.51135  -0.50890  -0.50558  -0.50303  -0.50302
 Alpha  occ. eigenvalues --   -0.50298  -0.50056  -0.49963  -0.49881  -0.49670
 Alpha  occ. eigenvalues --   -0.49669  -0.49474  -0.49260  -0.49146  -0.48966
 Alpha  occ. eigenvalues --   -0.48924  -0.48663  -0.48397  -0.48354  -0.48148
 Alpha  occ. eigenvalues --   -0.48008  -0.47776  -0.47743  -0.47332  -0.47226
 Alpha  occ. eigenvalues --   -0.46900  -0.46881  -0.46618  -0.46504  -0.46473
 Alpha  occ. eigenvalues --   -0.46379  -0.46032  -0.46027  -0.45921  -0.45759
 Alpha  occ. eigenvalues --   -0.45542  -0.45507  -0.45427  -0.45320  -0.45164
 Alpha  occ. eigenvalues --   -0.45153  -0.44930  -0.44898  -0.44591  -0.44378
 Alpha  occ. eigenvalues --   -0.44066  -0.43979  -0.43901  -0.43679  -0.43635
 Alpha  occ. eigenvalues --   -0.43495  -0.43281  -0.43243  -0.42681  -0.42665
 Alpha  occ. eigenvalues --   -0.42530  -0.42514  -0.42449  -0.42422  -0.42086
 Alpha  occ. eigenvalues --   -0.41998  -0.41747  -0.41592  -0.41591  -0.41512
 Alpha  occ. eigenvalues --   -0.41404  -0.41323  -0.41123  -0.41115  -0.40991
 Alpha  occ. eigenvalues --   -0.40488  -0.40143  -0.39201  -0.39049  -0.38886
 Alpha  occ. eigenvalues --   -0.38787  -0.38234  -0.38202  -0.37822  -0.37741
 Alpha  occ. eigenvalues --   -0.37341  -0.37266  -0.37194  -0.36539  -0.36434
 Alpha  occ. eigenvalues --   -0.36360  -0.36186  -0.35426  -0.34709  -0.34237
 Alpha  occ. eigenvalues --   -0.33886  -0.33199  -0.33135  -0.31758  -0.31450
 Alpha  occ. eigenvalues --   -0.31135  -0.30786  -0.30589  -0.30537  -0.30064
 Alpha  occ. eigenvalues --   -0.30027  -0.29798  -0.29770  -0.24421  -0.24128
 Alpha  occ. eigenvalues --   -0.21653  -0.21484
 Alpha virt. eigenvalues --   -0.09336  -0.09103  -0.01842  -0.01431   0.00221
 Alpha virt. eigenvalues --    0.00483   0.01792   0.02396   0.02476   0.03161
 Alpha virt. eigenvalues --    0.04136   0.05011   0.05635   0.05664   0.05699

 Mulliken charges:
               1
     1  Mg   0.834316
     2  C    0.054424
     3  C   -0.069496
     4  C   -0.042632
     5  C   -0.089407
     6  N   -0.294805
     7  C   -0.091727
     8  C   -0.014634
     9  C   -0.026238
    10  C    0.046690
    11  C    0.078037
    12  C    0.043295
    13  C   -0.061159
    14  H    0.031818
    15  N   -0.389566
    16  C    0.137854
    17  C   -0.128892
    18  C   -0.023647
    19  C    0.152812
    20  C    0.116419
    21  C   -0.020001
    22  O   -0.248380
    23  C    0.085883
    24  N   -0.230544
    25  C   -0.019148
    26  C    0.006692
    27  C   -0.010733
    28  C    0.025301
    29  C    0.055025
    30  C    0.043160
    31  C   -0.008601
    32  N   -0.375656
    33  C    0.100446
    34  C   -0.182954
    35  C   -0.033751
    36  C    0.116658
    37  C    0.133509
    38  C    0.043052
    39  O   -0.120514
    40  C    0.002796
    41  C    0.187328
    42  O   -0.212291
    43  O   -0.363335
    44  C    0.180000
    45  H   -0.018563
    46  H   -0.075964
    47  H   -0.016234
    48  H    0.012621
    49  H    0.010855
    50  H    0.016003
    51  H    0.003228
    52  H    0.024007
    53  H    0.006996
    54  H    0.023781
    55  H    0.028327
    56  H    0.033062
    57  H    0.012536
    58  H    0.023942
    59  H    0.040198
    60  H    0.042578
    61  H    0.043379
    62  H    0.036519
    63  H    0.016288
    64  H    0.018819
    65  H    0.011222
    66  H    0.003367
    67  H    0.016381
    68  H    0.007494
    69  H    0.001217
    70  H    0.009125
    71  H    0.000918
    72  H    0.018418
    73  H    0.037253
    74  H    0.028776
    75  H    0.024969
    76  H    0.038863
    77  H    0.028888
    78  H    0.028184
    79  H    0.045142
    80  Mg   0.849731
    81  C   -0.032485
    82  C   -0.104336
    83  C   -0.040419
    84  C   -0.102957
    85  N   -0.276987
    86  C   -0.073651
    87  C    0.020008
    88  C   -0.112949
    89  C    0.098349
    90  C    0.051552
    91  C    0.081295
    92  C   -0.091568
    93  H    0.011447
    94  N   -0.341456
    95  C    0.146770
    96  C   -0.163377
    97  C   -0.029807
    98  C    0.148869
    99  C    0.116771
   100  C   -0.008336
   101  O   -0.229853
   102  C    0.068398
   103  N   -0.320753
   104  C    0.008063
   105  C   -0.016766
   106  C   -0.037920
   107  C    0.071445
   108  C    0.076341
   109  C    0.018606
   110  C   -0.003785
   111  N   -0.375116
   112  C    0.118489
   113  C   -0.127443
   114  C    0.017203
   115  C    0.159529
   116  C    0.116730
   117  C    0.021783
   118  O   -0.183763
   119  C   -0.013638
   120  C    0.166801
   121  O   -0.220806
   122  O   -0.295166
   123  C    0.174915
   124  H   -0.024850
   125  H   -0.005979
   126  H   -0.029576
   127  H    0.009693
   128  H    0.016842
   129  H    0.020828
   130  H    0.019468
   131  H    0.013204
   132  H    0.015428
   133  H    0.005731
   134  H    0.041354
   135  H    0.035619
   136  H    0.018810
   137  H    0.034016
   138  H    0.033330
   139  H    0.029278
   140  H    0.043642
   141  H    0.024136
   142  H    0.010412
   143  H    0.001457
   144  H    0.018264
   145  H    0.006745
   146  H    0.034660
   147  H    0.004120
   148  H    0.008763
   149  H    0.014750
   150  H    0.027001
   151  H    0.007629
   152  H    0.024889
   153  H    0.030975
   154  H    0.021932
   155  H    0.035899
   156  H    0.024928
   157  H    0.037048
   158  H    0.049800
 Sum of Mulliken charges =  -0.00000

 Dipole moment (field-independent basis, Debye):
    X=              0.4028    Y=             -0.8367    Z=             -2.0517  Tot=              2.2521
 Quadrupole moment (field-independent basis, Debye-Ang):
   XX=           -389.8815   YY=           -570.1829   ZZ=           -472.6366
   XY=            168.3136   XZ=             -0.5103   YZ=             15.6805

 Normal termination of Gaussian 16 at Wed Sep 15 18:32:51 2021.
