 Gaussian 16, Revision A.03,
 Gaussian 16:  ES64L-G16RevA.03 25-Dec-2016

 -----------------------------------
 #p cam-b3lyp/Def2SVP td=(nstates=5)
 -----------------------------------

 --------------------------------
 TDDFT excited states in gaussian
 --------------------------------
 Symbolic Z-matrix:
 Charge =  0 Multiplicity = 1

                         Standard orientation:
 ---------------------------------------------------------------------
 Center     Atomic      Atomic             Coordinates (Angstroms)
 Number     Number       Type             X           Y           Z
 ---------------------------------------------------------------------
      1         12           0       -5.169734   -0.125525    0.920701
      2          6           0       -4.245143    3.265697   -0.286881
      3          6           0       -2.663900    0.341480    3.140300
      4          6           0       -5.851558   -3.127872    1.674793
      5          6           0       -7.070562   -0.411780   -2.075768
      6          7           0       -3.630190    1.584558    1.307876
      7          6           0       -3.588233    2.882381    0.827181
      8          6           0       -2.667676    3.824308    1.611635
      9          6           0       -1.847313    2.752834    2.394127
     10          6           0       -2.736619    1.453472    2.295100
     11          6           0       -0.461680    2.512214    1.883218
     12          6           0       -3.350713    4.932170    2.481698
     13          6           0       -2.619847    6.217518    2.682779
     14          1           0       -2.775176    6.847101    4.063472
     15          7           0       -4.389123   -1.276486    2.295336
     16          6           0       -3.370058   -0.903662    3.196628
     17          6           0       -3.241234   -1.953021    4.166224
     18          6           0       -4.301644   -2.893485    3.806053
     19          6           0       -4.865218   -2.436946    2.587124
     20          6           0       -2.284793   -1.918539    5.415175
     21          6           0       -4.684619   -4.107642    4.595655
     22          8           0       -5.564040   -4.910404    4.198672
     23          6           0       -4.101315   -4.433073    5.922097
     24          7           0       -6.150653   -1.644154   -0.090035
     25          6           0       -6.334145   -2.849909    0.451661
     26          6           0       -7.211317   -3.807966   -0.416533
     27          6           0       -7.907795   -2.730790   -1.328987
     28          6           0       -6.960566   -1.506319   -1.202661
     29          6           0       -6.346991   -4.803128   -1.255816
     30          6           0       -9.359146   -2.351144   -0.813083
     31          6           0      -10.394534   -3.469582   -0.571285
     32          7           0       -5.628541    1.149287   -0.809839
     33          6           0       -6.468104    0.883928   -1.885688
     34          6           0       -6.470111    2.011038   -2.788649
     35          6           0       -5.649343    2.972236   -2.184959
     36          6           0       -5.080702    2.385424   -1.021224
     37          6           0       -7.300602    2.172790   -4.017247
     38          6           0       -5.132118    4.326572   -2.330398
     39          8           0       -5.319106    5.225309   -3.139881
     40          6           0       -4.257581    4.544531   -0.989101
     41          6           0       -2.967198    5.036620   -1.440177
     42          8           0       -2.149853    4.437135   -2.156310
     43          8           0       -2.980532    6.397516   -1.329261
     44          6           0       -1.847774    7.147131   -1.769035
     45          1           0       -1.947091    0.616717    3.916985
     46          1           0       -6.116735   -4.162948    1.899249
     47          1           0       -7.683197   -0.553587   -2.968960
     48          1           0       -2.013411    4.308594    0.886405
     49          1           0       -1.847336    2.975178    3.460799
     50          1           0       -0.473937    1.547646    1.375676
     51          1           0        0.226873    2.413932    2.722342
     52          1           0       -0.050669    3.244103    1.188147
     53          1           0       -3.475889    4.514044    3.480093
     54          1           0       -4.348021    5.094051    2.073590
     55          1           0       -3.062324    6.879236    1.938440
     56          1           0       -1.594434    6.178777    2.314922
     57          1           0       -2.771637   -1.751696    6.375577
     58          1           0       -1.469575   -1.209844    5.271807
     59          1           0       -1.846692   -2.916474    5.372298
     60          1           0       -3.094029   -4.820075    5.766023
     61          1           0       -4.746546   -5.204010    6.344206
     62          1           0       -4.170758   -3.525400    6.520683
     63          1           0       -7.858767   -4.334434    0.285518
     64          1           0       -7.978722   -2.982418   -2.386737
     65          1           0       -6.539518   -5.795791   -0.848045
     66          1           0       -5.280854   -4.584037   -1.304817
     67          1           0       -6.809662   -4.713895   -2.239731
     68          1           0       -9.835361   -1.719083   -1.562250
     69          1           0       -9.210413   -1.718709    0.061954
     70          1           0      -10.665988   -3.369610    0.479521
     71          1           0       -9.828255   -4.389907   -0.717071
     72          1           0      -11.281333   -3.362801   -1.195832
     73          1           0       -8.040697    1.375291   -3.947361
     74          1           0       -6.627539    2.005969   -4.858186
     75          1           0       -7.729915    3.167498   -4.136892
     76          1           0       -4.750134    5.275504   -0.348134
     77          1           0       -1.049796    6.499076   -2.132135
     78          1           0       -1.483402    7.655934   -0.876506
     79          1           0       -2.139533    7.936023   -2.460844
     80         12           0        4.327086   -1.023292   -1.151416
     81          6           0        7.040168    0.804419    0.035118
     82          6           0        2.316249    1.643922   -0.711038
     83          6           0        1.690913   -3.008284   -1.883455
     84          6           0        6.336510   -3.825098   -1.107994
     85          7           0        4.684374    1.024390   -0.382845
     86          6           0        5.910197    1.597988   -0.159467
     87          6           0        5.759185    3.044047    0.124819
     88          6           0        4.269671    3.366988   -0.040775
     89          6           0        3.659640    1.950518   -0.424723
     90          6           0        3.538911    4.073624    1.090405
     91          6           0        6.744567    3.943480   -0.816533
     92          6           0        7.823050    4.801465   -0.114396
     93          1           0        8.146254    6.191489   -0.604572
     94          7           0        2.311430   -0.702781   -1.397674
     95          6           0        1.643378    0.487339   -1.151581
     96          6           0        0.253229    0.304084   -1.360730
     97          6           0        0.035089   -1.057941   -1.703224
     98          6           0        1.377811   -1.647524   -1.692334
     99          6           0       -0.686026    1.571759   -1.303795
    100          6           0       -1.331319   -1.702320   -1.930325
    101          8           0       -1.529354   -2.906436   -2.152361
    102          6           0       -2.530040   -0.860649   -1.977080
    103          7           0        3.945534   -3.170022   -1.227074
    104          6           0        2.833074   -3.731529   -1.653206
    105          6           0        2.947334   -5.272515   -1.632435
    106          6           0        4.506387   -5.368137   -1.867036
    107          6           0        4.990144   -4.003157   -1.387805
    108          6           0        2.528436   -6.092622   -0.356419
    109          6           0        4.999860   -5.682632   -3.360021
    110          6           0        4.620461   -4.743405   -4.430524
    111          7           0        6.338050   -1.541255   -0.600737
    112          6           0        7.039767   -2.761568   -0.653896
    113          6           0        8.378786   -2.557191   -0.201090
    114          6           0        8.427360   -1.220668    0.141805
    115          6           0        7.178804   -0.619349   -0.224430
    116          6           0        9.349552   -3.588115    0.111157
    117          6           0        9.296609   -0.195913    0.484884
    118          8           0       10.495527   -0.199903    0.782572
    119          6           0        8.455353    1.159931    0.539128
    120          6           0        8.381014    1.522253    1.985590
    121          8           0        7.931358    0.931485    2.945039
    122          8           0        8.978270    2.712060    2.073406
    123          6           0        9.014660    3.330350    3.439161
    124          1           0        1.824986    2.618617   -0.743186
    125          1           0        0.839026   -3.572807   -2.266407
    126          1           0        6.976931   -4.707646   -1.162804
    127          1           0        6.062905    3.154450    1.165072
    128          1           0        4.140019    3.985332   -0.928724
    129          1           0        3.152573    3.170884    1.562121
    130          1           0        2.800093    4.815481    0.786740
    131          1           0        4.107097    4.614411    1.846761
    132          1           0        6.131448    4.581806   -1.452025
    133          1           0        7.387611    3.351100   -1.467927
    134          1           0        8.765357    4.272050   -0.258328
    135          1           0        7.691568    4.819823    0.966672
    136          1           0       -1.505962    1.361267   -0.617398
    137          1           0       -1.052501    1.504778   -2.328226
    138          1           0       -0.272733    2.507150   -0.926392
    139          1           0       -2.644516   -0.290773   -1.056038
    140          1           0       -3.370567   -1.546725   -1.875328
    141          1           0       -2.645164   -0.263484   -2.882012
    142          1           0        2.540774   -5.655447   -2.568582
    143          1           0        4.805665   -6.207531   -1.239833
    144          1           0        2.799231   -5.649436    0.601138
    145          1           0        3.022553   -7.049976   -0.525880
    146          1           0        1.448083   -6.237043   -0.328497
    147          1           0        4.646512   -6.642445   -3.737654
    148          1           0        6.077951   -5.552438   -3.453749
    149          1           0        5.353691   -3.944781   -4.327030
    150          1           0        3.638785   -4.269575   -4.401812
    151          1           0        4.701310   -5.074588   -5.465321
    152          1           0        9.071536   -3.902730    1.117759
    153          1           0       10.390726   -3.266843    0.114518
    154          1           0        9.374578   -4.396412   -0.620507
    155          1           0        8.854196    1.943044   -0.105754
    156          1           0        8.273740    4.128715    3.391686
    157          1           0       10.022568    3.683926    3.655247
    158          1           0        8.709800    2.707119    4.280313
 ---------------------------------------------------------------------

 SCF Done:  E(RCAM-B3LYP) =  -4069.78654537     A.U. after   20 cycles

 Excitation energies and oscillator strengths:

 Excited State   1:      Singlet-A      1.6459 eV  753.31 nm  f=0.3460  <S**2>=0.000
     309 -> 316       -0.15282
     311 -> 313        0.69104
     309 <- 316       -0.10336
 This state for optimization and/or second-order correction.
 Total Energy, E(TD-HF/TD-DFT) =  -4069.72606106
 Copying the excited state density for this state as the 1-particle RhoCI density.

 Excited State   2:      Singlet-A      1.6973 eV  730.47 nm  f=0.4377  <S**2>=0.000
     310 -> 315       -0.17305
     312 -> 314        0.68573
     310 <- 315       -0.10585

 Excited State   3:      Singlet-A      2.0650 eV  600.40 nm  f=0.0001  <S**2>=0.000
     312 -> 313        0.70527

 Excited State   4:      Singlet-A      2.1622 eV  573.42 nm  f=0.0787  <S**2>=0.000
     309 -> 313        0.61690
     310 -> 314        0.25340
     311 -> 316        0.19396

 Excited State   5:      Singlet-A      2.1858 eV  567.22 nm  f=0.2290  <S**2>=0.000
     309 -> 313       -0.25685
     310 -> 314        0.59855
     312 -> 315        0.24774

 The electronic state is 1-A.
 Alpha  occ. eigenvalues --  -46.89279 -46.89099 -19.25544 -19.24991 -19.20323
 Alpha  occ. eigenvalues --  -19.20312 -19.18999 -19.18213 -19.17984 -19.17631
 Alpha  occ. eigenvalues --  -14.42752 -14.41814 -14.41761 -14.41570 -14.40016
 Alpha  occ. eigenvalues --  -14.39969 -14.39404 -14.38751 -10.39928 -10.38531
 Alpha  occ. eigenvalues --  -10.36418 -10.34562 -10.34178 -10.33946 -10.31785
 Alpha  occ. eigenvalues --  -10.31695 -10.31663 -10.31270 -10.31240 -10.31139
 Alpha  occ. eigenvalues --  -10.31008 -10.30978 -10.30812 -10.30675 -10.30336
 Alpha  occ. eigenvalues --  -10.30100 -10.30012 -10.29902 -10.29514 -10.29457
 Alpha  occ. eigenvalues --  -10.29365 -10.29347 -10.28801 -10.28789 -10.28720
 Alpha  occ. eigenvalues --  -10.28517 -10.28487 -10.28456 -10.28447 -10.28405
 Alpha  occ. eigenvalues --  -10.28250 -10.28235 -10.28229 -10.28169 -10.28145
 Alpha  occ. eigenvalues --  -10.27900 -10.27862 -10.27827 -10.27724 -10.27709
 Alpha  occ. eigenvalues --  -10.27665 -10.27614 -10.27449 -10.27383 -10.27268
 Alpha  occ. eigenvalues --  -10.27062 -10.27006 -10.26930 -10.26515 -10.26494
 Alpha  occ. eigenvalues --  -10.26403 -10.26324 -10.26230 -10.26185 -10.26060
 Alpha  occ. eigenvalues --  -10.26003 -10.25911 -10.25873 -10.25839 -10.25740
 Alpha  occ. eigenvalues --  -10.25711 -10.25653 -10.25541 -10.24797 -10.24536
 Alpha  occ. eigenvalues --  -10.24387  -3.17944  -3.17509  -1.92819  -1.92412
 Alpha  occ. eigenvalues --   -1.92394  -1.92264  -1.91944  -1.91825  -1.17289
 Alpha  occ. eigenvalues --   -1.16944  -1.10659  -1.08650  -1.08353  -1.07848
 Alpha  occ. eigenvalues --   -1.07654  -1.07288  -1.05241  -1.05177  -1.04458
 Alpha  occ. eigenvalues --   -1.04012  -1.03946  -1.03141  -1.02903  -1.02386
 Alpha  occ. eigenvalues --   -0.94157  -0.92006  -0.89990  -0.89014  -0.88984
 Alpha  occ. eigenvalues --   -0.88665  -0.88306  -0.88146  -0.87736  -0.87684
 Alpha  occ. eigenvalues --   -0.87389  -0.87129  -0.86546  -0.86315  -0.85119
 Alpha  occ. eigenvalues --   -0.84470  -0.84458  -0.84101  -0.83334  -0.82914
 Alpha  occ. eigenvalues --   -0.82350  -0.81624  -0.81436  -0.81218  -0.81065
 Alpha  occ. eigenvalues --   -0.80431  -0.78802  -0.78389  -0.77892  -0.77579
 Alpha  occ. eigenvalues --   -0.77327  -0.77069  -0.76564  -0.75737  -0.75645
 Alpha  occ. eigenvalues --   -0.75143  -0.73694  -0.73182  -0.71477  -0.71205
 Alpha  occ. eigenvalues --   -0.69517  -0.69153  -0.68948  -0.68864  -0.68565
 Alpha  occ. eigenvalues --   -0.67619  -0.67252  -0.66912  -0.66138  -0.65543
 Alpha  occ. eigenvalues --   -0.65378  -0.65281  -0.65199  -0.64771  -0.64596
 Alpha  occ. eigenvalues --   -0.63795  -0.62593  -0.61911  -0.60992  -0.60137
 Alpha  occ. eigenvalues --   -0.60064  -0.59972  -0.59721  -0.59354  -0.59072
 Alpha  occ. eigenvalues --   -0.58708  -0.58434  -0.58056  -0.58004  -0.57680
 Alpha  occ. eigenvalues --   -0.56424  -0.56199  -0.55993  -0.55656  -0.55419
 Alpha  occ. eigenvalues --   -0.55067  -0.54975  -0.54873  -0.54676  -0.54547
 Alpha  occ. eigenvalues --   -0.54331  -0.54154  -0.53675  -0.53218  -0.53151
 Alpha  occ. eigenvalues --   -0.52953  -0.52840  -0.52778  -0.52464  -0.52358
 Alpha  occ. eigenvalues --   -0.52030  -0.51896  -0.51769  -0.51668  -0.51633
 Alpha  occ. eigenvalues --   -0.51201  -0.50973  -0.50969  -0.50547  -0.50301
 Alpha  occ. eigenvalues --   -0.50254  -0.49991  -0.49844  -0.49763  -0.49706
 Alpha  occ. eigenvalues --   -0.49589  -0.49430  -0.49254  -0.49068  -0.48910
 Alpha  occ. eigenvalues --   -0.48841  -0.48603  -0.48325  -0.48179  -0.48127
 Alpha  occ. eigenvalues --   -0.48069  -0.47772  -0.47538  -0.47371  -0.47098
 Alpha  occ. eigenvalues --   -0.46919  -0.46793  -0.46665  -0.46519  -0.46504
 Alpha  occ. eigenvalues --   -0.46415  -0.46301  -0.46027  -0.45841  -0.45680
 Alpha  occ. eigenvalues --   -0.45658  -0.45369  -0.45328  -0.45075  -0.44829
 Alpha  occ. eigenvalues --   -0.44518  -0.44468  -0.44286  -0.44140  -0.44048
 Alpha  occ. eigenvalues --   -0.43936  -0.43883  -0.43570  -0.43432  -0.43352
 Alpha  occ. eigenvalues --   -0.43154  -0.43122  -0.42997  -0.42810  -0.42705
 Alpha  occ. eigenvalues --   -0.42415  -0.42347  -0.42335  -0.42142  -0.41919
 Alpha  occ. eigenvalues --   -0.41785  -0.41713  -0.41465  -0.41199  -0.40829
 Alpha  occ. eigenvalues --   -0.40823  -0.40800  -0.40538  -0.40502  -0.40042
 Alpha  occ. eigenvalues --   -0.39995  -0.39752  -0.39619  -0.39363  -0.38792
 Alpha  occ. eigenvalues --   -0.38752  -0.38549  -0.38095  -0.37924  -0.37803
 Alpha  occ. eigenvalues --   -0.37510  -0.37453  -0.36887  -0.36742  -0.36548
 Alpha  occ. eigenvalues --   -0.36260  -0.35949  -0.35105  -0.34950  -0.34259
 Alpha  occ. eigenvalues --   -0.34211  -0.33494  -0.33217  -0.31907  -0.31831
 Alpha  occ. eigenvalues --   -0.31211  -0.30623  -0.30364  -0.30247  -0.30213
 Alpha  occ. eigenvalues --   -0.30129  -0.30025  -0.29716  -0.24607  -0.23789
 Alpha  occ. eigenvalues --   -0.22057  -0.21174
 Alpha virt. eigenvalues --   -0.10017  -0.08697  -0.01389  -0.01151  -0.00067
 Alpha virt. eigenvalues --    0.00572   0.01439   0.01962   0.02267   0.02778
 Alpha virt. eigenvalues --    0.03229   0.04548   0.05473   0.05644   0.06125

 Mulliken charges:
               1
     1  Mg   0.833435
     2  C    0.012023
     3  C   -0.047559
     4  C   -0.026456
     5  C   -0.071297
     6  N   -0.242660
     7  C   -0.084432
     8  C   -0.046006
     9  C   -0.046640
    10  C   -0.048480
    11  C    0.086905
    12  C    0.083476
    13  C   -0.057983
    14  H    0.039550
    15  N   -0.405722
    16  C    0.178996
    17  C   -0.156559
    18  C   -0.026574
    19  C    0.119930
    20  C    0.116647
    21  C   -0.039718
    22  O   -0.243203
    23  C    0.073200
    24  N   -0.323687
    25  C    0.023507
    26  C   -0.058439
    27  C   -0.052287
    28  C    0.069358
    29  C    0.093853
    30  C    0.007078
    31  C    0.024987
    32  N   -0.315942
    33  C    0.104659
    34  C   -0.192562
    35  C    0.006576
    36  C    0.077682
    37  C    0.132690
    38  C    0.079338
    39  O   -0.155025
    40  C    0.004021
    41  C    0.189477
    42  O   -0.241722
    43  O   -0.316806
    44  C    0.169720
    45  H   -0.032325
    46  H   -0.011260
    47  H   -0.019606
    48  H    0.004638
    49  H   -0.000282
    50  H    0.033722
    51  H    0.013581
    52  H    0.018044
    53  H    0.009603
    54  H    0.008335
    55  H    0.024140
    56  H    0.019152
    57  H    0.046877
    58  H    0.019175
    59  H    0.024078
    60  H    0.043271
    61  H    0.029311
    62  H    0.025075
    63  H    0.021678
    64  H    0.001048
    65  H    0.023025
    66  H    0.050671
    67  H    0.007085
    68  H   -0.000459
    69  H    0.009873
    70  H    0.020048
    71  H    0.017565
    72  H    0.025723
    73  H    0.011640
    74  H    0.035332
    75  H    0.041721
    76  H    0.043101
    77  H    0.047270
    78  H    0.017164
    79  H    0.046602
    80  Mg   0.802745
    81  C   -0.002080
    82  C   -0.057352
    83  C   -0.057452
    84  C   -0.103155
    85  N   -0.309851
    86  C   -0.028892
    87  C   -0.016356
    88  C   -0.002986
    89  C   -0.051777
    90  C    0.049110
    91  C    0.041625
    92  C   -0.079589
    93  H    0.019125
    94  N   -0.378613
    95  C    0.182553
    96  C   -0.176421
    97  C   -0.027242
    98  C    0.106197
    99  C    0.148290
   100  C    0.003688
   101  O   -0.218971
   102  C    0.023608
   103  N   -0.227912
   104  C    0.004839
   105  C    0.007102
   106  C   -0.065706
   107  C    0.077819
   108  C    0.091400
   109  C    0.064104
   110  C   -0.038785
   111  N   -0.322417
   112  C    0.101049
   113  C   -0.119808
   114  C    0.059330
   115  C    0.065748
   116  C    0.105694
   117  C    0.013688
   118  O   -0.193119
   119  C   -0.025027
   120  C    0.199589
   121  O   -0.214184
   122  O   -0.317935
   123  C    0.160744
   124  H   -0.027086
   125  H   -0.013205
   126  H   -0.028992
   127  H    0.020707
   128  H    0.008700
   129  H    0.029424
   130  H    0.019061
   131  H    0.016766
   132  H    0.017607
   133  H    0.019768
   134  H    0.036528
   135  H    0.016914
   136  H    0.021413
   137  H    0.044949
   138  H    0.021020
   139  H    0.040732
   140  H    0.035643
   141  H    0.058553
   142  H   -0.008721
   143  H   -0.004702
   144  H    0.026546
   145  H    0.019843
   146  H    0.028690
   147  H    0.010005
   148  H    0.003568
   149  H    0.002828
   150  H    0.016669
   151  H    0.014827
   152  H    0.049798
   153  H    0.030640
   154  H    0.013939
   155  H    0.028447
   156  H    0.029238
   157  H    0.050141
   158  H    0.055362
 Sum of Mulliken charges =  -0.00000

 Dipole moment (field-independent basis, Debye):
    X=             -3.3487    Y=              2.5362    Z=              1.5935  Tot=              4.4928
 Quadrupole moment (field-independent basis, Debye-Ang):
   XX=           -552.0688   YY=           -496.0095   ZZ=           -502.8809
   XY=              2.4071   XZ=            -11.7029   YZ=             33.4370

 Normal termination of Gaussian 16 at Tue Sep 14 20:01:26 2021.
