 Gaussian 16, Revision A.03,
 Gaussian 16:  ES64L-G16RevA.03 25-Dec-2016

 -----------------------------------
 #p cam-b3lyp/Def2SVP td=(nstates=5)
 -----------------------------------

 --------------------------------
 TDDFT excited states in gaussian
 --------------------------------
 Symbolic Z-matrix:
 Charge =  0 Multiplicity = 1

                         Standard orientation:
 ---------------------------------------------------------------------
 Center     Atomic      Atomic             Coordinates (Angstroms)
 Number     Number       Type             X           Y           Z
 ---------------------------------------------------------------------
      1         12           0      -13.321264   -0.654669   -0.155811
      2          6           0      -11.951844    2.110369    1.491886
      3          6           0      -15.212711    1.328302   -1.961359
      4          6           0      -15.141932   -3.385483   -1.171500
      5          6           0      -11.674197   -2.783932    2.128685
      6          7           0      -13.442349    1.446822   -0.257819
      7          6           0      -12.773391    2.433370    0.432790
      8          6           0      -13.048516    3.815011   -0.146506
      9          6           0      -14.260786    3.523083   -1.087948
     10          6           0      -14.245530    2.037881   -1.194332
     11          6           0      -15.611863    4.131721   -0.780267
     12          6           0      -11.815595    4.506228   -0.811613
     13          6           0      -12.077440    5.908202   -1.372572
     14          1           0      -11.117169    6.998416   -0.920012
     15          7           0      -15.077179   -0.984339   -1.412593
     16          6           0      -15.609580   -0.011938   -2.181815
     17          6           0      -16.592103   -0.587174   -3.058007
     18          6           0      -16.658499   -1.958585   -2.757428
     19          6           0      -15.602155   -2.153356   -1.727350
     20          6           0      -17.414552    0.213784   -4.045232
     21          6           0      -17.487323   -3.034760   -3.378602
     22          8           0      -17.601659   -4.219429   -2.964665
     23          6           0      -18.263587   -2.758408   -4.660405
     24          7           0      -13.408823   -2.733271    0.415415
     25          6           0      -14.287923   -3.619266   -0.107883
     26          6           0      -13.909083   -5.117411    0.387462
     27          6           0      -12.509960   -4.892132    1.061028
     28          6           0      -12.455933   -3.401855    1.167456
     29          6           0      -15.043661   -5.643194    1.351109
     30          6           0      -11.347760   -5.320877    0.092533
     31          6           0      -11.320123   -4.773630   -1.326098
     32          7           0      -11.977941   -0.431309    1.499525
     33          6           0      -11.424198   -1.403982    2.285878
     34          6           0      -10.616237   -0.763327    3.216488
     35          6           0      -10.755458    0.641051    3.021929
     36          6           0      -11.603171    0.794988    1.956613
     37          6           0       -9.821671   -1.350980    4.328990
     38          6           0      -10.395311    2.004599    3.472503
     39          8           0       -9.725145    2.436742    4.403352
     40          6           0      -11.095750    3.016032    2.409059
     41          6           0      -11.769217    4.135698    3.119389
     42          8           0      -12.362804    4.032729    4.233835
     43          8           0      -11.475053    5.245806    2.456125
     44          6           0      -11.643510    6.460088    3.231248
     45          1           0      -15.781616    1.937570   -2.666934
     46          1           0      -15.687084   -4.269748   -1.510132
     47          1           0      -11.083144   -3.475965    2.730575
     48          1           0      -13.255097    4.430597    0.729188
     49          1           0      -14.090214    3.850180   -2.114201
     50          1           0      -15.622477    4.997378   -0.118008
     51          1           0      -16.270027    3.356451   -0.387079
     52          1           0      -16.115465    4.281896   -1.735424
     53          1           0      -11.410987    3.860854   -1.591706
     54          1           0      -11.013916    4.581843   -0.077700
     55          1           0      -12.930900    6.377770   -0.883800
     56          1           0      -12.194878    5.886070   -2.456403
     57          1           0      -17.302165    1.294903   -3.964532
     58          1           0      -18.494661    0.172220   -3.906879
     59          1           0      -17.219079   -0.047298   -5.085749
     60          1           0      -19.071552   -2.068579   -4.418212
     61          1           0      -18.863733   -3.614937   -4.966626
     62          1           0      -17.626357   -2.463677   -5.494959
     63          1           0      -13.887469   -5.790446   -0.469674
     64          1           0      -12.591736   -5.365665    2.039362
     65          1           0      -15.954589   -5.045273    1.317796
     66          1           0      -14.763590   -5.656448    2.404555
     67          1           0      -15.404858   -6.638566    1.096530
     68          1           0      -11.511596   -6.398505    0.101554
     69          1           0      -10.344449   -5.142922    0.478394
     70          1           0      -12.267373   -4.286625   -1.558702
     71          1           0      -11.019605   -5.469287   -2.108831
     72          1           0      -10.478526   -4.081826   -1.290255
     73          1           0       -9.123402   -2.129285    4.020135
     74          1           0      -10.557315   -1.822980    4.979612
     75          1           0       -9.293139   -0.596198    4.910374
     76          1           0      -10.252378    3.427925    1.855432
     77          1           0      -10.800630    7.131194    3.061433
     78          1           0      -11.686207    6.340490    4.313562
     79          1           0      -12.554230    6.928229    2.856282
     80         12           0       13.760628   -0.613108    0.115267
     81          6           0       11.557152    2.061262   -0.605135
     82          6           0       16.331820    1.553050   -0.177986
     83          6           0       15.757920   -3.151453    0.649994
     84          6           0       10.973551   -2.820474   -0.361787
     85          7           0       13.963404    1.587679   -0.449814
     86          6           0       12.896462    2.470396   -0.434966
     87          6           0       13.473074    3.843711   -0.377202
     88          6           0       14.930823    3.672885   -0.805691
     89          6           0       15.147604    2.181447   -0.446918
     90          6           0       15.092013    3.899628   -2.355631
     91          6           0       13.354668    4.626877    1.038855
     92          6           0       12.969667    6.137559    1.077227
     93          1           0       13.762159    7.086704    0.132484
     94          7           0       15.803311   -0.742141    0.203856
     95          6           0       16.644173    0.241705    0.077070
     96          6           0       18.009387   -0.301403    0.184384
     97          6           0       17.893777   -1.648208    0.644269
     98          6           0       16.436460   -1.920522    0.490251
     99          6           0       19.378777    0.421886   -0.085859
    100          6           0       18.937040   -2.641926    1.154163
    101          8           0       18.699276   -3.837176    1.413015
    102          6           0       20.335001   -2.239275    1.148187
    103          7           0       13.394126   -2.757382   -0.037691
    104          6           0       14.419618   -3.610959    0.360495
    105          6           0       13.833256   -5.064434    0.538933
    106          6           0       12.310214   -4.859737    0.343958
    107          6           0       12.193676   -3.374142   -0.004362
    108          6           0       14.521910   -6.100020   -0.350388
    109          6           0       11.400531   -5.352982    1.497218
    110          6           0       10.067423   -6.040112    1.119822
    111          7           0       11.696354   -0.473997   -0.392425
    112          6           0       10.712110   -1.435480   -0.598605
    113          6           0        9.447128   -0.766976   -0.768556
    114          6           0        9.742937    0.595398   -0.834732
    115          6           0       11.133754    0.760182   -0.587547
    116          6           0        8.177230   -1.361492   -0.833228
    117          6           0        9.180032    1.947665   -0.963213
    118          8           0        8.039355    2.361960   -1.095862
    119          6           0       10.358631    2.960732   -0.790064
    120          6           0       10.388048    3.834717   -2.031243
    121          8           0       10.871250    3.700077   -3.132603
    122          8           0        9.782325    4.973076   -1.583583
    123          6           0        9.921115    6.197852   -2.407080
    124          1           0       17.166765    2.257370   -0.182345
    125          1           0       16.427430   -3.926268    1.029131
    126          1           0       10.085496   -3.450790   -0.286997
    127          1           0       13.029204    4.577473   -1.050472
    128          1           0       15.623983    4.221442   -0.168414
    129          1           0       16.050384    4.331766   -2.641538
    130          1           0       14.398674    4.639363   -2.756598
    131          1           0       15.030573    2.902794   -2.790921
    132          1           0       14.252149    4.441527    1.628084
    133          1           0       12.609728    4.134610    1.665129
    134          1           0       13.268218    6.422791    2.086647
    135          1           0       11.899394    6.095082    0.875069
    136          1           0       19.993311    0.602864    0.795720
    137          1           0       19.143871    1.374892   -0.560716
    138          1           0       20.092211   -0.143190   -0.685753
    139          1           0       20.474638   -1.307819    1.697447
    140          1           0       20.699120   -2.119104    0.127777
    141          1           0       20.872424   -2.962210    1.761119
    142          1           0       13.943418   -5.301991    1.597118
    143          1           0       11.983246   -5.295132   -0.600102
    144          1           0       14.002660   -6.148253   -1.308115
    145          1           0       14.471444   -7.122765    0.021807
    146          1           0       15.493769   -5.713731   -0.655812
    147          1           0       11.195425   -4.597290    2.255323
    148          1           0       11.926634   -6.071083    2.127657
    149          1           0        9.325897   -5.246361    1.211543
    150          1           0        9.891901   -6.759620    1.920219
    151          1           0       10.126940   -6.448583    0.111378
    152          1           0        7.352639   -0.836143   -1.314529
    153          1           0        7.913777   -1.645133    0.186200
    154          1           0        8.310823   -2.255487   -1.441273
    155          1           0       10.208652    3.557265    0.109612
    156          1           0       10.130370    6.988840   -1.687478
    157          1           0        9.041259    6.499072   -2.975038
    158          1           0       10.775515    6.101094   -3.076446
 ---------------------------------------------------------------------

 SCF Done:  E(RCAM-B3LYP) =  -4069.81500326     A.U. after   19 cycles

 Excitation energies and oscillator strengths:

 Excited State   1:      Singlet-A      1.7140 eV  723.37 nm  f=0.4636  <S**2>=0.000
     309 -> 316       -0.16480
     311 -> 313        0.68456
     309 <- 316       -0.10240
 This state for optimization and/or second-order correction.
 Total Energy, E(TD-HF/TD-DFT) =  -4069.75201569
 Copying the excited state density for this state as the 1-particle RhoCI density.

 Excited State   2:      Singlet-A      1.7332 eV  715.35 nm  f=0.3200  <S**2>=0.000
     310 -> 315        0.18938
     312 -> 314        0.67708
     310 <- 315        0.10689

 Excited State   3:      Singlet-A      2.1452 eV  577.97 nm  f=0.1668  <S**2>=0.000
     309 -> 313        0.66340
     311 -> 316        0.22670

 Excited State   4:      Singlet-A      2.2617 eV  548.20 nm  f=0.0688  <S**2>=0.000
     310 -> 314        0.62174
     312 -> 315       -0.32226

 Excited State   5:      Singlet-A      2.8189 eV  439.83 nm  f=0.0000  <S**2>=0.000
     312 -> 313        0.70708

 The electronic state is 1-A.
 Alpha  occ. eigenvalues --  -46.89350 -46.89335 -19.26612 -19.24343 -19.20015
 Alpha  occ. eigenvalues --  -19.19239 -19.19071 -19.19003 -19.18660 -19.18404
 Alpha  occ. eigenvalues --  -14.42856 -14.41780 -14.41758 -14.41406 -14.39838
 Alpha  occ. eigenvalues --  -14.39718 -14.38935 -14.37978 -10.39216 -10.39191
 Alpha  occ. eigenvalues --  -10.35718 -10.35505 -10.34794 -10.34777 -10.32072
 Alpha  occ. eigenvalues --  -10.31971 -10.31678 -10.31439 -10.31046 -10.30969
 Alpha  occ. eigenvalues --  -10.30794 -10.30738 -10.30730 -10.30582 -10.30321
 Alpha  occ. eigenvalues --  -10.30054 -10.30022 -10.29967 -10.29842 -10.29721
 Alpha  occ. eigenvalues --  -10.29524 -10.29434 -10.29195 -10.28475 -10.28273
 Alpha  occ. eigenvalues --  -10.28257 -10.28203 -10.28192 -10.28174 -10.28129
 Alpha  occ. eigenvalues --  -10.27898 -10.27878 -10.27836 -10.27814 -10.27749
 Alpha  occ. eigenvalues --  -10.27724 -10.27692 -10.27659 -10.27650 -10.27563
 Alpha  occ. eigenvalues --  -10.27512 -10.27462 -10.27331 -10.27295 -10.27163
 Alpha  occ. eigenvalues --  -10.27013 -10.26670 -10.26520 -10.26458 -10.26442
 Alpha  occ. eigenvalues --  -10.26434 -10.26428 -10.26349 -10.26186 -10.26102
 Alpha  occ. eigenvalues --  -10.26089 -10.26033 -10.25781 -10.25698 -10.25633
 Alpha  occ. eigenvalues --  -10.25611 -10.25370 -10.25235 -10.24841 -10.24776
 Alpha  occ. eigenvalues --  -10.24227  -3.17737  -3.17723  -1.92635  -1.92632
 Alpha  occ. eigenvalues --   -1.92194  -1.92148  -1.92038  -1.92029  -1.18049
 Alpha  occ. eigenvalues --   -1.16099  -1.09569  -1.09345  -1.08746  -1.08332
 Alpha  occ. eigenvalues --   -1.07744  -1.05874  -1.05367  -1.05133  -1.04316
 Alpha  occ. eigenvalues --   -1.03920  -1.03293  -1.03035  -1.02415  -1.02049
 Alpha  occ. eigenvalues --   -0.92746  -0.91809  -0.89551  -0.89241  -0.88860
 Alpha  occ. eigenvalues --   -0.88456  -0.88362  -0.87964  -0.87941  -0.87541
 Alpha  occ. eigenvalues --   -0.87107  -0.87096  -0.86865  -0.85636  -0.84756
 Alpha  occ. eigenvalues --   -0.84212  -0.83718  -0.83571  -0.82866  -0.82711
 Alpha  occ. eigenvalues --   -0.82449  -0.81815  -0.81482  -0.81292  -0.80628
 Alpha  occ. eigenvalues --   -0.80576  -0.78841  -0.78367  -0.77542  -0.77430
 Alpha  occ. eigenvalues --   -0.77309  -0.77013  -0.76079  -0.75842  -0.75193
 Alpha  occ. eigenvalues --   -0.75098  -0.72706  -0.72487  -0.71797  -0.71704
 Alpha  occ. eigenvalues --   -0.69866  -0.69137  -0.68877  -0.68731  -0.68304
 Alpha  occ. eigenvalues --   -0.67677  -0.67639  -0.67344  -0.65482  -0.65456
 Alpha  occ. eigenvalues --   -0.65289  -0.65156  -0.65027  -0.64633  -0.64521
 Alpha  occ. eigenvalues --   -0.64307  -0.62695  -0.61919  -0.60976  -0.60462
 Alpha  occ. eigenvalues --   -0.59732  -0.59584  -0.59213  -0.59204  -0.58489
 Alpha  occ. eigenvalues --   -0.58299  -0.57923  -0.57564  -0.57480  -0.57184
 Alpha  occ. eigenvalues --   -0.56166  -0.56133  -0.55988  -0.55877  -0.55753
 Alpha  occ. eigenvalues --   -0.55421  -0.55273  -0.55183  -0.54445  -0.54349
 Alpha  occ. eigenvalues --   -0.53679  -0.53547  -0.53231  -0.53226  -0.53204
 Alpha  occ. eigenvalues --   -0.53097  -0.52929  -0.52885  -0.52492  -0.52407
 Alpha  occ. eigenvalues --   -0.52101  -0.51673  -0.51663  -0.51548  -0.51530
 Alpha  occ. eigenvalues --   -0.51183  -0.50931  -0.50778  -0.50521  -0.50410
 Alpha  occ. eigenvalues --   -0.50394  -0.50067  -0.49957  -0.49588  -0.49483
 Alpha  occ. eigenvalues --   -0.49338  -0.49063  -0.48964  -0.48817  -0.48810
 Alpha  occ. eigenvalues --   -0.48539  -0.48447  -0.48313  -0.48157  -0.48062
 Alpha  occ. eigenvalues --   -0.47642  -0.47370  -0.47199  -0.47160  -0.47112
 Alpha  occ. eigenvalues --   -0.46875  -0.46716  -0.46628  -0.46450  -0.46340
 Alpha  occ. eigenvalues --   -0.46234  -0.45916  -0.45899  -0.45812  -0.45529
 Alpha  occ. eigenvalues --   -0.45396  -0.45136  -0.45012  -0.44907  -0.44688
 Alpha  occ. eigenvalues --   -0.44671  -0.44412  -0.44331  -0.44235  -0.44026
 Alpha  occ. eigenvalues --   -0.43827  -0.43816  -0.43683  -0.43664  -0.43377
 Alpha  occ. eigenvalues --   -0.43161  -0.42997  -0.42946  -0.42834  -0.42699
 Alpha  occ. eigenvalues --   -0.42538  -0.42312  -0.42284  -0.42141  -0.42028
 Alpha  occ. eigenvalues --   -0.41896  -0.41729  -0.41521  -0.41395  -0.41219
 Alpha  occ. eigenvalues --   -0.41190  -0.40846  -0.40817  -0.40532  -0.40454
 Alpha  occ. eigenvalues --   -0.40227  -0.39832  -0.39590  -0.39563  -0.39209
 Alpha  occ. eigenvalues --   -0.38754  -0.38629  -0.37853  -0.37643  -0.37372
 Alpha  occ. eigenvalues --   -0.37258  -0.36876  -0.36525  -0.36503  -0.36432
 Alpha  occ. eigenvalues --   -0.36252  -0.35909  -0.34646  -0.34035  -0.33907
 Alpha  occ. eigenvalues --   -0.33878  -0.33082  -0.32861  -0.31908  -0.31668
 Alpha  occ. eigenvalues --   -0.31150  -0.31116  -0.30748  -0.30539  -0.30441
 Alpha  occ. eigenvalues --   -0.30056  -0.29237  -0.28463  -0.24024  -0.23949
 Alpha  occ. eigenvalues --   -0.21728  -0.20949
 Alpha virt. eigenvalues --   -0.09329  -0.08257  -0.02039  -0.01245  -0.00117
 Alpha virt. eigenvalues --    0.00013   0.01776   0.01845   0.02341   0.02548
 Alpha virt. eigenvalues --    0.04489   0.04709   0.05218   0.05728   0.05800

 Mulliken charges:
               1
     1  Mg   0.807932
     2  C    0.045513
     3  C   -0.061132
     4  C   -0.047190
     5  C   -0.073299
     6  N   -0.322576
     7  C   -0.057752
     8  C    0.013174
     9  C   -0.034175
    10  C    0.075016
    11  C    0.092369
    12  C    0.063763
    13  C   -0.073672
    14  H    0.013932
    15  N   -0.299716
    16  C    0.075875
    17  C   -0.092489
    18  C   -0.003337
    19  C    0.074230
    20  C    0.096286
    21  C   -0.003947
    22  O   -0.229753
    23  C    0.052618
    24  N   -0.284288
    25  C    0.052178
    26  C   -0.096551
    27  C    0.025662
    28  C    0.020403
    29  C    0.057929
    30  C    0.029678
    31  C    0.003930
    32  N   -0.330813
    33  C    0.139925
    34  C   -0.184829
    35  C    0.005587
    36  C    0.046759
    37  C    0.122856
    38  C    0.080865
    39  O   -0.165127
    40  C   -0.062116
    41  C    0.199358
    42  O   -0.251184
    43  O   -0.299758
    44  C    0.166078
    45  H   -0.050025
    46  H   -0.001774
    47  H   -0.028137
    48  H    0.004672
    49  H    0.004298
    50  H    0.033315
    51  H    0.011505
    52  H    0.004324
    53  H   -0.001473
    54  H    0.022354
    55  H    0.024938
    56  H    0.040162
    57  H    0.004955
    58  H    0.026400
    59  H    0.032534
    60  H    0.022799
    61  H    0.017704
    62  H    0.042552
    63  H    0.018015
    64  H    0.003518
    65  H    0.022289
    66  H    0.011509
    67  H    0.017832
    68  H    0.004020
    69  H    0.005190
    70  H    0.037403
    71  H    0.019605
    72  H    0.012137
    73  H    0.013116
    74  H    0.020144
    75  H    0.033527
    76  H    0.053014
    77  H    0.035752
    78  H    0.061773
    79  H    0.031840
    80  Mg   0.808099
    81  C   -0.037988
    82  C   -0.089791
    83  C   -0.052994
    84  C   -0.086849
    85  N   -0.255078
    86  C    0.011445
    87  C   -0.052163
    88  C   -0.029214
    89  C   -0.033327
    90  C    0.087640
    91  C    0.015861
    92  C   -0.056925
    93  H    0.015367
    94  N   -0.338741
    95  C    0.178097
    96  C   -0.150834
    97  C   -0.029484
    98  C    0.090528
    99  C    0.102838
   100  C    0.020445
   101  O   -0.219874
   102  C    0.059536
   103  N   -0.286779
   104  C    0.009208
   105  C   -0.007528
   106  C   -0.009732
   107  C    0.041954
   108  C    0.096761
   109  C    0.007881
   110  C    0.017095
   111  N   -0.353032
   112  C    0.116902
   113  C   -0.178605
   114  C    0.026961
   115  C    0.138529
   116  C    0.109242
   117  C    0.030141
   118  O   -0.162785
   119  C   -0.011612
   120  C    0.215679
   121  O   -0.195518
   122  O   -0.342911
   123  C    0.168240
   124  H   -0.039334
   125  H   -0.000880
   126  H   -0.036908
   127  H    0.001958
   128  H   -0.005746
   129  H    0.006429
   130  H    0.024673
   131  H    0.035913
   132  H   -0.001544
   133  H   -0.000148
   134  H    0.042253
   135  H    0.049244
   136  H    0.022000
   137  H    0.018298
   138  H    0.019627
   139  H    0.017040
   140  H    0.053720
   141  H    0.028150
   142  H    0.011591
   143  H    0.009046
   144  H   -0.005954
   145  H    0.023798
   146  H    0.026134
   147  H    0.000105
   148  H   -0.001171
   149  H    0.023490
   150  H    0.015994
   151  H    0.023972
   152  H    0.034972
   153  H    0.030638
   154  H    0.016739
   155  H    0.051307
   156  H    0.029918
   157  H    0.045851
   158  H    0.042142
 Sum of Mulliken charges =  -0.00000

 Dipole moment (field-independent basis, Debye):
    X=              2.1289    Y=              2.3789    Z=             -3.4785  Tot=              4.7213
 Quadrupole moment (field-independent basis, Debye-Ang):
   XX=           -408.1260   YY=           -469.0349   ZZ=           -534.4367
   XY=             -0.2213   XZ=            106.9549   YZ=            -17.5942

 Normal termination of Gaussian 16 at Wed Sep 15 03:42:53 2021.
