 Gaussian 16, Revision A.03,
 Gaussian 16:  ES64L-G16RevA.03 25-Dec-2016

 -----------------------------------
 #p cam-b3lyp/Def2SVP td=(nstates=5)
 -----------------------------------

 --------------------------------
 TDDFT excited states in gaussian
 --------------------------------
 Symbolic Z-matrix:
 Charge =  0 Multiplicity = 1

                         Standard orientation:
 ---------------------------------------------------------------------
 Center     Atomic      Atomic             Coordinates (Angstroms)
 Number     Number       Type             X           Y           Z
 ---------------------------------------------------------------------
      1         12           0      -23.748075   -0.681839   -0.078405
      2          6           0      -22.513396    2.591553   -0.861630
      3          6           0      -24.373093    0.450548    3.118248
      4          6           0      -24.267046   -3.796586    0.760777
      5          6           0      -22.825729   -1.618136   -3.285125
      6          7           0      -23.201235    1.285522    1.111446
      7          6           0      -22.825803    2.449108    0.496437
      8          6           0      -23.024837    3.638571    1.473658
      9          6           0      -23.571294    2.948187    2.792773
     10          6           0      -23.726032    1.440802    2.373474
     11          6           0      -22.692489    3.062936    4.108724
     12          6           0      -23.985006    4.750672    0.973541
     13          6           0      -23.562641    6.165154    1.154944
     14          1           0      -22.450411    6.617167    2.176618
     15          7           0      -24.256567   -1.612432    1.735688
     16          6           0      -24.611059   -0.984632    2.929505
     17          6           0      -24.923582   -2.017680    3.935605
     18          6           0      -25.002010   -3.261919    3.199579
     19          6           0      -24.494137   -2.934705    1.847000
     20          6           0      -25.186819   -1.780059    5.391785
     21          6           0      -25.452635   -4.675035    3.638763
     22          8           0      -25.769941   -5.599412    2.860858
     23          6           0      -25.686906   -4.896954    5.078882
     24          7           0      -23.511477   -2.389024   -1.086721
     25          6           0      -23.745746   -3.590605   -0.454998
     26          6           0      -23.750557   -4.766750   -1.470425
     27          6           0      -23.646414   -3.971716   -2.846640
     28          6           0      -23.320910   -2.558244   -2.396005
     29          6           0      -22.656043   -5.899126   -1.309074
     30          6           0      -24.869783   -3.988514   -3.749375
     31          6           0      -24.692488   -4.712411   -5.100526
     32          7           0      -23.034440    0.292823   -1.813228
     33          6           0      -22.680085   -0.232877   -3.033151
     34          6           0      -22.107700    0.817644   -3.885238
     35          6           0      -22.090657    1.936342   -3.071237
     36          6           0      -22.656767    1.577568   -1.827573
     37          6           0      -21.578993    0.717661   -5.277999
     38          6           0      -21.743004    3.311651   -3.090382
     39          8           0      -21.347511    4.073681   -4.017970
     40          6           0      -21.982469    3.783578   -1.718992
     41          6           0      -20.750685    4.459591   -1.180366
     42          8           0      -19.744079    3.913535   -0.881700
     43          8           0      -20.981132    5.762631   -1.020833
     44          6           0      -19.884280    6.647662   -0.820483
     45          1           0      -24.590413    0.721600    4.153661
     46          1           0      -24.447246   -4.867589    0.882007
     47          1           0      -22.467231   -1.940846   -4.263984
     48          1           0      -22.033344    4.067046    1.624732
     49          1           0      -24.562589    3.333596    3.029403
     50          1           0      -21.843681    3.743241    4.045264
     51          1           0      -22.248965    2.080075    4.274541
     52          1           0      -23.320402    3.307985    4.965869
     53          1           0      -24.960284    4.718808    1.460659
     54          1           0      -24.179030    4.689838   -0.096939
     55          1           0      -24.405947    6.757128    1.511904
     56          1           0      -23.265915    6.540440    0.175941
     57          1           0      -24.518722   -2.402964    5.986145
     58          1           0      -26.214119   -2.097130    5.571311
     59          1           0      -25.210212   -0.715492    5.626991
     60          1           0      -24.734239   -4.759121    5.590377
     61          1           0      -25.946926   -5.951428    5.168260
     62          1           0      -26.541795   -4.330714    5.447528
     63          1           0      -24.747603   -5.202884   -1.401089
     64          1           0      -22.818647   -4.413990   -3.400895
     65          1           0      -22.020957   -5.686632   -0.449811
     66          1           0      -22.097567   -6.089203   -2.226432
     67          1           0      -23.188133   -6.837416   -1.151445
     68          1           0      -25.372858   -3.034669   -3.908731
     69          1           0      -25.631428   -4.568366   -3.229123
     70          1           0      -25.101021   -4.219804   -5.982648
     71          1           0      -25.347049   -5.583962   -5.072723
     72          1           0      -23.667627   -4.971307   -5.363033
     73          1           0      -21.922218   -0.179768   -5.793499
     74          1           0      -20.501212    0.556907   -5.257104
     75          1           0      -21.770041    1.681598   -5.749456
     76          1           0      -22.797167    4.503581   -1.791616
     77          1           0      -19.392592    6.745090   -1.789422
     78          1           0      -19.130993    6.195535   -0.175146
     79          1           0      -20.227030    7.639556   -0.524721
     80         12           0       23.585305   -0.653018   -0.094895
     81          6           0       21.058971    1.614873    0.505330
     82          6           0       25.621704    2.161466   -0.966475
     83          6           0       25.955618   -2.695647   -1.023576
     84          6           0       21.412955   -3.289294    0.449305
     85          7           0       23.246813    1.660591   -0.406519
     86          6           0       22.219817    2.304010    0.122811
     87          6           0       22.552381    3.808549    0.331037
     88          6           0       23.755375    3.955304   -0.665062
     89          6           0       24.291250    2.515694   -0.719659
     90          6           0       23.304871    4.479559   -2.074827
     91          6           0       22.939324    3.959453    1.819094
     92          6           0       23.174707    5.389435    2.324242
     93          1           0       23.273577    6.538643    1.341210
     94          7           0       25.535166   -0.409946   -0.773777
     95          6           0       26.185591    0.845966   -1.029850
     96          6           0       27.583332    0.526737   -1.286499
     97          6           0       27.708441   -0.894724   -1.194069
     98          6           0       26.355899   -1.422770   -1.021367
     99          6           0       28.713864    1.590129   -1.549703
    100          6           0       29.030607   -1.729881   -1.238120
    101          8           0       28.941010   -2.926707   -1.266441
    102          6           0       30.359480   -1.048114   -1.283328
    103          7           0       23.697683   -2.730921   -0.175663
    104          6           0       24.805752   -3.380933   -0.597472
    105          6           0       24.628255   -4.897485   -0.661159
    106          6           0       23.217269   -5.078368   -0.054988
    107          6           0       22.732707   -3.578171    0.085149
    108          6           0       24.771768   -5.540599   -2.089361
    109          6           0       23.094331   -5.952356    1.167054
    110          6           0       24.060987   -5.799280    2.366102
    111          7           0       21.635018   -0.891823    0.364902
    112          6           0       20.872083   -2.005690    0.569654
    113          6           0       19.574169   -1.555301    1.026184
    114          6           0       19.564984   -0.118453    1.062354
    115          6           0       20.874583    0.220577    0.624730
    116          6           0       18.446394   -2.473348    1.381070
    117          6           0       18.797631    1.060358    1.286576
    118          8           0       17.608203    1.251097    1.621550
    119          6           0       19.725187    2.230216    0.645360
    120          6           0       19.551888    3.458982    1.539617
    121          8           0       19.705987    3.484877    2.700586
    122          8           0       19.144786    4.497713    0.751628
    123          6           0       19.258333    5.840127    1.283666
    124          1           0       26.214206    3.017850   -1.293723
    125          1           0       26.694101   -3.421794   -1.369759
    126          1           0       20.673619   -4.074116    0.617794
    127          1           0       21.746577    4.460084   -0.006702
    128          1           0       24.436582    4.625161   -0.139772
    129          1           0       23.583758    5.527676   -2.176105
    130          1           0       22.226335    4.340724   -2.151997
    131          1           0       23.804968    3.980370   -2.904824
    132          1           0       23.895759    3.455657    1.956398
    133          1           0       22.273787    3.398609    2.474591
    134          1           0       23.910174    5.445108    3.127106
    135          1           0       22.300778    5.599355    2.941198
    136          1           0       29.295436    1.364756   -2.444109
    137          1           0       29.312035    1.610365   -0.638866
    138          1           0       28.270252    2.584807   -1.607858
    139          1           0       31.002768   -1.784740   -0.801499
    140          1           0       30.404785   -0.171592   -0.637999
    141          1           0       30.703165   -0.562460   -2.196590
    142          1           0       25.402573   -5.297380   -0.006852
    143          1           0       22.490301   -5.455244   -0.774385
    144          1           0       24.057654   -6.363393   -2.110427
    145          1           0       25.800415   -5.901502   -2.076419
    146          1           0       24.681618   -4.777220   -2.862102
    147          1           0       23.441923   -6.898805    0.754273
    148          1           0       22.105511   -6.060346    1.614041
    149          1           0       24.694257   -6.645465    2.629322
    150          1           0       23.516174   -5.691338    3.303958
    151          1           0       24.733367   -4.962062    2.178256
    152          1           0       17.606204   -1.822742    1.622070
    153          1           0       18.687950   -3.026995    2.289381
    154          1           0       18.232105   -3.253169    0.650868
    155          1           0       19.353151    2.351732   -0.372163
    156          1           0       18.208718    6.040733    1.068327
    157          1           0       20.040137    6.435852    0.812021
    158          1           0       19.402336    5.886617    2.363425
 ---------------------------------------------------------------------

 SCF Done:  E(RCAM-B3LYP) =  -4069.80218356     A.U. after   18 cycles

 Excitation energies and oscillator strengths:

 Excited State   1:      Singlet-A      1.7200 eV  720.83 nm  f=0.4258  <S**2>=0.000
     309 -> 316        0.17638
     311 -> 313        0.68701
     309 <- 316        0.10598
 This state for optimization and/or second-order correction.
 Total Energy, E(TD-HF/TD-DFT) =  -4069.73897431
 Copying the excited state density for this state as the 1-particle RhoCI density.

 Excited State   2:      Singlet-A      1.7338 eV  715.10 nm  f=0.3714  <S**2>=0.000
     310 -> 315       -0.19617
     312 -> 314        0.68086
     310 <- 315       -0.11069

 Excited State   3:      Singlet-A      2.2103 eV  560.94 nm  f=0.1273  <S**2>=0.000
     309 -> 313        0.65013
     311 -> 316       -0.26631

 Excited State   4:      Singlet-A      2.2194 eV  558.65 nm  f=0.0935  <S**2>=0.000
     310 -> 314        0.63501
     312 -> 315        0.29922

 Excited State   5:      Singlet-A      3.1124 eV  398.35 nm  f=0.0000  <S**2>=0.000
     312 -> 313        0.70710

 The electronic state is 1-A.
 Alpha  occ. eigenvalues --  -46.88893 -46.88258 -19.24980 -19.24374 -19.20250
 Alpha  occ. eigenvalues --  -19.19632 -19.19086 -19.19007 -19.19005 -19.18531
 Alpha  occ. eigenvalues --  -14.42037 -14.41723 -14.41720 -14.41602 -14.39677
 Alpha  occ. eigenvalues --  -14.39541 -14.39295 -14.39264 -10.39026 -10.38904
 Alpha  occ. eigenvalues --  -10.35265 -10.35046 -10.34942 -10.34690 -10.31682
 Alpha  occ. eigenvalues --  -10.31483 -10.31451 -10.31010 -10.30937 -10.30701
 Alpha  occ. eigenvalues --  -10.30609 -10.30581 -10.30531 -10.30417 -10.30273
 Alpha  occ. eigenvalues --  -10.30140 -10.29681 -10.29613 -10.29531 -10.29303
 Alpha  occ. eigenvalues --  -10.29278 -10.28997 -10.28761 -10.28739 -10.28733
 Alpha  occ. eigenvalues --  -10.28589 -10.28447 -10.28364 -10.28350 -10.28247
 Alpha  occ. eigenvalues --  -10.28178 -10.28079 -10.28065 -10.27790 -10.27772
 Alpha  occ. eigenvalues --  -10.27685 -10.27644 -10.27611 -10.27572 -10.27571
 Alpha  occ. eigenvalues --  -10.27547 -10.27497 -10.27170 -10.27037 -10.26979
 Alpha  occ. eigenvalues --  -10.26748 -10.26731 -10.26713 -10.26548 -10.26456
 Alpha  occ. eigenvalues --  -10.26453 -10.26453 -10.26267 -10.26255 -10.26198
 Alpha  occ. eigenvalues --  -10.26191 -10.25896 -10.25876 -10.25779 -10.25734
 Alpha  occ. eigenvalues --  -10.25564 -10.25433 -10.25262 -10.25173 -10.25165
 Alpha  occ. eigenvalues --  -10.24936  -3.17470  -3.16895  -1.92353  -1.91940
 Alpha  occ. eigenvalues --   -1.91794  -1.91770  -1.91367  -1.91185  -1.18599
 Alpha  occ. eigenvalues --   -1.17600  -1.11514  -1.09789  -1.09688  -1.08291
 Alpha  occ. eigenvalues --   -1.08065  -1.07998  -1.05226  -1.04814  -1.04070
 Alpha  occ. eigenvalues --   -1.03753  -1.03042  -1.02513  -1.02066  -1.01767
 Alpha  occ. eigenvalues --   -0.93553  -0.93010  -0.89370  -0.89111  -0.88659
 Alpha  occ. eigenvalues --   -0.88528  -0.88526  -0.88354  -0.87722  -0.87298
 Alpha  occ. eigenvalues --   -0.86865  -0.86423  -0.86269  -0.85671  -0.84536
 Alpha  occ. eigenvalues --   -0.84057  -0.83726  -0.83509  -0.82606  -0.82420
 Alpha  occ. eigenvalues --   -0.82043  -0.81755  -0.81698  -0.81415  -0.80490
 Alpha  occ. eigenvalues --   -0.80271  -0.78285  -0.77986  -0.77693  -0.77350
 Alpha  occ. eigenvalues --   -0.77141  -0.76812  -0.76341  -0.75863  -0.75503
 Alpha  occ. eigenvalues --   -0.75183  -0.73157  -0.72675  -0.71997  -0.71475
 Alpha  occ. eigenvalues --   -0.70262  -0.69385  -0.68957  -0.68874  -0.68097
 Alpha  occ. eigenvalues --   -0.67475  -0.66235  -0.66194  -0.65905  -0.65179
 Alpha  occ. eigenvalues --   -0.64914  -0.64900  -0.64832  -0.64456  -0.64290
 Alpha  occ. eigenvalues --   -0.64146  -0.63012  -0.62362  -0.60499  -0.60316
 Alpha  occ. eigenvalues --   -0.59846  -0.59642  -0.59319  -0.59154  -0.59121
 Alpha  occ. eigenvalues --   -0.58813  -0.58195  -0.58136  -0.57910  -0.57739
 Alpha  occ. eigenvalues --   -0.56475  -0.56216  -0.56130  -0.56093  -0.55643
 Alpha  occ. eigenvalues --   -0.55342  -0.55158  -0.54898  -0.54218  -0.53737
 Alpha  occ. eigenvalues --   -0.53628  -0.53512  -0.53412  -0.53232  -0.53001
 Alpha  occ. eigenvalues --   -0.52957  -0.52779  -0.52388  -0.52384  -0.52300
 Alpha  occ. eigenvalues --   -0.52076  -0.51801  -0.51634  -0.51565  -0.51469
 Alpha  occ. eigenvalues --   -0.51099  -0.50754  -0.50711  -0.50141  -0.50063
 Alpha  occ. eigenvalues --   -0.50018  -0.49980  -0.49865  -0.49685  -0.49553
 Alpha  occ. eigenvalues --   -0.49317  -0.49304  -0.49237  -0.49071  -0.48766
 Alpha  occ. eigenvalues --   -0.48736  -0.48561  -0.48316  -0.48226  -0.48219
 Alpha  occ. eigenvalues --   -0.48132  -0.47969  -0.47691  -0.47631  -0.47399
 Alpha  occ. eigenvalues --   -0.46893  -0.46842  -0.46761  -0.46615  -0.46538
 Alpha  occ. eigenvalues --   -0.46195  -0.46096  -0.46034  -0.45952  -0.45829
 Alpha  occ. eigenvalues --   -0.45787  -0.45578  -0.45265  -0.45200  -0.45004
 Alpha  occ. eigenvalues --   -0.44769  -0.44734  -0.44523  -0.44431  -0.43852
 Alpha  occ. eigenvalues --   -0.43625  -0.43425  -0.43352  -0.43256  -0.43015
 Alpha  occ. eigenvalues --   -0.42972  -0.42852  -0.42688  -0.42669  -0.42590
 Alpha  occ. eigenvalues --   -0.42299  -0.42134  -0.42080  -0.41983  -0.41871
 Alpha  occ. eigenvalues --   -0.41839  -0.41611  -0.41563  -0.41424  -0.41415
 Alpha  occ. eigenvalues --   -0.41155  -0.40984  -0.40948  -0.40252  -0.40216
 Alpha  occ. eigenvalues --   -0.40065  -0.39667  -0.39545  -0.39436  -0.39105
 Alpha  occ. eigenvalues --   -0.38393  -0.38168  -0.37944  -0.37893  -0.37503
 Alpha  occ. eigenvalues --   -0.37123  -0.36930  -0.36509  -0.36379  -0.36245
 Alpha  occ. eigenvalues --   -0.35844  -0.35832  -0.35126  -0.34659  -0.34108
 Alpha  occ. eigenvalues --   -0.33953  -0.33337  -0.32888  -0.31579  -0.31574
 Alpha  occ. eigenvalues --   -0.31423  -0.31004  -0.30744  -0.30581  -0.30411
 Alpha  occ. eigenvalues --   -0.29813  -0.29465  -0.29354  -0.24096  -0.23801
 Alpha  occ. eigenvalues --   -0.21288  -0.21088
 Alpha virt. eigenvalues --   -0.08919  -0.08427  -0.01879  -0.01454  -0.00172
 Alpha virt. eigenvalues --    0.00197   0.01947   0.02380   0.02618   0.03033
 Alpha virt. eigenvalues --    0.05292   0.05345   0.05861   0.06075   0.06135

 Mulliken charges:
               1
     1  Mg   0.831080
     2  C   -0.003455
     3  C   -0.022634
     4  C   -0.061399
     5  C   -0.094168
     6  N   -0.252773
     7  C   -0.054175
     8  C    0.021062
     9  C   -0.061036
    10  C    0.018212
    11  C    0.057380
    12  C    0.048954
    13  C   -0.081528
    14  H    0.000667
    15  N   -0.364172
    16  C    0.090944
    17  C   -0.170513
    18  C   -0.041468
    19  C    0.129264
    20  C    0.140614
    21  C    0.009621
    22  O   -0.229755
    23  C    0.054904
    24  N   -0.351662
    25  C    0.076936
    26  C   -0.074952
    27  C   -0.035823
    28  C    0.084625
    29  C    0.075277
    30  C    0.058352
    31  C   -0.010528
    32  N   -0.321540
    33  C    0.100468
    34  C   -0.161330
    35  C   -0.007591
    36  C    0.104545
    37  C    0.130297
    38  C    0.044993
    39  O   -0.216241
    40  C    0.039320
    41  C    0.154796
    42  O   -0.173606
    43  O   -0.300082
    44  C    0.179691
    45  H   -0.038460
    46  H   -0.005603
    47  H   -0.029188
    48  H    0.021620
    49  H    0.016295
    50  H    0.019348
    51  H    0.019379
    52  H    0.018309
    53  H    0.008889
    54  H    0.007762
    55  H    0.022192
    56  H    0.037182
    57  H    0.036397
    58  H    0.019911
    59  H    0.011628
    60  H    0.032322
    61  H    0.020458
    62  H    0.045011
    63  H    0.021365
    64  H    0.000795
    65  H    0.029728
    66  H    0.014100
    67  H    0.016437
    68  H    0.016398
    69  H   -0.002393
    70  H    0.007262
    71  H    0.010557
    72  H    0.017270
    73  H    0.008798
    74  H    0.034192
    75  H    0.049467
    76  H    0.040238
    77  H    0.029073
    78  H    0.038782
    79  H    0.042907
    80  Mg   0.826061
    81  C   -0.012327
    82  C   -0.069433
    83  C   -0.074865
    84  C   -0.110755
    85  N   -0.226790
    86  C   -0.083324
    87  C   -0.038267
    88  C   -0.040663
    89  C    0.001540
    90  C    0.086689
    91  C    0.038256
    92  C   -0.033805
    93  H    0.030047
    94  N   -0.395504
    95  C    0.163771
    96  C   -0.171001
    97  C   -0.041648
    98  C    0.168848
    99  C    0.109756
   100  C    0.017402
   101  O   -0.181342
   102  C    0.052859
   103  N   -0.266018
   104  C   -0.012129
   105  C   -0.046932
   106  C   -0.006103
   107  C    0.066929
   108  C    0.083998
   109  C    0.038667
   110  C   -0.018428
   111  N   -0.393962
   112  C    0.127055
   113  C   -0.170471
   114  C    0.015087
   115  C    0.149478
   116  C    0.114104
   117  C    0.076155
   118  O   -0.199721
   119  C   -0.076690
   120  C    0.177539
   121  O   -0.154516
   122  O   -0.338134
   123  C    0.149823
   124  H   -0.021750
   125  H   -0.018203
   126  H   -0.032779
   127  H   -0.002267
   128  H   -0.002017
   129  H    0.017263
   130  H    0.023479
   131  H    0.018040
   132  H    0.001267
   133  H    0.042099
   134  H    0.018694
   135  H    0.015675
   136  H    0.037180
   137  H    0.036360
   138  H    0.006410
   139  H    0.032701
   140  H   -0.000058
   141  H    0.047135
   142  H    0.021798
   143  H    0.003773
   144  H    0.024777
   145  H    0.025990
   146  H    0.031892
   147  H    0.004408
   148  H    0.015884
   149  H    0.010600
   150  H    0.010201
   151  H    0.020204
   152  H    0.037324
   153  H    0.019391
   154  H    0.024892
   155  H    0.054951
   156  H    0.050943
   157  H    0.046120
   158  H    0.046387
 Sum of Mulliken charges =  -0.00000

 Dipole moment (field-independent basis, Debye):
    X=              1.8701    Y=              1.4545    Z=              0.2631  Tot=              2.3837
 Quadrupole moment (field-independent basis, Debye-Ang):
   XX=           -248.8676   YY=           -477.6956   ZZ=           -502.7735
   XY=             18.2378   XZ=            -58.3675   YZ=             16.1591

 Normal termination of Gaussian 16 at Thu Sep  2 16:47:31 2021.
