 Gaussian 16, Revision A.03,
 Gaussian 16:  ES64L-G16RevA.03 25-Dec-2016

 ----------------------------------------------------------
 #p cam-b3lyp/Def2SVP td=(nstates=5) density=(transition=1)
 ----------------------------------------------------------

 --------------------------------
 TDDFT excited states in gaussian
 --------------------------------
 Symbolic Z-matrix:
 Charge =  0 Multiplicity = 1

                         Standard orientation:
 ---------------------------------------------------------------------
 Center     Atomic      Atomic             Coordinates (Angstroms)
 Number     Number       Type             X           Y           Z
 ---------------------------------------------------------------------
      1         12           0      -26.777829    0.561358    0.039470
      2          6           0      -24.889865   -2.187269    1.201737
      3          6           0      -28.063404   -1.388018   -2.455603
      4          6           0      -27.949423    3.311483   -1.351310
      5          6           0      -25.012306    2.588385    2.354624
      6          7           0      -26.570764   -1.592803   -0.464152
      7          6           0      -25.786199   -2.462064    0.141664
      8          6           0      -26.200309   -3.857520   -0.289163
      9          6           0      -26.846887   -3.618971   -1.707897
     10          6           0      -27.192416   -2.089451   -1.568769
     11          6           0      -25.864878   -4.041584   -2.865829
     12          6           0      -27.260071   -4.480995    0.655108
     13          6           0      -27.380456   -6.067498    0.605888
     14          1           0      -26.527859   -6.915614   -0.341707
     15          7           0      -28.003565    0.882736   -1.518404
     16          6           0      -28.525929   -0.059774   -2.440871
     17          6           0      -29.448415    0.651154   -3.356685
     18          6           0      -29.343797    2.060507   -3.074543
     19          6           0      -28.407862    2.186846   -1.936273
     20          6           0      -30.300931   -0.030790   -4.367764
     21          6           0      -30.031443    3.334516   -3.703006
     22          8           0      -29.891615    4.485329   -3.266997
     23          6           0      -30.791595    3.171103   -4.987218
     24          7           0      -26.426910    2.695029    0.375581
     25          6           0      -27.067452    3.616862   -0.293064
     26          6           0      -26.809323    5.028972    0.152386
     27          6           0      -25.837983    4.816530    1.366335
     28          6           0      -25.810477    3.257280    1.450819
     29          6           0      -26.355710    5.918515   -1.008845
     30          6           0      -26.312119    5.430831    2.677431
     31          6           0      -25.217586    6.116003    3.571715
     32          7           0      -25.277822    0.321336    1.588995
     33          6           0      -24.696657    1.250263    2.474261
     34          6           0      -23.911684    0.542820    3.426572
     35          6           0      -23.793957   -0.780200    2.893134
     36          6           0      -24.660990   -0.873177    1.834039
     37          6           0      -23.386239    1.101594    4.717743
     38          6           0      -23.297354   -2.168582    3.048764
     39          8           0      -22.540704   -2.638686    3.872744
     40          6           0      -23.812771   -3.016051    1.790222
     41          6           0      -24.010595   -4.448756    2.163474
     42          8           0      -24.767743   -4.875339    2.984707
     43          8           0      -23.102561   -5.283984    1.486185
     44          6           0      -22.678191   -6.510645    2.193759
     45          1           0      -28.359271   -1.887262   -3.381091
     46          1           0      -28.394049    4.264676   -1.642813
     47          1           0      -24.544092    3.230578    3.103602
     48          1           0      -25.279994   -4.429457   -0.171266
     49          1           0      -27.769612   -4.187456   -1.828883
     50          1           0      -24.923780   -4.400258   -2.450295
     51          1           0      -25.606717   -3.092461   -3.335579
     52          1           0      -26.239751   -4.830992   -3.517414
     53          1           0      -28.203517   -4.050037    0.317532
     54          1           0      -27.036028   -4.129815    1.662307
     55          1           0      -28.436356   -6.252197    0.402467
     56          1           0      -27.211117   -6.387826    1.634190
     57          1           0      -30.390942   -1.116165   -4.341975
     58          1           0      -29.955880    0.145021   -5.386267
     59          1           0      -31.295144    0.375901   -4.181046
     60          1           0      -31.836756    2.892809   -4.852807
     61          1           0      -30.178915    2.398924   -5.454097
     62          1           0      -30.677070    4.112755   -5.523430
     63          1           0      -27.796312    5.334831    0.499135
     64          1           0      -24.829446    5.191708    1.196967
     65          1           0      -25.876677    5.372987   -1.822464
     66          1           0      -25.598447    6.575772   -0.583276
     67          1           0      -27.172128    6.499967   -1.437753
     68          1           0      -26.791154    4.684065    3.310425
     69          1           0      -27.159706    6.049750    2.383473
     70          1           0      -24.214958    5.934252    3.185044
     71          1           0      -25.312624    5.622163    4.538542
     72          1           0      -25.288061    7.187565    3.761371
     73          1           0      -22.916750    2.045762    4.441230
     74          1           0      -22.640803    0.478637    5.212400
     75          1           0      -24.216065    1.339867    5.383875
     76          1           0      -22.993975   -3.105954    1.077082
     77          1           0      -23.038932   -7.365750    1.621937
     78          1           0      -23.041580   -6.543262    3.221474
     79          1           0      -21.588672   -6.480036    2.186749
     80         12           0       26.676352    0.676647    0.064969
     81          6           0       24.905831   -2.001045   -1.579731
     82          6           0       28.096734   -1.775457    2.130649
     83          6           0       28.388435    3.084197    1.497578
     84          6           0       24.915890    2.979772   -1.888876
     85          7           0       26.456165   -1.669118    0.225613
     86          6           0       25.871955   -2.520860   -0.657836
     87          6           0       26.305381   -3.960260   -0.432637
     88          6           0       27.071271   -3.919207    1.005019
     89          6           0       27.200989   -2.375847    1.155197
     90          6           0       26.350125   -4.669844    2.152488
     91          6           0       27.194207   -4.513555   -1.597298
     92          6           0       26.636677   -5.800446   -2.258920
     93          1           0       27.598869   -7.109524   -2.066571
     94          7           0       28.014828    0.655115    1.550656
     95          6           0       28.500037   -0.431911    2.353838
     96          6           0       29.501888   -0.016320    3.363838
     97          6           0       29.600356    1.390613    3.108183
     98          6           0       28.662503    1.751147    2.031692
     99          6           0       30.168267   -0.950285    4.376074
    100          6           0       30.402250    2.403961    3.832285
    101          8           0       30.636753    3.542222    3.440970
    102          6           0       31.123524    1.964935    5.121753
    103          7           0       26.763880    2.677675   -0.293171
    104          6           0       27.537978    3.492879    0.458990
    105          6           0       27.234821    4.950169    0.247501
    106          6           0       26.159127    4.960737   -0.866403
    107          6           0       25.946357    3.447733   -1.097974
    108          6           0       26.883288    5.714011    1.506906
    109          6           0       26.734609    5.688604   -2.219214
    110          6           0       25.828450    6.902396   -2.805606
    111          7           0       25.010228    0.573605   -1.252069
    112          6           0       24.472989    1.628688   -2.028226
    113          6           0       23.491864    1.047387   -2.951602
    114          6           0       23.758235   -0.345198   -2.877874
    115          6           0       24.576700   -0.577763   -1.771527
    116          6           0       22.469067    1.732507   -3.852897
    117          6           0       23.222100   -1.648251   -3.363036
    118          8           0       22.314793   -2.004946   -4.164914
    119          6           0       24.065040   -2.742672   -2.601075
    120          6           0       23.116030   -3.714277   -1.963734
    121          8           0       22.126766   -3.398730   -1.365255
    122          8           0       23.491958   -4.991419   -2.275233
    123          6           0       22.430148   -5.985315   -1.976427
    124          1           0       28.403982   -2.556178    2.829301
    125          1           0       28.924413    3.929440    1.934999
    126          1           0       24.381521    3.677712   -2.536416
    127          1           0       25.386723   -4.532991   -0.305305
    128          1           0       28.093662   -4.293171    0.944273
    129          1           0       26.020171   -3.974190    2.924600
    130          1           0       27.008398   -5.422599    2.588185
    131          1           0       25.498870   -5.283840    1.858326
    132          1           0       28.200196   -4.758708   -1.255745
    133          1           0       27.295074   -3.788346   -2.405203
    134          1           0       26.632309   -5.754251   -3.348245
    135          1           0       25.604874   -6.043026   -2.006628
    136          1           0       30.126823   -2.019644    4.166663
    137          1           0       29.860103   -0.815371    5.412816
    138          1           0       31.223839   -0.677732    4.351612
    139          1           0       30.399848    1.642491    5.870318
    140          1           0       31.778804    2.742443    5.515872
    141          1           0       31.764166    1.119089    4.872359
    142          1           0       28.156425    5.441068   -0.068087
    143          1           0       25.230306    5.409335   -0.515283
    144          1           0       27.668604    6.395119    1.835883
    145          1           0       26.734887    5.099154    2.394542
    146          1           0       25.952666    6.251187    1.322749
    147          1           0       26.884429    5.009434   -3.057855
    148          1           0       27.717458    6.133843   -2.066980
    149          1           0       25.214572    7.235652   -1.968598
    150          1           0       25.211601    6.579793   -3.645381
    151          1           0       26.436806    7.776496   -3.036417
    152          1           0       22.283851    1.169575   -4.767513
    153          1           0       22.925816    2.652793   -4.218838
    154          1           0       21.646766    1.958570   -3.173909
    155          1           0       24.582821   -3.305034   -3.377677
    156          1           0       22.146831   -5.852557   -0.932473
    157          1           0       22.953801   -6.939120   -2.038911
    158          1           0       21.500012   -5.958269   -2.544001
 ---------------------------------------------------------------------

 SCF Done:  E(RCAM-B3LYP) =  -4069.79230338     A.U. after   19 cycles

 Excitation energies and oscillator strengths:

 Excited State   1:      Singlet-A      1.6722 eV  741.45 nm  f=0.3722  <S**2>=0.000
     309 -> 316       -0.18802
     312 -> 313        0.68427
     309 <- 316       -0.11183
 This state for optimization and/or second-order correction.
 Total Energy, E(TD-HF/TD-DFT) =  -4069.73085206
 Copying the excited state density for this state as the 1-particle RhoCI density.

 Excited State   2:      Singlet-A      1.7949 eV  690.76 nm  f=0.3730  <S**2>=0.000
     310 -> 315        0.18886
     311 -> 314        0.68031
     310 <- 315        0.10305

 Excited State   3:      Singlet-A      2.1693 eV  571.55 nm  f=0.0961  <S**2>=0.000
     310 -> 314        0.64302
     311 -> 315       -0.27286

 Excited State   4:      Singlet-A      2.1741 eV  570.29 nm  f=0.1367  <S**2>=0.000
     309 -> 313        0.64724
     312 -> 316        0.27758

 Excited State   5:      Singlet-A      3.1806 eV  389.82 nm  f=0.0000  <S**2>=0.000
     311 -> 313        0.70710

 The electronic state is 1-A.
 Alpha  occ. eigenvalues --  -46.88520 -46.88519 -19.25635 -19.23244 -19.20286
 Alpha  occ. eigenvalues --  -19.19733 -19.19555 -19.18943 -19.18674 -19.18344
 Alpha  occ. eigenvalues --  -14.42597 -14.41947 -14.41925 -14.41719 -14.40705
 Alpha  occ. eigenvalues --  -14.39723 -14.39239 -14.37983 -10.38807 -10.38527
 Alpha  occ. eigenvalues --  -10.36777 -10.35131 -10.35113 -10.34792 -10.32193
 Alpha  occ. eigenvalues --  -10.31913 -10.31818 -10.31567 -10.31528 -10.31478
 Alpha  occ. eigenvalues --  -10.31278 -10.30861 -10.30857 -10.30795 -10.30789
 Alpha  occ. eigenvalues --  -10.30657 -10.30615 -10.30590 -10.30075 -10.29968
 Alpha  occ. eigenvalues --  -10.29712 -10.29187 -10.29089 -10.29029 -10.28983
 Alpha  occ. eigenvalues --  -10.28896 -10.28618 -10.28520 -10.28441 -10.28229
 Alpha  occ. eigenvalues --  -10.28189 -10.28167 -10.28072 -10.28071 -10.27960
 Alpha  occ. eigenvalues --  -10.27950 -10.27871 -10.27835 -10.27819 -10.27674
 Alpha  occ. eigenvalues --  -10.27611 -10.27606 -10.27573 -10.27367 -10.27318
 Alpha  occ. eigenvalues --  -10.27230 -10.27135 -10.26879 -10.26747 -10.26677
 Alpha  occ. eigenvalues --  -10.26583 -10.26201 -10.26135 -10.26114 -10.26101
 Alpha  occ. eigenvalues --  -10.26058 -10.26045 -10.25958 -10.25905 -10.25853
 Alpha  occ. eigenvalues --  -10.25842 -10.25597 -10.25481 -10.25427 -10.25178
 Alpha  occ. eigenvalues --  -10.24403  -3.17164  -3.16980  -1.92061  -1.91892
 Alpha  occ. eigenvalues --   -1.91618  -1.91485  -1.91437  -1.91276  -1.16950
 Alpha  occ. eigenvalues --   -1.15180  -1.10464  -1.09958  -1.09521  -1.08673
 Alpha  occ. eigenvalues --   -1.07054  -1.06976  -1.05086  -1.04499  -1.03989
 Alpha  occ. eigenvalues --   -1.03256  -1.02573  -1.02005  -1.01673  -1.00950
 Alpha  occ. eigenvalues --   -0.91796  -0.91565  -0.89263  -0.88882  -0.88631
 Alpha  occ. eigenvalues --   -0.88487  -0.88117  -0.87726  -0.87574  -0.87403
 Alpha  occ. eigenvalues --   -0.87215  -0.86984  -0.85625  -0.85420  -0.84011
 Alpha  occ. eigenvalues --   -0.83962  -0.83668  -0.83160  -0.82848  -0.81806
 Alpha  occ. eigenvalues --   -0.81677  -0.81383  -0.80664  -0.80653  -0.79845
 Alpha  occ. eigenvalues --   -0.79749  -0.79085  -0.78580  -0.77169  -0.77088
 Alpha  occ. eigenvalues --   -0.76774  -0.76358  -0.76024  -0.75379  -0.75216
 Alpha  occ. eigenvalues --   -0.75129  -0.72546  -0.72487  -0.71676  -0.71408
 Alpha  occ. eigenvalues --   -0.69808  -0.69165  -0.68737  -0.68601  -0.67583
 Alpha  occ. eigenvalues --   -0.67232  -0.67080  -0.66610  -0.66024  -0.65910
 Alpha  occ. eigenvalues --   -0.65623  -0.65174  -0.64504  -0.64375  -0.63986
 Alpha  occ. eigenvalues --   -0.63445  -0.62356  -0.61027  -0.60791  -0.60183
 Alpha  occ. eigenvalues --   -0.59252  -0.59082  -0.58726  -0.58581  -0.58337
 Alpha  occ. eigenvalues --   -0.58035  -0.57946  -0.57521  -0.57127  -0.56809
 Alpha  occ. eigenvalues --   -0.56436  -0.56127  -0.55416  -0.55265  -0.55060
 Alpha  occ. eigenvalues --   -0.55051  -0.54486  -0.54245  -0.53768  -0.53661
 Alpha  occ. eigenvalues --   -0.53383  -0.53179  -0.53097  -0.52803  -0.52657
 Alpha  occ. eigenvalues --   -0.52552  -0.52158  -0.52144  -0.51999  -0.51712
 Alpha  occ. eigenvalues --   -0.51643  -0.51441  -0.51365  -0.51343  -0.51179
 Alpha  occ. eigenvalues --   -0.50889  -0.50837  -0.50489  -0.50450  -0.50155
 Alpha  occ. eigenvalues --   -0.50053  -0.50011  -0.49958  -0.49791  -0.49417
 Alpha  occ. eigenvalues --   -0.49261  -0.49199  -0.48918  -0.48774  -0.48632
 Alpha  occ. eigenvalues --   -0.48311  -0.48234  -0.48103  -0.48004  -0.47996
 Alpha  occ. eigenvalues --   -0.47817  -0.47554  -0.47500  -0.47457  -0.47296
 Alpha  occ. eigenvalues --   -0.47036  -0.47000  -0.46831  -0.46556  -0.46539
 Alpha  occ. eigenvalues --   -0.46472  -0.46191  -0.46131  -0.45934  -0.45563
 Alpha  occ. eigenvalues --   -0.45540  -0.45427  -0.45022  -0.44976  -0.44856
 Alpha  occ. eigenvalues --   -0.44803  -0.44763  -0.44365  -0.44232  -0.44088
 Alpha  occ. eigenvalues --   -0.43923  -0.43872  -0.43776  -0.43700  -0.43308
 Alpha  occ. eigenvalues --   -0.43307  -0.43055  -0.42850  -0.42717  -0.42597
 Alpha  occ. eigenvalues --   -0.42580  -0.42235  -0.42206  -0.42025  -0.41992
 Alpha  occ. eigenvalues --   -0.41669  -0.41533  -0.41533  -0.41336  -0.41301
 Alpha  occ. eigenvalues --   -0.41128  -0.40956  -0.40782  -0.40685  -0.40424
 Alpha  occ. eigenvalues --   -0.40168  -0.40117  -0.39980  -0.39368  -0.39038
 Alpha  occ. eigenvalues --   -0.38766  -0.38588  -0.38222  -0.37703  -0.37540
 Alpha  occ. eigenvalues --   -0.37478  -0.37329  -0.36368  -0.36357  -0.35734
 Alpha  occ. eigenvalues --   -0.35491  -0.35382  -0.34628  -0.34409  -0.34151
 Alpha  occ. eigenvalues --   -0.33775  -0.33079  -0.33008  -0.31882  -0.31623
 Alpha  occ. eigenvalues --   -0.31169  -0.30982  -0.30585  -0.30455  -0.30261
 Alpha  occ. eigenvalues --   -0.29901  -0.29373  -0.28280  -0.23895  -0.23706
 Alpha  occ. eigenvalues --   -0.21308  -0.21295
 Alpha virt. eigenvalues --   -0.08970  -0.08469  -0.02005  -0.01824  -0.00104
 Alpha virt. eigenvalues --    0.00142   0.02067   0.02739   0.03027   0.03565
 Alpha virt. eigenvalues --    0.04238   0.04842   0.05226   0.05710   0.05787

 Mulliken charges:
               1
     1  Mg  12.000004
     2  C    6.000068
     3  C    6.000072
     4  C    5.999928
     5  C    5.999923
     6  N    6.999977
     7  C    5.999979
     8  C    6.000007
     9  C    6.000005
    10  C    5.999978
    11  C    5.999995
    12  C    5.999997
    13  C    5.999996
    14  H    0.999981
    15  N    7.000020
    16  C    5.999951
    17  C    5.999998
    18  C    5.999974
    19  C    6.000039
    20  C    6.000011
    21  C    6.000024
    22  O    8.000010
    23  C    6.000014
    24  N    7.000023
    25  C    6.000010
    26  C    5.999998
    27  C    5.999997
    28  C    6.000024
    29  C    5.999994
    30  C    6.000004
    31  C    6.000003
    32  N    6.999989
    33  C    6.000059
    34  C    5.999967
    35  C    6.000033
    36  C    5.999967
    37  C    5.999995
    38  C    5.999984
    39  O    7.999985
    40  C    5.999965
    41  C    6.000001
    42  O    8.000017
    43  O    7.999982
    44  C    6.000001
    45  H    0.999993
    46  H    1.000023
    47  H    1.000005
    48  H    0.999986
    49  H    1.000021
    50  H    0.999991
    51  H    0.999980
    52  H    1.000005
    53  H    1.000008
    54  H    1.000015
    55  H    1.000020
    56  H    1.000016
    57  H    1.000016
    58  H    0.999997
    59  H    1.000032
    60  H    1.000028
    61  H    0.999981
    62  H    1.000004
    63  H    1.000025
    64  H    0.999973
    65  H    0.999974
    66  H    0.999994
    67  H    1.000011
    68  H    1.000022
    69  H    1.000006
    70  H    0.999971
    71  H    1.000021
    72  H    1.000001
    73  H    0.999969
    74  H    0.999985
    75  H    1.000018
    76  H    0.999966
    77  H    1.000001
    78  H    1.000025
    79  H    0.999969
    80  Mg  12.004476
    81  C    5.971499
    82  C    6.006701
    83  C    6.034383
    84  C    5.988826
    85  N    6.982977
    86  C    6.036056
    87  C    5.989430
    88  C    6.012662
    89  C    5.968363
    90  C    6.002938
    91  C    5.998161
    92  C    5.997894
    93  H    1.007334
    94  N    7.006909
    95  C    5.960290
    96  C    5.975728
    97  C    5.985459
    98  C    5.967571
    99  C    6.004956
   100  C    5.988524
   101  O    7.968075
   102  C    6.004414
   103  N    7.007932
   104  C    5.959598
   105  C    6.010599
   106  C    5.987685
   107  C    6.031740
   108  C    6.000816
   109  C    5.994912
   110  C    5.999059
   111  N    6.995232
   112  C    6.046565
   113  C    6.030310
   114  C    6.004753
   115  C    6.033530
   116  C    6.000198
   117  C    6.009569
   118  O    8.031093
   119  C    6.004772
   120  C    6.006794
   121  O    8.000272
   122  O    8.001913
   123  C    5.997814
   124  H    0.986456
   125  H    0.998928
   126  H    1.012792
   127  H    0.997625
   128  H    0.998748
   129  H    1.000496
   130  H    0.996012
   131  H    0.985635
   132  H    1.009293
   133  H    0.994987
   134  H    0.996939
   135  H    0.998017
   136  H    0.983183
   137  H    0.979639
   138  H    0.983278
   139  H    0.992207
   140  H    0.984954
   141  H    0.994674
   142  H    1.001121
   143  H    1.003976
   144  H    1.002356
   145  H    1.005375
   146  H    0.989915
   147  H    0.998959
   148  H    1.012782
   149  H    1.004050
   150  H    0.997101
   151  H    1.006504
   152  H    1.015833
   153  H    1.017051
   154  H    1.017526
   155  H    1.004768
   156  H    1.004667
   157  H    1.005239
   158  H    1.000134
 Sum of Mulliken charges = 624.00000

 Dipole moment (field-independent basis, Debye):
    X=             -7.2582    Y=              0.8884    Z=             -7.9950  Tot=             10.8347
 Quadrupole moment (field-independent basis, Debye-Ang):
   XX=           -384.8201   YY=              3.6593   ZZ=             -3.6656
   XY=             19.2367   XZ=           -214.1438   YZ=             -3.8148

 Normal termination of Gaussian 16 at Wed Sep 22 04:02:26 2021.
