 Gaussian 16, Revision A.03,
 Gaussian 16:  ES64L-G16RevA.03 25-Dec-2016

 ----------------------------------------------------------
 #p cam-b3lyp/Def2SVP td=(nstates=5) density=(transition=1)
 ----------------------------------------------------------

 --------------------------------
 TDDFT excited states in gaussian
 --------------------------------
 Symbolic Z-matrix:
 Charge =  0 Multiplicity = 1

                         Standard orientation:
 ---------------------------------------------------------------------
 Center     Atomic      Atomic             Coordinates (Angstroms)
 Number     Number       Type             X           Y           Z
 ---------------------------------------------------------------------
      1         12           0       16.691525    0.597110   -0.040792
      2          6           0       15.606117   -2.267128    1.637607
      3          6           0       13.850129    2.205398    1.237607
      4          6           0       17.279620    3.236988   -2.011621
      5          6           0       18.752020   -1.382436   -1.958881
      6          7           0       14.928147    0.069741    1.408966
      7          6           0       14.745928   -1.197223    1.867253
      8          6           0       13.430346   -1.287794    2.737798
      9          6           0       12.744358    0.124940    2.376246
     10          6           0       13.856453    0.845495    1.595692
     11          6           0       11.567896   -0.169313    1.379072
     12          6           0       13.869718   -1.332399    4.247436
     13          6           0       12.747528   -1.290118    5.320150
     14          1           0       12.685459   -0.492794    6.588919
     15          7           0       15.817503    2.492819   -0.174157
     16          6           0       14.672531    3.016513    0.449121
     17          6           0       14.496173    4.329675   -0.010687
     18          6           0       15.573943    4.710242   -0.798992
     19          6           0       16.286455    3.462734   -1.020405
     20          6           0       13.377800    5.166430    0.518536
     21          6           0       15.907434    6.073852   -1.489309
     22          8           0       16.911416    6.293796   -2.158326
     23          6           0       15.099898    7.344572   -1.210933
     24          7           0       17.761873    0.826697   -1.802774
     25          6           0       17.961335    2.054820   -2.331139
     26          6           0       19.064172    2.093136   -3.407081
     27          6           0       19.437552    0.586966   -3.489564
     28          6           0       18.723603   -0.031556   -2.301076
     29          6           0       18.665797    2.845076   -4.720284
     30          6           0       20.947991    0.232072   -3.563150
     31          6           0       21.711654    0.350888   -2.312915
     32          7           0       17.202023   -1.388887   -0.119456
     33          6           0       18.021192   -2.040122   -0.912202
     34          6           0       18.162185   -3.446221   -0.520234
     35          6           0       17.186310   -3.540606    0.522861
     36          6           0       16.610384   -2.298281    0.703357
     37          6           0       19.263328   -4.365843   -0.774899
     38          6           0       16.617877   -4.473434    1.480115
     39          8           0       16.915849   -5.617100    1.740310
     40          6           0       15.516994   -3.665491    2.177902
     41          6           0       14.147224   -4.339472    2.046001
     42          8           0       13.461094   -4.295209    1.058169
     43          8           0       13.877790   -5.049418    3.191612
     44          6           0       12.560661   -5.725020    3.143499
     45          1           0       13.038001    2.730079    1.743475
     46          1           0       17.647230    4.127931   -2.525486
     47          1           0       19.559277   -1.739182   -2.600894
     48          1           0       12.773580   -2.098030    2.420109
     49          1           0       12.378568    0.686172    3.236985
     50          1           0       11.736729    0.093523    0.335288
     51          1           0       10.732804    0.514170    1.534559
     52          1           0       11.222945   -1.202977    1.394484
     53          1           0       14.568208   -0.510740    4.403503
     54          1           0       14.482293   -2.225791    4.371682
     55          1           0       12.563044   -2.341769    5.541413
     56          1           0       11.932199   -0.870809    4.731937
     57          1           0       12.699679    4.666352    1.210556
     58          1           0       12.904670    5.664294   -0.328964
     59          1           0       13.887528    5.928822    1.108277
     60          1           0       14.078870    7.308550   -1.590967
     61          1           0       15.592149    8.270714   -1.508096
     62          1           0       15.075327    7.456796   -0.126842
     63          1           0       19.785902    2.681968   -2.841656
     64          1           0       18.918276    0.236597   -4.381585
     65          1           0       17.939229    3.630581   -4.515129
     66          1           0       18.214513    2.136950   -5.415763
     67          1           0       19.511490    3.343353   -5.194682
     68          1           0       21.301710    0.960138   -4.292475
     69          1           0       21.073243   -0.744233   -4.031780
     70          1           0       21.585143   -0.556878   -1.723166
     71          1           0       21.430914    1.250365   -1.765331
     72          1           0       22.786034    0.391307   -2.494735
     73          1           0       20.126140   -3.722095   -0.947537
     74          1           0       19.253641   -4.989970   -1.668611
     75          1           0       19.348676   -4.996963    0.109062
     76          1           0       15.788825   -3.577622    3.230316
     77          1           0       12.641368   -6.671456    3.677813
     78          1           0       12.244551   -6.092082    2.166827
     79          1           0       11.800128   -5.134432    3.653245
     80         12           0      -16.138541    0.476657    0.485979
     81          6           0      -15.999147   -2.627789   -1.186554
     82          6           0      -12.659635    0.432590    0.736882
     83          6           0      -16.262743    3.821704    1.125990
     84          6           0      -19.620461    0.538278   -0.352051
     85          7           0      -14.573745   -0.936809   -0.117384
     86          6           0      -14.740670   -2.093388   -0.793241
     87          6           0      -13.362393   -2.728179   -1.169505
     88          6           0      -12.395856   -1.901662   -0.202354
     89          6           0      -13.273805   -0.683199    0.230828
     90          6           0      -11.842414   -2.534297    1.094637
     91          6           0      -13.098052   -2.498735   -2.705640
     92          6           0      -12.362097   -3.675504   -3.404395
     93          1           0      -11.257814   -3.260275   -4.459761
     94          7           0      -14.655156    1.930810    1.090948
     95          6           0      -13.315823    1.653295    1.162928
     96          6           0      -12.685819    2.823190    1.645258
     97          6           0      -13.649676    3.872372    1.718241
     98          6           0      -14.959009    3.234651    1.353697
     99          6           0      -11.209465    2.954342    1.936171
    100          6           0      -13.380078    5.320581    1.946813
    101          8           0      -12.244664    5.759806    2.034351
    102          6           0      -14.389596    6.344584    2.018349
    103          7           0      -17.751900    1.987300    0.278935
    104          6           0      -17.534238    3.276066    0.788185
    105          6           0      -18.819515    4.040392    0.852704
    106          6           0      -19.908503    3.036265    0.321880
    107          6           0      -19.087537    1.785451    0.059763
    108          6           0      -19.045469    4.516189    2.293475
    109          6           0      -20.825914    3.635455   -0.809655
    110          6           0      -22.302930    3.634183   -0.555851
    111          7           0      -17.600309   -0.793988   -0.535525
    112          6           0      -18.950775   -0.630663   -0.723955
    113          6           0      -19.546899   -1.864318   -1.282046
    114          6           0      -18.370660   -2.622566   -1.523671
    115          6           0      -17.271370   -1.979533   -0.986281
    116          6           0      -20.984752   -2.146908   -1.688372
    117          6           0      -17.903754   -3.809482   -2.189553
    118          8           0      -18.533653   -4.656174   -2.842392
    119          6           0      -16.389397   -3.914814   -2.011247
    120          6           0      -16.011988   -5.197491   -1.388825
    121          8           0      -15.291855   -5.967951   -1.912642
    122          8           0      -16.409469   -5.312950   -0.088187
    123          6           0      -15.780470   -6.490262    0.548844
    124          1           0      -11.579908    0.417628    0.902235
    125          1           0      -16.243413    4.868290    1.433976
    126          1           0      -20.640084    0.390328   -0.715465
    127          1           0      -13.405662   -3.792070   -0.935692
    128          1           0      -11.630821   -1.309692   -0.704479
    129          1           0      -12.511289   -3.319302    1.449284
    130          1           0      -11.638662   -1.850829    1.918992
    131          1           0      -10.908606   -3.017423    0.809054
    132          1           0      -12.566056   -1.561446   -2.871102
    133          1           0      -14.091937   -2.381422   -3.137640
    134          1           0      -13.169886   -4.219740   -3.893980
    135          1           0      -12.004218   -4.266330   -2.560928
    136          1           0      -10.920935    3.748718    2.624634
    137          1           0      -10.773729    3.128045    0.952640
    138          1           0      -10.673115    2.033012    2.163369
    139          1           0      -15.031211    6.093952    2.864076
    140          1           0      -14.937391    6.424725    1.078974
    141          1           0      -13.897749    7.301196    2.194892
    142          1           0      -18.825450    4.843395    0.116037
    143          1           0      -20.551416    2.552749    1.057719
    144          1           0      -18.151940    4.449107    2.914600
    145          1           0      -19.799725    3.916559    2.803026
    146          1           0      -19.182572    5.597097    2.301303
    147          1           0      -20.589374    3.042100   -1.692884
    148          1           0      -20.679842    4.701637   -0.979029
    149          1           0      -22.770955    3.120485   -1.395163
    150          1           0      -22.713953    4.643827   -0.544733
    151          1           0      -22.569732    3.247064    0.427587
    152          1           0      -21.224648   -1.764970   -2.680888
    153          1           0      -21.714638   -1.808043   -0.952083
    154          1           0      -20.956122   -3.231046   -1.796873
    155          1           0      -15.909736   -3.978761   -2.987098
    156          1           0      -16.130339   -6.533757    1.580581
    157          1           0      -14.693861   -6.413658    0.512510
    158          1           0      -16.118650   -7.448210    0.155297
 ---------------------------------------------------------------------

 SCF Done:  E(RCAM-B3LYP) =  -4069.79958615     A.U. after   19 cycles

 Excitation energies and oscillator strengths:

 Excited State   1:      Singlet-A      1.6804 eV  737.81 nm  f=0.4040  <S**2>=0.000
     309 -> 315       -0.17283
     311 -> 313        0.68692
     309 <- 315       -0.10654
 This state for optimization and/or second-order correction.
 Total Energy, E(TD-HF/TD-DFT) =  -4069.73783106
 Copying the excited state density for this state as the 1-particle RhoCI density.

 Excited State   2:      Singlet-A      1.7451 eV  710.46 nm  f=0.3935  <S**2>=0.000
     310 -> 316        0.18609
     312 -> 314        0.68374
     310 <- 316        0.10698

 Excited State   3:      Singlet-A      2.2016 eV  563.14 nm  f=0.1141  <S**2>=0.000
     309 -> 313        0.64205
     311 -> 315        0.28111

 Excited State   4:      Singlet-A      2.2617 eV  548.19 nm  f=0.1157  <S**2>=0.000
     310 -> 314        0.64503
     312 -> 316       -0.27672

 Excited State   5:      Singlet-A      2.8770 eV  430.95 nm  f=0.0000  <S**2>=0.000
     312 -> 313        0.70709

 The electronic state is 1-A.
 Alpha  occ. eigenvalues --  -46.90883 -46.88688 -19.25771 -19.25154 -19.20398
 Alpha  occ. eigenvalues --  -19.19959 -19.19413 -19.18888 -19.18818 -19.17372
 Alpha  occ. eigenvalues --  -14.43021 -14.42748 -14.42226 -14.41043 -14.39953
 Alpha  occ. eigenvalues --  -14.39346 -14.39127 -14.39120 -10.39765 -10.38772
 Alpha  occ. eigenvalues --  -10.36148 -10.34816 -10.34493 -10.33556 -10.32290
 Alpha  occ. eigenvalues --  -10.32032 -10.31905 -10.31862 -10.31800 -10.31109
 Alpha  occ. eigenvalues --  -10.31059 -10.31034 -10.30613 -10.30557 -10.30341
 Alpha  occ. eigenvalues --  -10.30230 -10.29943 -10.29904 -10.29632 -10.29599
 Alpha  occ. eigenvalues --  -10.29354 -10.29130 -10.29079 -10.28955 -10.28814
 Alpha  occ. eigenvalues --  -10.28683 -10.28658 -10.28549 -10.28540 -10.28505
 Alpha  occ. eigenvalues --  -10.28469 -10.28376 -10.28216 -10.28196 -10.27946
 Alpha  occ. eigenvalues --  -10.27796 -10.27720 -10.27626 -10.27587 -10.27580
 Alpha  occ. eigenvalues --  -10.27526 -10.27488 -10.27406 -10.27255 -10.27083
 Alpha  occ. eigenvalues --  -10.27082 -10.27014 -10.27011 -10.26943 -10.26853
 Alpha  occ. eigenvalues --  -10.26708 -10.26562 -10.26440 -10.26330 -10.26175
 Alpha  occ. eigenvalues --  -10.25973 -10.25971 -10.25814 -10.25790 -10.25496
 Alpha  occ. eigenvalues --  -10.25341 -10.25314 -10.25273 -10.25253 -10.25113
 Alpha  occ. eigenvalues --  -10.24278  -3.19030  -3.17251  -1.93944  -1.93466
 Alpha  occ. eigenvalues --   -1.93326  -1.92139  -1.91721  -1.91539  -1.18015
 Alpha  occ. eigenvalues --   -1.16817  -1.10379  -1.10283  -1.09604  -1.09083
 Alpha  occ. eigenvalues --   -1.08999  -1.08754  -1.05161  -1.04953  -1.03797
 Alpha  occ. eigenvalues --   -1.03765  -1.03482  -1.03330  -1.02582  -1.02423
 Alpha  occ. eigenvalues --   -0.93805  -0.92675  -0.89468  -0.89418  -0.89067
 Alpha  occ. eigenvalues --   -0.88546  -0.88283  -0.88230  -0.88108  -0.87465
 Alpha  occ. eigenvalues --   -0.87204  -0.87061  -0.86182  -0.85873  -0.84930
 Alpha  occ. eigenvalues --   -0.84700  -0.84049  -0.83608  -0.82759  -0.82564
 Alpha  occ. eigenvalues --   -0.82388  -0.81519  -0.80974  -0.80908  -0.80598
 Alpha  occ. eigenvalues --   -0.80394  -0.78705  -0.78493  -0.77659  -0.77578
 Alpha  occ. eigenvalues --   -0.76916  -0.76567  -0.76544  -0.76135  -0.75481
 Alpha  occ. eigenvalues --   -0.74844  -0.73193  -0.72566  -0.72464  -0.71782
 Alpha  occ. eigenvalues --   -0.70034  -0.69419  -0.69311  -0.69146  -0.68339
 Alpha  occ. eigenvalues --   -0.68006  -0.66987  -0.66947  -0.66397  -0.65760
 Alpha  occ. eigenvalues --   -0.65354  -0.65043  -0.64810  -0.64698  -0.64424
 Alpha  occ. eigenvalues --   -0.63993  -0.63352  -0.62473  -0.60126  -0.60071
 Alpha  occ. eigenvalues --   -0.60052  -0.59430  -0.59361  -0.59041  -0.58936
 Alpha  occ. eigenvalues --   -0.58618  -0.58357  -0.58225  -0.57332  -0.57126
 Alpha  occ. eigenvalues --   -0.56557  -0.56535  -0.56128  -0.55712  -0.55606
 Alpha  occ. eigenvalues --   -0.55487  -0.55217  -0.55180  -0.54598  -0.54581
 Alpha  occ. eigenvalues --   -0.53997  -0.53552  -0.53429  -0.53242  -0.53230
 Alpha  occ. eigenvalues --   -0.53123  -0.52873  -0.52708  -0.52673  -0.52526
 Alpha  occ. eigenvalues --   -0.52315  -0.52078  -0.51804  -0.51517  -0.51378
 Alpha  occ. eigenvalues --   -0.51115  -0.50998  -0.50937  -0.50583  -0.50265
 Alpha  occ. eigenvalues --   -0.50096  -0.49905  -0.49904  -0.49612  -0.49609
 Alpha  occ. eigenvalues --   -0.49437  -0.49319  -0.49201  -0.49085  -0.48955
 Alpha  occ. eigenvalues --   -0.48805  -0.48668  -0.48476  -0.48448  -0.48249
 Alpha  occ. eigenvalues --   -0.47884  -0.47575  -0.47482  -0.47379  -0.47078
 Alpha  occ. eigenvalues --   -0.47008  -0.46843  -0.46732  -0.46642  -0.46403
 Alpha  occ. eigenvalues --   -0.46378  -0.46098  -0.45983  -0.45805  -0.45720
 Alpha  occ. eigenvalues --   -0.45351  -0.45185  -0.45134  -0.45058  -0.44952
 Alpha  occ. eigenvalues --   -0.44903  -0.44730  -0.44717  -0.44408  -0.44397
 Alpha  occ. eigenvalues --   -0.44191  -0.44062  -0.44062  -0.43837  -0.43648
 Alpha  occ. eigenvalues --   -0.43645  -0.43377  -0.43320  -0.43226  -0.43048
 Alpha  occ. eigenvalues --   -0.42925  -0.42883  -0.42696  -0.42559  -0.42387
 Alpha  occ. eigenvalues --   -0.42372  -0.42342  -0.41830  -0.41829  -0.41641
 Alpha  occ. eigenvalues --   -0.41331  -0.41072  -0.40838  -0.40753  -0.40236
 Alpha  occ. eigenvalues --   -0.40179  -0.39680  -0.39593  -0.39281  -0.38824
 Alpha  occ. eigenvalues --   -0.38721  -0.38458  -0.37945  -0.37830  -0.37730
 Alpha  occ. eigenvalues --   -0.37681  -0.37311  -0.37282  -0.36934  -0.36696
 Alpha  occ. eigenvalues --   -0.36449  -0.36339  -0.34965  -0.34911  -0.34251
 Alpha  occ. eigenvalues --   -0.34181  -0.33539  -0.33144  -0.31540  -0.31423
 Alpha  occ. eigenvalues --   -0.31071  -0.31018  -0.30790  -0.30437  -0.30060
 Alpha  occ. eigenvalues --   -0.30033  -0.29248  -0.29164  -0.24556  -0.23774
 Alpha  occ. eigenvalues --   -0.21621  -0.21056
 Alpha virt. eigenvalues --   -0.09430  -0.08365  -0.02299  -0.01311   0.00240
 Alpha virt. eigenvalues --    0.00454   0.01166   0.01915   0.02381   0.02574
 Alpha virt. eigenvalues --    0.04646   0.05165   0.05400   0.05560   0.06045

 Mulliken charges:
               1
     1  Mg  12.000071
     2  C    5.999686
     3  C    6.000262
     4  C    6.000412
     5  C    5.999644
     6  N    7.000006
     7  C    6.000444
     8  C    5.999838
     9  C    6.000215
    10  C    5.999356
    11  C    6.000163
    12  C    5.999917
    13  C    6.000065
    14  H    0.999991
    15  N    7.000160
    16  C    5.999245
    17  C    5.999720
    18  C    5.999634
    19  C    5.999452
    20  C    6.000124
    21  C    5.999797
    22  O    7.999616
    23  C    6.000107
    24  N    6.999958
    25  C    5.999381
    26  C    6.000150
    27  C    5.999776
    28  C    6.000648
    29  C    6.000042
    30  C    5.999930
    31  C    5.999855
    32  N    6.999924
    33  C    6.000629
    34  C    6.000768
    35  C    5.999998
    36  C    6.000642
    37  C    5.999781
    38  C    6.000348
    39  O    8.000560
    40  C    5.999985
    41  C    6.000064
    42  O    8.000085
    43  O    8.000036
    44  C    5.999940
    45  H    0.999611
    46  H    0.999919
    47  H    1.000286
    48  H    0.999985
    49  H    0.999813
    50  H    1.000008
    51  H    0.999681
    52  H    0.999709
    53  H    1.000171
    54  H    0.999964
    55  H    0.999993
    56  H    0.999941
    57  H    0.999492
    58  H    0.999556
    59  H    0.999653
    60  H    0.999714
    61  H    0.999784
    62  H    0.999855
    63  H    1.000061
    64  H    1.000161
    65  H    1.000070
    66  H    0.999898
    67  H    0.999987
    68  H    1.000225
    69  H    1.000032
    70  H    0.999862
    71  H    1.000148
    72  H    1.000201
    73  H    1.000455
    74  H    1.000604
    75  H    1.000360
    76  H    1.000178
    77  H    1.000153
    78  H    1.000074
    79  H    0.999968
    80  Mg  12.001651
    81  C    6.025601
    82  C    5.980157
    83  C    5.976765
    84  C    6.008894
    85  N    7.003749
    86  C    5.962538
    87  C    6.008341
    88  C    5.997565
    89  C    6.031246
    90  C    5.990905
    91  C    6.002031
    92  C    6.001156
    93  H    0.992102
    94  N    6.986332
    95  C    6.052322
    96  C    6.019288
    97  C    6.008167
    98  C    6.052587
    99  C    5.994797
   100  C    6.011389
   101  O    8.021771
   102  C    5.994539
   103  N    6.998909
   104  C    6.035162
   105  C    5.986511
   106  C    6.008181
   107  C    5.966620
   108  C    5.997053
   109  C    6.000572
   110  C    6.002357
   111  N    7.005028
   112  C    5.958104
   113  C    5.967061
   114  C    5.998574
   115  C    5.965863
   116  C    6.001450
   117  C    5.984146
   118  O    7.967745
   119  C    6.000995
   120  C    5.995222
   121  O    7.991543
   122  O    8.003925
   123  C    6.003164
   124  H    1.009783
   125  H    1.007258
   126  H    0.991977
   127  H    1.001757
   128  H    0.996689
   129  H    1.014666
   130  H    0.994572
   131  H    1.008487
   132  H    0.987590
   133  H    1.008376
   134  H    1.005002
   135  H    0.996612
   136  H    1.016184
   137  H    1.022117
   138  H    1.022127
   139  H    1.009748
   140  H    1.011630
   141  H    1.013366
   142  H    1.003050
   143  H    1.004247
   144  H    0.992080
   145  H    1.011109
   146  H    1.002497
   147  H    1.002945
   148  H    0.988310
   149  H    1.002171
   150  H    0.993633
   151  H    0.997653
   152  H    0.977750
   153  H    0.980796
   154  H    0.986841
   155  H    0.991070
   156  H    0.995656
   157  H    0.992475
   158  H    0.997701
 Sum of Mulliken charges = 624.00000

 Dipole moment (field-independent basis, Debye):
    X=              7.8515    Y=              6.8734    Z=              4.2293  Tot=             11.2596
 Quadrupole moment (field-independent basis, Debye-Ang):
   XX=           -247.2060   YY=              6.9407   ZZ=             -0.1200
   XY=           -110.8997   XZ=            -66.5452   YZ=              2.5210

 Normal termination of Gaussian 16 at Tue Sep 21 20:58:39 2021.
