 Gaussian 16, Revision A.03,
 Gaussian 16:  ES64L-G16RevA.03 25-Dec-2016

 -----------------------------------
 #p cam-b3lyp/Def2SVP td=(nstates=5)
 -----------------------------------

 --------------------------------
 TDDFT excited states in gaussian
 --------------------------------
 Symbolic Z-matrix:
 Charge =  0 Multiplicity = 1

                         Standard orientation:
 ---------------------------------------------------------------------
 Center     Atomic      Atomic             Coordinates (Angstroms)
 Number     Number       Type             X           Y           Z
 ---------------------------------------------------------------------
      1         12           0       27.382061    0.586585   -0.142617
      2          6           0       25.735217   -1.987387   -1.713092
      3          6           0       28.472195   -1.749166    2.310035
      4          6           0       28.595880    3.072394    1.800851
      5          6           0       26.079482    2.833406   -2.265285
      6          7           0       27.120476   -1.626104    0.246906
      7          6           0       26.376486   -2.446194   -0.558261
      8          6           0       26.479850   -3.903963   -0.104207
      9          6           0       27.209188   -3.724522    1.306547
     10          6           0       27.629274   -2.283804    1.301742
     11          6           0       26.342001   -4.168278    2.541361
     12          6           0       27.310503   -4.830039   -1.105294
     13          6           0       26.861391   -6.218544   -1.492261
     14          1           0       26.410960   -7.142134   -0.416783
     15          7           0       28.454554    0.681625    1.785259
     16          6           0       28.941827   -0.354267    2.503024
     17          6           0       29.800043    0.093752    3.548105
     18          6           0       29.886003    1.514868    3.407807
     19          6           0       28.891528    1.802697    2.331465
     20          6           0       30.346007   -0.913768    4.507712
     21          6           0       30.607059    2.516451    4.293720
     22          8           0       30.382287    3.729553    4.239479
     23          6           0       31.632891    2.041408    5.307737
     24          7           0       27.219006    2.710079   -0.129590
     25          6           0       27.924265    3.510229    0.712662
     26          6           0       27.836352    4.970025    0.270739
     27          6           0       27.164362    4.846540   -1.149457
     28          6           0       26.800522    3.375758   -1.200226
     29          6           0       27.209742    6.057067    1.193178
     30          6           0       28.007567    5.370245   -2.386044
     31          6           0       28.891014    4.421945   -3.168728
     32          7           0       26.094278    0.506664   -1.604731
     33          6           0       25.719723    1.455110   -2.522356
     34          6           0       24.812605    0.968953   -3.497043
     35          6           0       24.820045   -0.401220   -3.255300
     36          6           0       25.629506   -0.631341   -2.113194
     37          6           0       24.065174    1.629702   -4.647999
     38          6           0       24.316989   -1.643229   -3.650876
     39          8           0       23.523216   -1.884714   -4.541583
     40          6           0       24.862397   -2.806469   -2.646816
     41          6           0       23.705725   -3.429874   -2.015685
     42          8           0       22.910611   -2.872997   -1.232956
     43          8           0       23.511133   -4.719997   -2.397220
     44          6           0       22.226664   -5.361985   -2.095979
     45          1           0       28.814721   -2.566178    2.947906
     46          1           0       29.208087    3.862235    2.240616
     47          1           0       25.947054    3.448202   -3.157181
     48          1           0       25.475332   -4.328450   -0.082143
     49          1           0       28.087680   -4.365319    1.384122
     50          1           0       26.884844   -4.958607    3.058688
     51          1           0       25.375888   -4.437189    2.113912
     52          1           0       26.235160   -3.421414    3.328636
     53          1           0       28.263985   -4.900801   -0.581581
     54          1           0       27.624376   -4.269829   -1.985427
     55          1           0       27.610249   -6.687750   -2.130311
     56          1           0       25.948015   -6.075251   -2.068461
     57          1           0       31.399682   -0.656591    4.609683
     58          1           0       30.314836   -1.915022    4.077323
     59          1           0       29.872075   -0.952653    5.489110
     60          1           0       32.301662    1.266017    4.932918
     61          1           0       31.142880    1.854555    6.264271
     62          1           0       32.271845    2.911086    5.463990
     63          1           0       28.880941    5.281496    0.251225
     64          1           0       26.299745    5.499064   -1.264966
     65          1           0       26.251898    6.386846    0.791091
     66          1           0       27.903295    6.897750    1.185556
     67          1           0       27.118104    5.592603    2.174386
     68          1           0       28.641606    6.170987   -2.007814
     69          1           0       27.338617    5.802391   -3.130603
     70          1           0       29.909153    4.800352   -3.262847
     71          1           0       28.517516    4.203026   -4.169949
     72          1           0       28.886137    3.498196   -2.590111
     73          1           0       24.345765    2.682544   -4.696611
     74          1           0       22.992529    1.512706   -4.491532
     75          1           0       24.343251    1.126622   -5.573685
     76          1           0       25.290626   -3.498098   -3.372909
     77          1           0       21.983008   -6.197768   -2.752019
     78          1           0       21.379322   -4.686932   -1.979721
     79          1           0       22.393846   -5.889939   -1.157014
     80         12           0      -27.423916    0.589124    0.121186
     81          6           0      -25.256818   -1.810815    1.458582
     82          6           0      -29.174332   -1.883378   -1.461025
     83          6           0      -29.213240    2.935320   -1.373765
     84          6           0      -25.390590    3.084343    1.675499
     85          7           0      -27.179900   -1.609889   -0.007574
     86          6           0      -26.285512   -2.419001    0.657334
     87          6           0      -26.693716   -3.875516    0.535303
     88          6           0      -27.764890   -3.847746   -0.625598
     89          6           0      -28.112195   -2.319979   -0.618055
     90          6           0      -27.220186   -4.311328   -1.970630
     91          6           0      -27.089006   -4.442611    1.947403
     92          6           0      -27.722606   -5.860283    1.888434
     93          1           0      -27.271344   -6.760190    0.756855
     94          7           0      -28.937051    0.532325   -1.171754
     95          6           0      -29.475734   -0.576432   -1.812303
     96          6           0      -30.525822   -0.194825   -2.772969
     97          6           0      -30.546559    1.232035   -2.700002
     98          6           0      -29.529414    1.615612   -1.724584
     99          6           0      -31.333726   -1.182114   -3.528798
    100          6           0      -31.439785    2.148657   -3.495563
    101          8           0      -31.424621    3.400645   -3.335563
    102          6           0      -32.453214    1.603966   -4.465279
    103          7           0      -27.342783    2.731771    0.199184
    104          6           0      -28.218622    3.424461   -0.529250
    105          6           0      -27.897437    4.981500   -0.448043
    106          6           0      -26.598357    5.032841    0.534148
    107          6           0      -26.415854    3.540231    0.812594
    108          6           0      -27.637968    5.518353   -1.915136
    109          6           0      -26.837516    5.806173    1.900863
    110          6           0      -26.617011    7.345519    1.855735
    111          7           0      -25.679124    0.694447    1.245971
    112          6           0      -25.012710    1.752381    1.918952
    113          6           0      -23.864450    1.184356    2.752084
    114          6           0      -23.871102   -0.191964    2.549092
    115          6           0      -25.052012   -0.443573    1.684215
    116          6           0      -22.932518    1.927856    3.656859
    117          6           0      -23.269317   -1.458092    2.896162
    118          8           0      -22.304862   -1.749191    3.610642
    119          6           0      -24.261217   -2.598296    2.344609
    120          6           0      -23.534920   -3.696329    1.601884
    121          8           0      -23.266107   -3.653237    0.431773
    122          8           0      -23.428533   -4.862599    2.392894
    123          6           0      -23.169320   -6.129821    1.693122
    124          1           0      -29.594954   -2.774119   -1.933082
    125          1           0      -29.797315    3.705370   -1.882336
    126          1           0      -24.669375    3.791997    2.089896
    127          1           0      -25.813972   -4.435380    0.220524
    128          1           0      -28.692916   -4.383336   -0.422971
    129          1           0      -27.863933   -5.134960   -2.279004
    130          1           0      -26.161978   -4.543209   -1.852311
    131          1           0      -27.415263   -3.600076   -2.772875
    132          1           0      -27.604950   -3.587185    2.382351
    133          1           0      -26.154119   -4.498846    2.503999
    134          1           0      -28.789970   -5.648379    1.825099
    135          1           0      -27.491829   -6.370510    2.823478
    136          1           0      -31.044000   -0.978786   -4.559585
    137          1           0      -32.403988   -1.094875   -3.343545
    138          1           0      -31.139212   -2.247381   -3.397984
    139          1           0      -33.190183    1.020662   -3.914960
    140          1           0      -31.772158    1.042675   -5.106191
    141          1           0      -32.951642    2.330936   -5.105918
    142          1           0      -28.805767    5.333838    0.042275
    143          1           0      -25.630132    5.244135    0.078291
    144          1           0      -27.695578    4.756664   -2.692514
    145          1           0      -26.641067    5.955478   -1.977836
    146          1           0      -28.458024    6.205778   -2.120524
    147          1           0      -26.358857    5.311676    2.745638
    148          1           0      -27.896796    5.682881    2.123962
    149          1           0      -27.539054    7.802790    2.212933
    150          1           0      -26.324007    7.622778    0.843043
    151          1           0      -25.817315    7.664179    2.524772
    152          1           0      -23.234102    1.675885    4.673782
    153          1           0      -22.996815    2.999898    3.466709
    154          1           0      -21.873545    1.673606    3.616858
    155          1           0      -24.784779   -2.986812    3.217649
    156          1           0      -22.102334   -6.110977    1.472716
    157          1           0      -23.852523   -6.254543    0.852773
    158          1           0      -23.430637   -6.921057    2.395291
 ---------------------------------------------------------------------

 SCF Done:  E(RCAM-B3LYP) =  -4069.84605379     A.U. after   19 cycles

 Excitation energies and oscillator strengths:

 Excited State   1:      Singlet-A      1.7141 eV  723.31 nm  f=0.3944  <S**2>=0.000
     309 -> 315        0.19944
     312 -> 314        0.68031
     309 <- 315        0.11162
 This state for optimization and/or second-order correction.
 Total Energy, E(TD-HF/TD-DFT) =  -4069.78306133
 Copying the excited state density for this state as the 1-particle RhoCI density.

 Excited State   2:      Singlet-A      1.7199 eV  720.87 nm  f=0.4063  <S**2>=0.000
     310 -> 316       -0.17810
     311 -> 313        0.68650
     310 <- 316       -0.10693

 Excited State   3:      Singlet-A      2.1905 eV  566.01 nm  f=0.1750  <S**2>=0.000
     310 -> 313        0.66248
     311 -> 316        0.23743

 Excited State   4:      Singlet-A      2.2903 eV  541.35 nm  f=0.0345  <S**2>=0.000
     309 -> 314        0.58797
     312 -> 315       -0.38618

 Excited State   5:      Singlet-A      2.9092 eV  426.18 nm  f=0.0000  <S**2>=0.000
     312 -> 313        0.70711

 The electronic state is 1-A.
 Alpha  occ. eigenvalues --  -46.89099 -46.88049 -19.25071 -19.23954 -19.20277
 Alpha  occ. eigenvalues --  -19.19160 -19.18866 -19.18591 -19.18525 -19.18370
 Alpha  occ. eigenvalues --  -14.42128 -14.42127 -14.41537 -14.41535 -14.39929
 Alpha  occ. eigenvalues --  -14.39855 -14.39572 -14.39494 -10.39397 -10.38935
 Alpha  occ. eigenvalues --  -10.35511 -10.35355 -10.35225 -10.34518 -10.31736
 Alpha  occ. eigenvalues --  -10.31618 -10.31067 -10.30893 -10.30869 -10.30733
 Alpha  occ. eigenvalues --  -10.30589 -10.30420 -10.30344 -10.30335 -10.30292
 Alpha  occ. eigenvalues --  -10.30121 -10.30091 -10.30066 -10.30044 -10.29875
 Alpha  occ. eigenvalues --  -10.29599 -10.29455 -10.29204 -10.29082 -10.29002
 Alpha  occ. eigenvalues --  -10.28573 -10.28519 -10.28448 -10.28351 -10.28275
 Alpha  occ. eigenvalues --  -10.28266 -10.28169 -10.28118 -10.27999 -10.27993
 Alpha  occ. eigenvalues --  -10.27967 -10.27717 -10.27686 -10.27675 -10.27591
 Alpha  occ. eigenvalues --  -10.27554 -10.27492 -10.27451 -10.27307 -10.27140
 Alpha  occ. eigenvalues --  -10.26906 -10.26882 -10.26860 -10.26598 -10.26597
 Alpha  occ. eigenvalues --  -10.26420 -10.26415 -10.26410 -10.26224 -10.26197
 Alpha  occ. eigenvalues --  -10.26171 -10.26058 -10.25964 -10.25743 -10.25704
 Alpha  occ. eigenvalues --  -10.25546 -10.25376 -10.25199 -10.25129 -10.25033
 Alpha  occ. eigenvalues --  -10.24614  -3.17708  -3.16731  -1.92591  -1.92124
 Alpha  occ. eigenvalues --   -1.92058  -1.91636  -1.91172  -1.91062  -1.15854
 Alpha  occ. eigenvalues --   -1.15452  -1.09884  -1.09451  -1.09092  -1.07785
 Alpha  occ. eigenvalues --   -1.07752  -1.05848  -1.05368  -1.04635  -1.04306
 Alpha  occ. eigenvalues --   -1.04147  -1.03473  -1.03445  -1.02776  -1.01354
 Alpha  occ. eigenvalues --   -0.92608  -0.91584  -0.89015  -0.88892  -0.88555
 Alpha  occ. eigenvalues --   -0.88250  -0.88195  -0.87806  -0.87775  -0.87542
 Alpha  occ. eigenvalues --   -0.87412  -0.86704  -0.86416  -0.86300  -0.84278
 Alpha  occ. eigenvalues --   -0.84226  -0.83760  -0.82916  -0.82677  -0.82170
 Alpha  occ. eigenvalues --   -0.81909  -0.81836  -0.81160  -0.80733  -0.80317
 Alpha  occ. eigenvalues --   -0.79979  -0.78941  -0.78384  -0.77472  -0.77396
 Alpha  occ. eigenvalues --   -0.77094  -0.76954  -0.76246  -0.75740  -0.75487
 Alpha  occ. eigenvalues --   -0.74522  -0.73536  -0.72045  -0.71540  -0.71447
 Alpha  occ. eigenvalues --   -0.69628  -0.69389  -0.69208  -0.68593  -0.68253
 Alpha  occ. eigenvalues --   -0.68124  -0.67124  -0.67043  -0.65629  -0.65489
 Alpha  occ. eigenvalues --   -0.65116  -0.65106  -0.64764  -0.64205  -0.63921
 Alpha  occ. eigenvalues --   -0.63742  -0.62238  -0.61242  -0.60615  -0.60174
 Alpha  occ. eigenvalues --   -0.59829  -0.59472  -0.59063  -0.58674  -0.58289
 Alpha  occ. eigenvalues --   -0.57907  -0.57773  -0.57489  -0.57287  -0.56751
 Alpha  occ. eigenvalues --   -0.56238  -0.56129  -0.55924  -0.55400  -0.54976
 Alpha  occ. eigenvalues --   -0.54873  -0.54499  -0.54216  -0.54069  -0.53931
 Alpha  occ. eigenvalues --   -0.53660  -0.53297  -0.53221  -0.53125  -0.52784
 Alpha  occ. eigenvalues --   -0.52591  -0.52489  -0.52217  -0.52187  -0.52078
 Alpha  occ. eigenvalues --   -0.51878  -0.51725  -0.51431  -0.51416  -0.51132
 Alpha  occ. eigenvalues --   -0.50809  -0.50752  -0.50560  -0.50459  -0.50266
 Alpha  occ. eigenvalues --   -0.50041  -0.49837  -0.49534  -0.49511  -0.49404
 Alpha  occ. eigenvalues --   -0.49297  -0.49226  -0.49087  -0.48982  -0.48859
 Alpha  occ. eigenvalues --   -0.48791  -0.48756  -0.48557  -0.48481  -0.48208
 Alpha  occ. eigenvalues --   -0.48084  -0.48031  -0.47819  -0.47541  -0.47363
 Alpha  occ. eigenvalues --   -0.47139  -0.46853  -0.46850  -0.46516  -0.46162
 Alpha  occ. eigenvalues --   -0.46156  -0.46052  -0.45954  -0.45882  -0.45707
 Alpha  occ. eigenvalues --   -0.45571  -0.45310  -0.45182  -0.45136  -0.44984
 Alpha  occ. eigenvalues --   -0.44832  -0.44625  -0.44480  -0.44154  -0.43968
 Alpha  occ. eigenvalues --   -0.43937  -0.43921  -0.43621  -0.43443  -0.43366
 Alpha  occ. eigenvalues --   -0.43207  -0.43099  -0.43047  -0.42958  -0.42870
 Alpha  occ. eigenvalues --   -0.42527  -0.42318  -0.42222  -0.42076  -0.41876
 Alpha  occ. eigenvalues --   -0.41820  -0.41513  -0.41490  -0.41314  -0.41261
 Alpha  occ. eigenvalues --   -0.41107  -0.40886  -0.40617  -0.40307  -0.40162
 Alpha  occ. eigenvalues --   -0.39984  -0.39830  -0.39518  -0.39202  -0.39050
 Alpha  occ. eigenvalues --   -0.38507  -0.38475  -0.38228  -0.38197  -0.37963
 Alpha  occ. eigenvalues --   -0.37337  -0.36627  -0.36603  -0.36248  -0.36024
 Alpha  occ. eigenvalues --   -0.35868  -0.35665  -0.34549  -0.34510  -0.34120
 Alpha  occ. eigenvalues --   -0.33434  -0.33151  -0.32876  -0.31329  -0.31290
 Alpha  occ. eigenvalues --   -0.31214  -0.30906  -0.30884  -0.30490  -0.30464
 Alpha  occ. eigenvalues --   -0.30412  -0.30088  -0.30005  -0.23960  -0.23829
 Alpha  occ. eigenvalues --   -0.21460  -0.20403
 Alpha virt. eigenvalues --   -0.09079  -0.07862  -0.02114  -0.01186  -0.00186
 Alpha virt. eigenvalues --    0.00232   0.01850   0.02194   0.02481   0.03284
 Alpha virt. eigenvalues --    0.04516   0.04765   0.04980   0.05902   0.06157

 Mulliken charges:
               1
     1  Mg   0.838553
     2  C    0.011596
     3  C   -0.053539
     4  C   -0.054113
     5  C   -0.074712
     6  N   -0.259003
     7  C   -0.044637
     8  C   -0.039945
     9  C   -0.067777
    10  C    0.025074
    11  C    0.071340
    12  C    0.050801
    13  C   -0.046908
    14  H    0.016641
    15  N   -0.276111
    16  C    0.108816
    17  C   -0.140170
    18  C   -0.038888
    19  C    0.073797
    20  C    0.126622
    21  C   -0.001532
    22  O   -0.216470
    23  C    0.046163
    24  N   -0.278497
    25  C    0.028275
    26  C   -0.031856
    27  C    0.005498
    28  C    0.043848
    29  C    0.083016
    30  C   -0.011481
    31  C    0.012525
    32  N   -0.385145
    33  C    0.091422
    34  C   -0.180245
    35  C    0.092711
    36  C    0.102464
    37  C    0.138701
    38  C   -0.042515
    39  O   -0.171682
    40  C    0.016080
    41  C    0.193116
    42  O   -0.252896
    43  O   -0.327430
    44  C    0.186367
    45  H   -0.035447
    46  H   -0.008349
    47  H   -0.023983
    48  H    0.024595
    49  H    0.018090
    50  H    0.010036
    51  H    0.028625
    52  H    0.019055
    53  H   -0.011573
    54  H    0.007802
    55  H    0.032231
    56  H    0.033350
    57  H    0.009155
    58  H    0.014678
    59  H    0.039619
    60  H    0.033206
    61  H    0.047638
    62  H    0.024835
    63  H    0.009811
    64  H    0.009938
    65  H    0.015181
    66  H    0.018527
    67  H    0.029854
    68  H    0.004405
    69  H    0.004801
    70  H    0.014793
    71  H    0.015386
    72  H    0.016065
    73  H    0.004400
    74  H    0.043845
    75  H    0.038553
    76  H    0.030559
    77  H    0.035064
    78  H    0.058281
    79  H    0.019099
    80  Mg   0.842079
    81  C   -0.020560
    82  C   -0.090089
    83  C   -0.079638
    84  C   -0.078334
    85  N   -0.250694
    86  C   -0.044715
    87  C   -0.012993
    88  C   -0.082140
    89  C   -0.014514
    90  C    0.091559
    91  C    0.015931
    92  C   -0.044482
    93  H    0.032164
    94  N   -0.411446
    95  C    0.200963
    96  C   -0.144020
    97  C   -0.033965
    98  C    0.153123
    99  C    0.122197
   100  C   -0.007212
   101  O   -0.241937
   102  C    0.080572
   103  N   -0.275383
   104  C    0.019551
   105  C   -0.035738
   106  C    0.002853
   107  C    0.012040
   108  C    0.060821
   109  C    0.002609
   110  C    0.023785
   111  N   -0.368230
   112  C    0.111831
   113  C   -0.177368
   114  C    0.032716
   115  C    0.112091
   116  C    0.110961
   117  C    0.072029
   118  O   -0.179416
   119  C   -0.071613
   120  C    0.225343
   121  O   -0.190677
   122  O   -0.375629
   123  C    0.183814
   124  H   -0.034870
   125  H   -0.005901
   126  H   -0.023952
   127  H    0.008542
   128  H    0.003663
   129  H    0.006432
   130  H    0.036722
   131  H    0.014646
   132  H    0.016668
   133  H    0.015048
   134  H    0.036662
   135  H    0.035920
   136  H    0.032161
   137  H    0.035678
   138  H    0.012022
   139  H    0.044583
   140  H    0.019936
   141  H    0.028091
   142  H    0.024683
   143  H    0.018550
   144  H    0.031732
   145  H    0.016270
   146  H    0.027659
   147  H    0.011363
   148  H   -0.004949
   149  H    0.019962
   150  H    0.018639
   151  H    0.014671
   152  H    0.037873
   153  H    0.005628
   154  H    0.037491
   155  H    0.063000
   156  H    0.049899
   157  H    0.033270
   158  H    0.033966
 Sum of Mulliken charges =  -0.00000

 Dipole moment (field-independent basis, Debye):
    X=              0.0359    Y=             -3.5409    Z=             -0.2581  Tot=              3.5505
 Quadrupole moment (field-independent basis, Debye-Ang):
   XX=            -98.3688   YY=           -466.8717   ZZ=           -516.5608
   XY=             25.6039   XZ=             30.6318   YZ=             -8.4147

 Normal termination of Gaussian 16 at Fri Sep  3 04:37:42 2021.
