 Gaussian 16, Revision A.03,
 Gaussian 16:  ES64L-G16RevA.03 25-Dec-2016

 -----------------------------------
 #p cam-b3lyp/Def2SVP td=(nstates=5)
 -----------------------------------

 --------------------------------
 TDDFT excited states in gaussian
 --------------------------------
 Symbolic Z-matrix:
 Charge =  0 Multiplicity = 1

                         Standard orientation:
 ---------------------------------------------------------------------
 Center     Atomic      Atomic             Coordinates (Angstroms)
 Number     Number       Type             X           Y           Z
 ---------------------------------------------------------------------
      1         12           0       -8.868369   -0.278747   -0.180765
      2          6           0       -7.119327    2.444167    0.942693
      3          6           0      -10.929538    1.731013   -1.887170
      4          6           0      -10.628810   -3.034188   -1.000242
      5          6           0       -6.928690   -2.344203    2.097569
      6          7           0       -9.146864    1.919791   -0.208252
      7          6           0       -8.265694    2.833172    0.216995
      8          6           0       -8.712134    4.314026   -0.245018
      9          6           0       -9.942955    3.952071   -1.157734
     10          6           0      -10.075402    2.418179   -1.071573
     11          6           0      -11.217955    4.750719   -0.823838
     12          6           0       -7.596524    5.103067   -0.987408
     13          6           0       -8.002011    6.381307   -1.791520
     14          1           0       -7.685667    7.783423   -1.145543
     15          7           0      -10.594234   -0.600588   -1.263710
     16          6           0      -11.233148    0.313142   -1.964321
     17          6           0      -12.320119   -0.330995   -2.685964
     18          6           0      -12.351047   -1.723998   -2.376354
     19          6           0      -11.154394   -1.841370   -1.514375
     20          6           0      -13.380215    0.384448   -3.506931
     21          6           0      -13.350147   -2.808873   -2.764841
     22          8           0      -13.380143   -3.883612   -2.172333
     23          6           0      -14.299668   -2.541106   -3.879670
     24          7           0       -8.809765   -2.389155    0.502671
     25          6           0       -9.605684   -3.309673   -0.028346
     26          6           0       -9.219902   -4.731319    0.412786
     27          6           0       -7.942032   -4.449593    1.198780
     28          6           0       -7.920545   -2.969673    1.294216
     29          6           0      -10.266955   -5.560446    1.171264
     30          6           0       -6.729416   -5.186068    0.688370
     31          6           0       -6.082860   -6.224305    1.673285
     32          7           0       -7.343701   -0.056970    1.163015
     33          6           0       -6.584818   -0.975680    1.963049
     34          6           0       -5.487016   -0.307346    2.626535
     35          6           0       -5.696733    1.034954    2.204339
     36          6           0       -6.807861    1.118159    1.355783
     37          6           0       -4.329099   -0.835563    3.397586
     38          6           0       -5.004928    2.298835    2.234820
     39          8           0       -3.885072    2.663052    2.623563
     40          6           0       -5.897993    3.310528    1.561195
     41          6           0       -6.488634    4.237800    2.646183
     42          8           0       -6.933605    3.914604    3.758195
     43          8           0       -6.448019    5.512148    2.163552
     44          6           0       -6.937267    6.610669    3.055648
     45          1           0      -11.589182    2.258927   -2.579018
     46          1           0      -11.248450   -3.932088   -1.048029
     47          1           0       -6.302895   -3.046403    2.651307
     48          1           0       -9.029192    4.788550    0.682929
     49          1           0       -9.656891    4.160421   -2.188661
     50          1           0      -11.658536    5.052722   -1.773364
     51          1           0      -10.993954    5.667501   -0.278353
     52          1           0      -11.918482    4.143803   -0.250111
     53          1           0       -7.264342    4.437996   -1.784534
     54          1           0       -6.826557    5.412758   -0.280857
     55          1           0       -9.091386    6.389122   -1.840085
     56          1           0       -7.494436    6.361886   -2.755317
     57          1           0      -13.210406    1.460977   -3.524267
     58          1           0      -14.363543    0.196917   -3.076341
     59          1           0      -13.405901    0.027990   -4.535896
     60          1           0      -13.681318   -2.162594   -4.694077
     61          1           0      -15.135312   -1.847097   -3.794652
     62          1           0      -14.822274   -3.436879   -4.213454
     63          1           0       -8.973817   -5.297708   -0.484756
     64          1           0       -8.096180   -4.830081    2.208360
     65          1           0      -10.142292   -6.567269    0.773451
     66          1           0      -11.260966   -5.131223    1.046371
     67          1           0      -10.170771   -5.522857    2.256316
     68          1           0       -5.981284   -4.401391    0.580338
     69          1           0       -6.904727   -5.725026   -0.242254
     70          1           0       -6.624647   -6.227432    2.619471
     71          1           0       -5.063243   -5.890665    1.868503
     72          1           0       -5.959244   -7.232063    1.276487
     73          1           0       -4.290187   -1.921707    3.318961
     74          1           0       -4.570472   -0.639695    4.441687
     75          1           0       -3.458025   -0.345952    2.959750
     76          1           0       -5.230240    3.846449    0.886396
     77          1           0       -7.889351    6.417221    3.550432
     78          1           0       -6.988065    7.588836    2.578553
     79          1           0       -6.215927    6.660759    3.871104
     80         12           0        8.247703   -0.928655   -0.152146
     81          6           0       10.214354    1.974409   -0.292037
     82          6           0        5.526134    0.864788    0.553645
     83          6           0        6.617352   -3.719322    0.014443
     84          6           0       11.376911   -2.725501    0.108760
     85          7           0        7.984807    1.181431    0.195284
     86          6           0        8.820909    2.194649   -0.063824
     87          6           0        8.200318    3.531833    0.248648
     88          6           0        6.826093    3.120565    0.914327
     89          6           0        6.751069    1.655507    0.530179
     90          6           0        6.641199    3.356581    2.448492
     91          6           0        7.924967    4.358783   -1.109204
     92          6           0        8.418394    5.841427   -1.045594
     93          1           0        8.409206    6.537153   -2.512656
     94          7           0        6.351356   -1.336861   -0.023980
     95          6           0        5.317506   -0.452296    0.231871
     96          6           0        4.071109   -1.133257    0.013133
     97          6           0        4.316494   -2.552082   -0.195065
     98          6           0        5.828564   -2.606763   -0.192984
     99          6           0        2.741954   -0.347094    0.201907
    100          6           0        3.454531   -3.789049   -0.420556
    101          8           0        3.862218   -4.936993   -0.674085
    102          6           0        1.999744   -3.477768   -0.424931
    103          7           0        8.972546   -2.875365    0.190055
    104          6           0        7.999805   -3.844092    0.214285
    105          6           0        8.600820   -5.215137    0.526039
    106          6           0       10.104362   -4.959930    0.242084
    107          6           0       10.195281   -3.432706    0.236959
    108          6           0        8.169726   -5.677606    1.974289
    109          6           0       10.681008   -5.599318   -1.091794
    110          6           0       12.193917   -5.867694   -1.132783
    111          7           0       10.383161   -0.516599   -0.135592
    112          6           0       11.462700   -1.340179   -0.029236
    113          6           0       12.697511   -0.609167   -0.205768
    114          6           0       12.214544    0.700242   -0.383568
    115          6           0       10.817055    0.722535   -0.270710
    116          6           0       14.176760   -1.058556   -0.213599
    117          6           0       12.647854    2.044392   -0.645244
    118          8           0       13.700788    2.525024   -0.973742
    119          6           0       11.333181    2.957604   -0.423143
    120          6           0       11.438742    3.868821   -1.565778
    121          8           0       11.082475    3.688642   -2.757692
    122          8           0       12.028209    4.972698   -1.075024
    123          6           0       12.312871    6.073922   -1.996070
    124          1           0        4.614987    1.450245    0.694349
    125          1           0        6.071617   -4.665176   -0.005192
    126          1           0       12.287286   -3.328437    0.096927
    127          1           0        8.801521    4.186642    0.880038
    128          1           0        5.929984    3.553804    0.469634
    129          1           0        6.622094    2.380498    2.933225
    130          1           0        5.669148    3.840116    2.543922
    131          1           0        7.393707    3.935431    2.982850
    132          1           0        6.895988    4.351651   -1.470659
    133          1           0        8.398283    3.789959   -1.909602
    134          1           0        9.433592    5.890058   -0.652297
    135          1           0        7.790614    6.514987   -0.462729
    136          1           0        2.471511    0.087496   -0.759444
    137          1           0        2.857756    0.580459    0.763910
    138          1           0        1.954377   -0.834578    0.776048
    139          1           0        1.685514   -2.785797   -1.205499
    140          1           0        1.847559   -3.101606    0.587458
    141          1           0        1.363134   -4.359469   -0.503873
    142          1           0        8.151740   -5.894505   -0.198572
    143          1           0       10.699549   -5.401805    1.041156
    144          1           0        9.015681   -5.611374    2.658332
    145          1           0        7.797774   -6.692760    2.110468
    146          1           0        7.442911   -5.051918    2.492739
    147          1           0       10.536519   -4.800183   -1.819353
    148          1           0       10.212500   -6.513299   -1.457450
    149          1           0       12.702555   -5.241199   -1.866663
    150          1           0       12.549429   -6.877856   -1.336999
    151          1           0       12.574105   -5.506639   -0.178199
    152          1           0       14.208004   -1.977666    0.371519
    153          1           0       14.821646   -0.294899    0.223212
    154          1           0       14.424410   -1.273527   -1.253045
    155          1           0       11.445617    3.543812    0.489069
    156          1           0       11.652605    6.906169   -1.752740
    157          1           0       12.302464    5.754199   -3.037529
    158          1           0       13.309502    6.454000   -1.771987
 ---------------------------------------------------------------------

 SCF Done:  E(RCAM-B3LYP) =  -4069.80576370     A.U. after   19 cycles

 Excitation energies and oscillator strengths:

 Excited State   1:      Singlet-A      1.7124 eV  724.05 nm  f=0.7255  <S**2>=0.000
     309 -> 316        0.13814
     310 -> 315        0.11656
     311 -> 313        0.54500
     312 -> 314       -0.41262
 This state for optimization and/or second-order correction.
 Total Energy, E(TD-HF/TD-DFT) =  -4069.74283496
 Copying the excited state density for this state as the 1-particle RhoCI density.

 Excited State   2:      Singlet-A      1.7352 eV  714.53 nm  f=0.0901  <S**2>=0.000
     309 -> 316        0.10841
     310 -> 315       -0.15894
     311 -> 313        0.41316
     312 -> 314        0.54178

 Excited State   3:      Singlet-A      2.2498 eV  551.08 nm  f=0.0501  <S**2>=0.000
     310 -> 314        0.61579
     312 -> 315        0.33458

 Excited State   4:      Singlet-A      2.2690 eV  546.43 nm  f=0.1187  <S**2>=0.000
     309 -> 313        0.63797
     311 -> 316       -0.28533

 Excited State   5:      Singlet-A      2.7711 eV  447.41 nm  f=0.0000  <S**2>=0.000
     312 -> 313        0.70682

 The electronic state is 1-A.
 Alpha  occ. eigenvalues --  -46.89381 -46.87417 -19.25840 -19.24740 -19.19696
 Alpha  occ. eigenvalues --  -19.19669 -19.19550 -19.18894 -19.18297 -19.17932
 Alpha  occ. eigenvalues --  -14.42434 -14.42256 -14.41920 -14.41579 -14.40278
 Alpha  occ. eigenvalues --  -14.39482 -14.39299 -14.38254 -10.39773 -10.38437
 Alpha  occ. eigenvalues --  -10.36253 -10.35876 -10.34518 -10.33596 -10.32386
 Alpha  occ. eigenvalues --  -10.31868 -10.31541 -10.31167 -10.31023 -10.30888
 Alpha  occ. eigenvalues --  -10.30688 -10.30651 -10.30584 -10.30517 -10.30459
 Alpha  occ. eigenvalues --  -10.30197 -10.30174 -10.30125 -10.29947 -10.29872
 Alpha  occ. eigenvalues --  -10.29526 -10.29307 -10.29072 -10.29003 -10.28776
 Alpha  occ. eigenvalues --  -10.28570 -10.28539 -10.28382 -10.28329 -10.28264
 Alpha  occ. eigenvalues --  -10.28201 -10.28158 -10.27950 -10.27729 -10.27709
 Alpha  occ. eigenvalues --  -10.27681 -10.27678 -10.27617 -10.27595 -10.27587
 Alpha  occ. eigenvalues --  -10.27427 -10.27392 -10.27186 -10.27184 -10.27156
 Alpha  occ. eigenvalues --  -10.26943 -10.26893 -10.26684 -10.26658 -10.26633
 Alpha  occ. eigenvalues --  -10.26534 -10.26522 -10.26413 -10.26387 -10.26344
 Alpha  occ. eigenvalues --  -10.26330 -10.26256 -10.26109 -10.25956 -10.25853
 Alpha  occ. eigenvalues --  -10.25806 -10.25762 -10.25674 -10.25272 -10.24611
 Alpha  occ. eigenvalues --  -10.24287  -3.17906  -3.16260  -1.92797  -1.92355
 Alpha  occ. eigenvalues --   -1.92220  -1.91145  -1.90727  -1.90575  -1.15807
 Alpha  occ. eigenvalues --   -1.15775  -1.10633  -1.10543  -1.09276  -1.08226
 Alpha  occ. eigenvalues --   -1.06756  -1.05914  -1.05416  -1.05030  -1.04578
 Alpha  occ. eigenvalues --   -1.04147  -1.04074  -1.03442  -1.03151  -1.02254
 Alpha  occ. eigenvalues --   -0.92562  -0.91480  -0.90083  -0.88952  -0.88914
 Alpha  occ. eigenvalues --   -0.88363  -0.88071  -0.87929  -0.87730  -0.87343
 Alpha  occ. eigenvalues --   -0.87288  -0.87219  -0.86801  -0.86115  -0.84375
 Alpha  occ. eigenvalues --   -0.84374  -0.83691  -0.83508  -0.82510  -0.82348
 Alpha  occ. eigenvalues --   -0.82341  -0.82117  -0.81311  -0.81116  -0.80232
 Alpha  occ. eigenvalues --   -0.80151  -0.78735  -0.78031  -0.77724  -0.77176
 Alpha  occ. eigenvalues --   -0.76944  -0.76753  -0.76290  -0.75761  -0.75529
 Alpha  occ. eigenvalues --   -0.75249  -0.72835  -0.72631  -0.71971  -0.71871
 Alpha  occ. eigenvalues --   -0.69602  -0.69288  -0.69093  -0.68678  -0.67907
 Alpha  occ. eigenvalues --   -0.67754  -0.67753  -0.67070  -0.66023  -0.65879
 Alpha  occ. eigenvalues --   -0.65417  -0.65085  -0.64702  -0.64652  -0.64296
 Alpha  occ. eigenvalues --   -0.64133  -0.62841  -0.61634  -0.60905  -0.60079
 Alpha  occ. eigenvalues --   -0.59852  -0.59674  -0.59078  -0.58995  -0.58823
 Alpha  occ. eigenvalues --   -0.58487  -0.58189  -0.57831  -0.57652  -0.57014
 Alpha  occ. eigenvalues --   -0.56497  -0.56157  -0.55841  -0.55785  -0.55349
 Alpha  occ. eigenvalues --   -0.55285  -0.54720  -0.54396  -0.54225  -0.53930
 Alpha  occ. eigenvalues --   -0.53791  -0.53586  -0.53271  -0.53050  -0.52956
 Alpha  occ. eigenvalues --   -0.52734  -0.52627  -0.52410  -0.52372  -0.52069
 Alpha  occ. eigenvalues --   -0.51871  -0.51478  -0.51413  -0.51307  -0.51270
 Alpha  occ. eigenvalues --   -0.50897  -0.50885  -0.50658  -0.50538  -0.50254
 Alpha  occ. eigenvalues --   -0.50147  -0.50033  -0.49979  -0.49905  -0.49900
 Alpha  occ. eigenvalues --   -0.49536  -0.49272  -0.49215  -0.49147  -0.48884
 Alpha  occ. eigenvalues --   -0.48781  -0.48744  -0.48360  -0.48317  -0.48013
 Alpha  occ. eigenvalues --   -0.47932  -0.47846  -0.47831  -0.47494  -0.47291
 Alpha  occ. eigenvalues --   -0.47109  -0.46975  -0.46737  -0.46569  -0.46369
 Alpha  occ. eigenvalues --   -0.46325  -0.46189  -0.46180  -0.45737  -0.45571
 Alpha  occ. eigenvalues --   -0.45381  -0.45187  -0.45002  -0.44872  -0.44732
 Alpha  occ. eigenvalues --   -0.44709  -0.44612  -0.44294  -0.44175  -0.44062
 Alpha  occ. eigenvalues --   -0.43897  -0.43810  -0.43590  -0.43407  -0.43323
 Alpha  occ. eigenvalues --   -0.43097  -0.42951  -0.42943  -0.42704  -0.42696
 Alpha  occ. eigenvalues --   -0.42484  -0.42382  -0.42186  -0.42164  -0.42052
 Alpha  occ. eigenvalues --   -0.42024  -0.41919  -0.41770  -0.41713  -0.41326
 Alpha  occ. eigenvalues --   -0.41206  -0.41067  -0.41021  -0.40656  -0.40621
 Alpha  occ. eigenvalues --   -0.40457  -0.40172  -0.39449  -0.39440  -0.39270
 Alpha  occ. eigenvalues --   -0.38663  -0.38440  -0.38064  -0.37691  -0.37248
 Alpha  occ. eigenvalues --   -0.37229  -0.36874  -0.36846  -0.36399  -0.36137
 Alpha  occ. eigenvalues --   -0.35373  -0.35057  -0.34484  -0.34211  -0.33835
 Alpha  occ. eigenvalues --   -0.33785  -0.33555  -0.32835  -0.32125  -0.31607
 Alpha  occ. eigenvalues --   -0.31297  -0.31158  -0.30777  -0.30402  -0.30230
 Alpha  occ. eigenvalues --   -0.30179  -0.29896  -0.29458  -0.24111  -0.24031
 Alpha  occ. eigenvalues --   -0.21301  -0.20961
 Alpha virt. eigenvalues --   -0.08751  -0.08283  -0.02145  -0.01958  -0.00145
 Alpha virt. eigenvalues --    0.00382   0.01695   0.02339   0.02545   0.03286
 Alpha virt. eigenvalues --    0.04721   0.04942   0.05301   0.05459   0.06112

 Mulliken charges:
               1
     1  Mg   0.832158
     2  C   -0.059036
     3  C   -0.068380
     4  C   -0.048135
     5  C   -0.064272
     6  N   -0.282755
     7  C   -0.070778
     8  C    0.037340
     9  C   -0.103502
    10  C    0.096935
    11  C    0.074247
    12  C    0.030283
    13  C   -0.079011
    14  H   -0.000298
    15  N   -0.351861
    16  C    0.094008
    17  C   -0.162839
    18  C   -0.023212
    19  C    0.114457
    20  C    0.115660
    21  C    0.043071
    22  O   -0.195340
    23  C    0.026885
    24  N   -0.202795
    25  C   -0.029522
    26  C   -0.063962
    27  C   -0.010478
    28  C   -0.015008
    29  C    0.083878
    30  C    0.049349
    31  C   -0.014613
    32  N   -0.364128
    33  C    0.117651
    34  C   -0.165693
    35  C   -0.033534
    36  C    0.166798
    37  C    0.154773
    38  C    0.030819
    39  O   -0.206499
    40  C    0.011800
    41  C    0.227229
    42  O   -0.236979
    43  O   -0.334766
    44  C    0.179349
    45  H   -0.044991
    46  H    0.006287
    47  H   -0.021737
    48  H    0.012825
    49  H    0.012265
    50  H    0.012496
    51  H    0.020449
    52  H    0.026857
    53  H    0.007596
    54  H    0.050816
    55  H    0.028002
    56  H    0.042554
    57  H    0.007779
    58  H    0.030355
    59  H    0.019864
    60  H    0.028932
    61  H    0.042267
    62  H    0.026315
    63  H    0.013002
    64  H   -0.000375
    65  H    0.024711
    66  H    0.023036
    67  H    0.008251
    68  H    0.005407
    69  H    0.012640
    70  H    0.013406
    71  H    0.011770
    72  H    0.020309
    73  H   -0.002859
    74  H    0.041919
    75  H    0.055933
    76  H    0.039317
    77  H    0.041563
    78  H    0.045543
    79  H    0.038202
    80  Mg   0.852536
    81  C    0.059535
    82  C   -0.070303
    83  C   -0.057818
    84  C   -0.107038
    85  N   -0.271013
    86  C    0.000234
    87  C   -0.067262
    88  C   -0.030497
    89  C    0.006777
    90  C    0.073422
    91  C    0.057259
    92  C   -0.089232
    93  H    0.003079
    94  N   -0.473342
    95  C    0.175806
    96  C   -0.107824
    97  C   -0.095921
    98  C    0.154357
    99  C    0.087896
   100  C    0.047074
   101  O   -0.209829
   102  C    0.040718
   103  N   -0.291871
   104  C    0.056948
   105  C   -0.031485
   106  C   -0.009793
   107  C    0.036952
   108  C    0.062957
   109  C    0.034024
   110  C   -0.009027
   111  N   -0.270751
   112  C    0.124321
   113  C   -0.200041
   114  C    0.032702
   115  C    0.058964
   116  C    0.139527
   117  C    0.025624
   118  O   -0.148925
   119  C   -0.069150
   120  C    0.203405
   121  O   -0.256824
   122  O   -0.319671
   123  C    0.175437
   124  H   -0.037584
   125  H    0.000067
   126  H   -0.043295
   127  H    0.011901
   128  H    0.004319
   129  H    0.020897
   130  H    0.017711
   131  H    0.020296
   132  H    0.007855
   133  H    0.034952
   134  H    0.036106
   135  H    0.034047
   136  H    0.030118
   137  H    0.009469
   138  H    0.034392
   139  H    0.052706
   140  H    0.031488
   141  H    0.018923
   142  H    0.015474
   143  H    0.001170
   144  H   -0.000361
   145  H    0.021080
   146  H    0.020065
   147  H    0.012266
   148  H    0.017489
   149  H    0.013026
   150  H    0.020280
   151  H    0.010328
   152  H    0.013241
   153  H    0.043009
   154  H    0.040976
   155  H    0.043587
   156  H    0.032052
   157  H    0.059127
   158  H    0.030886
 Sum of Mulliken charges =  -0.00000

 Dipole moment (field-independent basis, Debye):
    X=             -6.5398    Y=              0.5528    Z=             -0.9899  Tot=              6.6374
 Quadrupole moment (field-independent basis, Debye-Ang):
   XX=           -530.5102   YY=           -479.4035   ZZ=           -519.8594
   XY=            -46.3085   XZ=             68.7816   YZ=             -8.5032

 Normal termination of Gaussian 16 at Wed Sep  1 11:38:16 2021.
