 Gaussian 16, Revision A.03,
 Gaussian 16:  ES64L-G16RevA.03 25-Dec-2016

 ----------------------------------------------------------
 #p cam-b3lyp/Def2SVP td=(nstates=5) density=(transition=1)
 ----------------------------------------------------------

 --------------------------------
 TDDFT excited states in gaussian
 --------------------------------
 Symbolic Z-matrix:
 Charge =  0 Multiplicity = 1

                         Standard orientation:
 ---------------------------------------------------------------------
 Center     Atomic      Atomic             Coordinates (Angstroms)
 Number     Number       Type             X           Y           Z
 ---------------------------------------------------------------------
      1         12           0      -28.277370   -0.700861   -0.113425
      2          6           0      -26.274814    2.325267   -0.917060
      3          6           0      -29.063857    0.973981    2.715048
      4          6           0      -29.711526   -3.436279    0.599533
      5          6           0      -26.509400   -2.281719   -2.768437
      6          7           0      -27.675695    1.369937    0.777792
      7          6           0      -27.030256    2.446785    0.193857
      8          6           0      -27.171963    3.767559    0.959034
      9          6           0      -27.669305    3.196500    2.322812
     10          6           0      -28.175522    1.746898    1.960305
     11          6           0      -26.644784    3.165601    3.412908
     12          6           0      -28.069730    4.875903    0.313670
     13          6           0      -27.725704    6.302946    0.581841
     14          1           0      -28.917009    7.241627    0.744573
     15          7           0      -29.328175   -1.186862    1.462423
     16          6           0      -29.618355   -0.336538    2.549881
     17          6           0      -30.582233   -1.002327    3.377849
     18          6           0      -30.877051   -2.235120    2.648484
     19          6           0      -29.976388   -2.295838    1.554433
     20          6           0      -31.260043   -0.382082    4.655235
     21          6           0      -31.932793   -3.229591    3.023657
     22          8           0      -32.093935   -4.301085    2.390144
     23          6           0      -32.899438   -3.011916    4.129918
     24          7           0      -28.051882   -2.635439   -0.818117
     25          6           0      -28.799264   -3.644044   -0.365257
     26          6           0      -28.566915   -4.993026   -1.118467
     27          6           0      -27.899214   -4.423471   -2.425275
     28          6           0      -27.403279   -3.021435   -1.977089
     29          6           0      -27.598997   -5.943955   -0.343437
     30          6           0      -28.935463   -4.278253   -3.617672
     31          6           0      -29.779230   -5.498731   -4.041800
     32          7           0      -26.750878   -0.122874   -1.585218
     33          6           0      -26.210582   -0.879481   -2.618832
     34          6           0      -25.237682   -0.091752   -3.339016
     35          6           0      -25.260497    1.171160   -2.733595
     36          6           0      -26.130393    1.096621   -1.611230
     37          6           0      -24.491874   -0.493575   -4.566877
     38          6           0      -24.693416    2.511554   -2.801900
     39          8           0      -23.920162    3.069061   -3.569507
     40          6           0      -25.460404    3.308240   -1.623588
     41          6           0      -24.416739    3.950541   -0.843251
     42          8           0      -23.516844    3.390079   -0.197997
     43          8           0      -24.308957    5.240695   -1.277306
     44          6           0      -23.304635    6.086595   -0.716724
     45          1           0      -29.392143    1.624742    3.528404
     46          1           0      -30.187811   -4.396771    0.806148
     47          1           0      -26.011460   -2.816526   -3.580384
     48          1           0      -26.167226    4.169677    1.090784
     49          1           0      -28.577908    3.706087    2.642164
     50          1           0      -26.351464    2.123869    3.542912
     51          1           0      -27.098837    3.480906    4.352223
     52          1           0      -25.735314    3.746623    3.261274
     53          1           0      -29.072719    4.741724    0.717772
     54          1           0      -28.122868    4.666963   -0.754460
     55          1           0      -27.159439    6.596977   -0.301667
     56          1           0      -26.954898    6.412175    1.344873
     57          1           0      -32.297697   -0.072777    4.533451
     58          1           0      -30.664014    0.432841    5.065156
     59          1           0      -31.184462   -1.212861    5.357899
     60          1           0      -32.378062   -3.169772    5.074377
     61          1           0      -33.676765   -3.763849    3.991346
     62          1           0      -33.318092   -2.016943    3.982421
     63          1           0      -29.554719   -5.439190   -1.238544
     64          1           0      -27.034300   -4.974957   -2.792657
     65          1           0      -28.198784   -6.795276   -0.020588
     66          1           0      -27.052086   -5.495035    0.485060
     67          1           0      -26.918851   -6.253814   -1.138111
     68          1           0      -28.384399   -4.021311   -4.522019
     69          1           0      -29.545306   -3.406697   -3.380467
     70          1           0      -30.812374   -5.173244   -3.921190
     71          1           0      -29.544133   -6.255599   -3.292932
     72          1           0      -29.600893   -5.793409   -5.075839
     73          1           0      -25.003662   -1.393441   -4.908848
     74          1           0      -23.477844   -0.723512   -4.239930
     75          1           0      -24.420380    0.290122   -5.321050
     76          1           0      -26.130348    4.048360   -2.060814
     77          1           0      -22.732989    5.576806    0.059112
     78          1           0      -23.854220    6.901023   -0.244580
     79          1           0      -22.698661    6.550204   -1.493857
     80         12           0       28.150501   -0.522441    0.302800
     81          6           0       26.193467    2.289304    0.881231
     82          6           0       29.891906    1.308168   -2.018735
     83          6           0       29.932602   -3.374686   -0.474187
     84          6           0       26.004911   -2.471777    2.238546
     85          7           0       28.095760    1.585342   -0.389639
     86          6           0       27.306952    2.582222    0.046528
     87          6           0       27.669634    3.983377   -0.498317
     88          6           0       28.722491    3.604673   -1.626121
     89          6           0       28.917033    2.031430   -1.384580
     90          6           0       28.135725    3.999959   -3.028057
     91          6           0       28.279891    4.827023    0.735416
     92          6           0       27.622919    6.208507    1.026086
     93          1           0       26.833183    6.810810   -0.191818
     94          7           0       29.642604   -1.035762   -1.085285
     95          6           0       30.288850   -0.085875   -1.903075
     96          6           0       31.442260   -0.709507   -2.515981
     97          6           0       31.446672   -2.056548   -2.132337
     98          6           0       30.343725   -2.209490   -1.112686
     99          6           0       32.223351   -0.009664   -3.637271
    100          6           0       32.407665   -3.181097   -2.601138
    101          8           0       32.366022   -4.365300   -2.218338
    102          6           0       33.553806   -2.804821   -3.555816
    103          7           0       27.901131   -2.626573    0.777586
    104          6           0       28.858723   -3.593644    0.344668
    105          6           0       28.397101   -5.014880    0.729131
    106          6           0       27.294507   -4.673046    1.836567
    107          6           0       27.077323   -3.149481    1.641657
    108          6           0       27.945865   -5.756324   -0.518419
    109          6           0       27.826435   -4.977294    3.300307
    110          6           0       29.168541   -4.440830    3.904913
    111          7           0       26.423609   -0.230494    1.283462
    112          6           0       25.627322   -1.106932    2.027043
    113          6           0       24.521626   -0.385557    2.568516
    114          6           0       24.712830    0.932691    2.195783
    115          6           0       25.827030    0.984837    1.322181
    116          6           0       23.345445   -0.946846    3.341120
    117          6           0       24.178757    2.231329    2.313822
    118          8           0       23.156303    2.544194    2.835540
    119          6           0       25.060479    3.141724    1.362403
    120          6           0       24.153676    3.570910    0.242272
    121          8           0       24.207180    3.122448   -0.883833
    122          8           0       23.300258    4.473072    0.741073
    123          6           0       22.117584    4.635363   -0.068599
    124          1           0       30.504339    1.902456   -2.699706
    125          1           0       30.341024   -4.290069   -0.905916
    126          1           0       25.316470   -3.070976    2.838972
    127          1           0       26.831546    4.559111   -0.890581
    128          1           0       29.704515    4.063520   -1.508999
    129          1           0       28.278310    3.258788   -3.814821
    130          1           0       28.721319    4.902428   -3.201058
    131          1           0       27.104760    4.310118   -2.859392
    132          1           0       29.358767    4.873108    0.588567
    133          1           0       28.158265    4.207592    1.624356
    134          1           0       28.500461    6.803748    1.276149
    135          1           0       26.944476    6.225738    1.878520
    136          1           0       32.203392   -0.674069   -4.501510
    137          1           0       33.271350    0.076158   -3.347030
    138          1           0       31.782985    0.965453   -3.843098
    139          1           0       33.102205   -2.621700   -4.531694
    140          1           0       34.144717   -3.712968   -3.673776
    141          1           0       34.205254   -2.076284   -3.073790
    142          1           0       29.252503   -5.450007    1.246721
    143          1           0       26.436312   -5.333775    1.719372
    144          1           0       28.453903   -5.421500   -1.422941
    145          1           0       26.873602   -5.634434   -0.669990
    146          1           0       28.194691   -6.815122   -0.449774
    147          1           0       27.805523   -6.058220    3.439447
    148          1           0       27.080973   -4.486596    3.926140
    149          1           0       29.961035   -5.145876    3.653585
    150          1           0       29.007256   -4.414114    4.983220
    151          1           0       29.424501   -3.408016    3.666371
    152          1           0       23.654937   -1.444444    4.260379
    153          1           0       22.916226   -1.681304    2.659924
    154          1           0       22.654865   -0.209547    3.752896
    155          1           0       25.472919    4.061367    1.777824
    156          1           0       21.226221    4.901496    0.499023
    157          1           0       21.845031    3.910981   -0.835988
    158          1           0       22.180371    5.472391   -0.764308
 ---------------------------------------------------------------------

 SCF Done:  E(RCAM-B3LYP) =  -4069.81072851     A.U. after   18 cycles

 Excitation energies and oscillator strengths:

 Excited State   1:      Singlet-A      1.6590 eV  747.36 nm  f=0.3902  <S**2>=0.000
     309 -> 316       -0.15615
     311 -> 313        0.69165
     309 <- 316       -0.10434
 This state for optimization and/or second-order correction.
 Total Energy, E(TD-HF/TD-DFT) =  -4069.74976245
 Copying the excited state density for this state as the 1-particle RhoCI density.

 Excited State   2:      Singlet-A      1.7043 eV  727.48 nm  f=0.3884  <S**2>=0.000
     310 -> 315       -0.17575
     312 -> 314        0.68646
     310 <- 315       -0.10653

 Excited State   3:      Singlet-A      2.1782 eV  569.22 nm  f=0.2154  <S**2>=0.000
     309 -> 313        0.66760
     311 -> 316        0.21706

 Excited State   4:      Singlet-A      2.2267 eV  556.81 nm  f=0.1276  <S**2>=0.000
     310 -> 314        0.64629
     312 -> 315        0.27557

 Excited State   5:      Singlet-A      2.9061 eV  426.63 nm  f=0.0000  <S**2>=0.000
     312 -> 313        0.70711

 The electronic state is 1-A.
 Alpha  occ. eigenvalues --  -46.88901 -46.88059 -19.26133 -19.24813 -19.20046
 Alpha  occ. eigenvalues --  -19.19895 -19.19421 -19.19341 -19.18594 -19.17438
 Alpha  occ. eigenvalues --  -14.42312 -14.42224 -14.41435 -14.41414 -14.39709
 Alpha  occ. eigenvalues --  -14.39574 -14.39536 -14.39039 -10.39304 -10.39146
 Alpha  occ. eigenvalues --  -10.35981 -10.35102 -10.34808 -10.33996 -10.31579
 Alpha  occ. eigenvalues --  -10.31411 -10.31332 -10.31125 -10.30806 -10.30737
 Alpha  occ. eigenvalues --  -10.30702 -10.30646 -10.30455 -10.30368 -10.30328
 Alpha  occ. eigenvalues --  -10.30136 -10.29880 -10.29855 -10.29808 -10.29641
 Alpha  occ. eigenvalues --  -10.29616 -10.29077 -10.29061 -10.28960 -10.28863
 Alpha  occ. eigenvalues --  -10.28500 -10.28379 -10.28314 -10.28124 -10.28122
 Alpha  occ. eigenvalues --  -10.28118 -10.28118 -10.28114 -10.28018 -10.28005
 Alpha  occ. eigenvalues --  -10.27928 -10.27835 -10.27772 -10.27645 -10.27641
 Alpha  occ. eigenvalues --  -10.27574 -10.27427 -10.27388 -10.27054 -10.27046
 Alpha  occ. eigenvalues --  -10.26990 -10.26718 -10.26712 -10.26694 -10.26666
 Alpha  occ. eigenvalues --  -10.26510 -10.26393 -10.26233 -10.26196 -10.25946
 Alpha  occ. eigenvalues --  -10.25795 -10.25769 -10.25735 -10.25623 -10.25601
 Alpha  occ. eigenvalues --  -10.25589 -10.25544 -10.25539 -10.25239 -10.25183
 Alpha  occ. eigenvalues --  -10.24661  -3.17562  -3.16661  -1.92431  -1.92014
 Alpha  occ. eigenvalues --   -1.91884  -1.91561  -1.91094  -1.90982  -1.18138
 Alpha  occ. eigenvalues --   -1.16540  -1.11995  -1.10229  -1.09062  -1.08313
 Alpha  occ. eigenvalues --   -1.07471  -1.07022  -1.04918  -1.04134  -1.04038
 Alpha  occ. eigenvalues --   -1.03665  -1.03298  -1.02689  -1.02538  -1.01142
 Alpha  occ. eigenvalues --   -0.93707  -0.92778  -0.89558  -0.88801  -0.88514
 Alpha  occ. eigenvalues --   -0.88111  -0.88051  -0.87734  -0.87466  -0.87057
 Alpha  occ. eigenvalues --   -0.86842  -0.86478  -0.86246  -0.85996  -0.84747
 Alpha  occ. eigenvalues --   -0.84044  -0.83912  -0.83379  -0.83150  -0.82265
 Alpha  occ. eigenvalues --   -0.82078  -0.81178  -0.81069  -0.80888  -0.80857
 Alpha  occ. eigenvalues --   -0.79916  -0.78571  -0.77694  -0.77493  -0.77292
 Alpha  occ. eigenvalues --   -0.77089  -0.76714  -0.76231  -0.75839  -0.75450
 Alpha  occ. eigenvalues --   -0.74937  -0.73363  -0.72939  -0.71162  -0.70949
 Alpha  occ. eigenvalues --   -0.69296  -0.68871  -0.68650  -0.68625  -0.68178
 Alpha  occ. eigenvalues --   -0.67952  -0.66947  -0.66349  -0.65832  -0.65706
 Alpha  occ. eigenvalues --   -0.65140  -0.64908  -0.64528  -0.64484  -0.64458
 Alpha  occ. eigenvalues --   -0.63918  -0.62364  -0.62061  -0.60756  -0.59978
 Alpha  occ. eigenvalues --   -0.59786  -0.59529  -0.59381  -0.58939  -0.58867
 Alpha  occ. eigenvalues --   -0.58403  -0.58398  -0.57979  -0.57686  -0.57233
 Alpha  occ. eigenvalues --   -0.56244  -0.55912  -0.55661  -0.55638  -0.54891
 Alpha  occ. eigenvalues --   -0.54882  -0.54630  -0.54365  -0.54203  -0.53949
 Alpha  occ. eigenvalues --   -0.53704  -0.53348  -0.53238  -0.53104  -0.52880
 Alpha  occ. eigenvalues --   -0.52569  -0.52567  -0.52421  -0.52188  -0.51973
 Alpha  occ. eigenvalues --   -0.51835  -0.51764  -0.51715  -0.51426  -0.51231
 Alpha  occ. eigenvalues --   -0.51027  -0.50935  -0.50595  -0.50306  -0.49912
 Alpha  occ. eigenvalues --   -0.49884  -0.49853  -0.49792  -0.49724  -0.49502
 Alpha  occ. eigenvalues --   -0.49489  -0.49215  -0.49145  -0.48822  -0.48739
 Alpha  occ. eigenvalues --   -0.48574  -0.48336  -0.48310  -0.48157  -0.47927
 Alpha  occ. eigenvalues --   -0.47865  -0.47717  -0.47577  -0.47458  -0.47268
 Alpha  occ. eigenvalues --   -0.47111  -0.46634  -0.46533  -0.46390  -0.46246
 Alpha  occ. eigenvalues --   -0.46203  -0.46150  -0.45956  -0.45705  -0.45554
 Alpha  occ. eigenvalues --   -0.45402  -0.45162  -0.45122  -0.44984  -0.44914
 Alpha  occ. eigenvalues --   -0.44845  -0.44612  -0.44529  -0.44369  -0.44303
 Alpha  occ. eigenvalues --   -0.43957  -0.43733  -0.43711  -0.43582  -0.43390
 Alpha  occ. eigenvalues --   -0.43278  -0.43097  -0.43032  -0.42992  -0.42851
 Alpha  occ. eigenvalues --   -0.42690  -0.42633  -0.42360  -0.42118  -0.42017
 Alpha  occ. eigenvalues --   -0.41904  -0.41729  -0.41639  -0.41344  -0.41296
 Alpha  occ. eigenvalues --   -0.40786  -0.40690  -0.40655  -0.40640  -0.40256
 Alpha  occ. eigenvalues --   -0.39819  -0.39540  -0.39493  -0.39273  -0.39127
 Alpha  occ. eigenvalues --   -0.38583  -0.38247  -0.37769  -0.37659  -0.37439
 Alpha  occ. eigenvalues --   -0.37189  -0.37072  -0.37041  -0.36443  -0.36409
 Alpha  occ. eigenvalues --   -0.36094  -0.35829  -0.34781  -0.34619  -0.34318
 Alpha  occ. eigenvalues --   -0.34073  -0.33141  -0.32644  -0.31624  -0.31573
 Alpha  occ. eigenvalues --   -0.31402  -0.30939  -0.30423  -0.30247  -0.30137
 Alpha  occ. eigenvalues --   -0.29896  -0.29813  -0.29564  -0.24275  -0.23746
 Alpha  occ. eigenvalues --   -0.21733  -0.20955
 Alpha virt. eigenvalues --   -0.09662  -0.08528  -0.01319  -0.00781   0.00286
 Alpha virt. eigenvalues --    0.00582   0.01737   0.02250   0.02503   0.02582
 Alpha virt. eigenvalues --    0.03923   0.04554   0.04970   0.05968   0.06149

 Mulliken charges:
               1
     1  Mg  11.997464
     2  C    5.963127
     3  C    5.984369
     4  C    6.037612
     5  C    6.004457
     6  N    6.970788
     7  C    6.036393
     8  C    5.985441
     9  C    6.001039
    10  C    5.987884
    11  C    6.004228
    12  C    5.997938
    13  C    6.001130
    14  H    1.004491
    15  N    7.006150
    16  C    5.963804
    17  C    5.979237
    18  C    5.985912
    19  C    5.967053
    20  C    6.000851
    21  C    5.988074
    22  O    7.964206
    23  C    6.005411
    24  N    7.025701
    25  C    5.961950
    26  C    6.005126
    27  C    5.995386
    28  C    6.018521
    29  C    6.000324
    30  C    5.995105
    31  C    6.000378
    32  N    6.995765
    33  C    6.034300
    34  C    6.033308
    35  C    5.998309
    36  C    6.045655
    37  C    5.996060
    38  C    6.012751
    39  O    8.025965
    40  C    6.008282
    41  C    6.005906
    42  O    8.003226
    43  O    8.000414
    44  C    5.996576
    45  H    0.977075
    46  H    1.002626
    47  H    1.017729
    48  H    0.999630
    49  H    0.999782
    50  H    1.000331
    51  H    0.998536
    52  H    0.983460
    53  H    1.012007
    54  H    0.993386
    55  H    0.994540
    56  H    1.002139
    57  H    0.979492
    58  H    0.985378
    59  H    0.983364
    60  H    0.991401
    61  H    0.984441
    62  H    0.995241
    63  H    1.005792
    64  H    1.002139
    65  H    1.004732
    66  H    1.003181
    67  H    0.991826
    68  H    0.998137
    69  H    1.006983
    70  H    1.008054
    71  H    1.005983
    72  H    1.002472
    73  H    1.014759
    74  H    1.022704
    75  H    1.020607
    76  H    1.005173
    77  H    1.003691
    78  H    1.006117
    79  H    1.001033
    80  Mg  11.999996
    81  C    6.000054
    82  C    5.999996
    83  C    5.999962
    84  C    5.999966
    85  N    7.000011
    86  C    5.999934
    87  C    6.000015
    88  C    5.999984
    89  C    6.000044
    90  C    5.999986
    91  C    6.000010
    92  C    6.000002
    93  H    0.999963
    94  N    6.999986
    95  C    6.000090
    96  C    6.000040
    97  C    6.000046
    98  C    6.000090
    99  C    5.999991
   100  C    6.000030
   101  O    8.000077
   102  C    5.999985
   103  N    6.999979
   104  C    6.000067
   105  C    5.999987
   106  C    6.000010
   107  C    5.999979
   108  C    5.999986
   109  C    6.000016
   110  C    5.999984
   111  N    7.000016
   112  C    5.999926
   113  C    5.999947
   114  C    6.000002
   115  C    5.999908
   116  C    6.000000
   117  C    5.999950
   118  O    7.999919
   119  C    5.999998
   120  C    5.999988
   121  O    7.999968
   122  O    8.000012
   123  C    6.000037
   124  H    1.000020
   125  H    1.000013
   126  H    0.999979
   127  H    0.999982
   128  H    1.000015
   129  H    0.999979
   130  H    1.000019
   131  H    1.000010
   132  H    0.999986
   133  H    1.000024
   134  H    1.000010
   135  H    1.000012
   136  H    1.000033
   137  H    1.000063
   138  H    1.000039
   139  H    1.000011
   140  H    1.000052
   141  H    1.000034
   142  H    1.000016
   143  H    0.999981
   144  H    0.999973
   145  H    1.000007
   146  H    1.000024
   147  H    0.999987
   148  H    1.000017
   149  H    0.999994
   150  H    1.000023
   151  H    0.999997
   152  H    0.999974
   153  H    0.999934
   154  H    0.999957
   155  H    0.999984
   156  H    0.999976
   157  H    0.999964
   158  H    0.999967
 Sum of Mulliken charges = 624.00000

 Dipole moment (field-independent basis, Debye):
    X=              6.6594    Y=              0.7306    Z=             -8.8978  Tot=             11.1379
 Quadrupole moment (field-independent basis, Debye-Ang):
   XX=           -370.7452   YY=              3.1143   ZZ=             -0.6419
   XY=            -24.7354   XZ=            249.2951   YZ=              6.1499

 Normal termination of Gaussian 16 at Tue Sep 21 22:23:22 2021.
