 Gaussian 16, Revision A.03,
 Gaussian 16:  ES64L-G16RevA.03 25-Dec-2016

 ----------------------------------------------------------
 #p cam-b3lyp/Def2SVP td=(nstates=5) density=(transition=1)
 ----------------------------------------------------------

 --------------------------------
 TDDFT excited states in gaussian
 --------------------------------
 Symbolic Z-matrix:
 Charge =  0 Multiplicity = 1

                         Standard orientation:
 ---------------------------------------------------------------------
 Center     Atomic      Atomic             Coordinates (Angstroms)
 Number     Number       Type             X           Y           Z
 ---------------------------------------------------------------------
      1         12           0       25.185136   -0.280386   -0.374477
      2          6           0       21.853900   -0.397165    0.601367
      3          6           0       24.361695    2.342615   -2.610627
      4          6           0       28.395685    0.638016   -0.488789
      5          6           0       25.926230   -2.386307    2.353992
      6          7           0       23.307857    1.109173   -0.685995
      7          6           0       22.062219    0.641554   -0.342411
      8          6           0       20.976763    1.478002   -0.943838
      9          6           0       21.746710    2.175597   -2.157479
     10          6           0       23.256494    1.908916   -1.821006
     11          6           0       21.352363    1.660039   -3.632391
     12          6           0       20.298502    2.422291    0.176751
     13          6           0       18.935565    2.810231   -0.102747
     14          1           0       18.713683    4.337595   -0.097017
     15          7           0       26.269586    1.130604   -1.518582
     16          6           0       25.744390    2.123189   -2.392632
     17          6           0       26.871010    2.825524   -2.983515
     18          6           0       28.069940    2.341448   -2.405914
     19          6           0       27.615090    1.253253   -1.476582
     20          6           0       26.686867    3.976567   -3.900740
     21          6           0       29.510335    2.931931   -2.709109
     22          8           0       29.572816    3.858520   -3.515657
     23          6           0       30.785592    2.207345   -2.292253
     24          7           0       26.844218   -0.749683    0.849383
     25          6           0       28.074345   -0.311889    0.479269
     26          6           0       29.261622   -0.778100    1.530198
     27          6           0       28.482571   -1.936076    2.319987
     28          6           0       27.008847   -1.744908    1.840649
     29          6           0       30.578162   -1.341784    0.873228
     30          6           0       28.598370   -1.809745    3.840204
     31          6           0       29.201450   -2.955410    4.687895
     32          7           0       24.111199   -1.421355    0.970398
     33          6           0       24.544785   -2.238391    1.973816
     34          6           0       23.414366   -2.906260    2.557723
     35          6           0       22.308045   -2.127410    2.048480
     36          6           0       22.829974   -1.212916    1.117769
     37          6           0       23.449424   -3.921996    3.662848
     38          6           0       20.883664   -1.910789    2.193533
     39          8           0       20.061109   -2.567336    2.756327
     40          6           0       20.456984   -0.771379    1.188066
     41          6           0       19.523859   -1.232964    0.046991
     42          8           0       19.727280   -2.194107   -0.663212
     43          8           0       18.364469   -0.430397    0.030862
     44          6           0       17.314032   -0.832521   -0.855052
     45          1           0       24.033778    3.094127   -3.330760
     46          1           0       29.390550    1.052855   -0.314823
     47          1           0       26.202903   -3.047959    3.176869
     48          1           0       20.253057    0.881861   -1.500649
     49          1           0       21.556089    3.248074   -2.104000
     50          1           0       20.978537    2.542846   -4.150893
     51          1           0       20.608028    0.864472   -3.618840
     52          1           0       22.280792    1.323427   -4.094614
     53          1           0       20.927136    3.312530    0.166137
     54          1           0       20.499632    1.846440    1.080506
     55          1           0       18.326057    2.343189    0.669934
     56          1           0       18.648229    2.474988   -1.099279
     57          1           0       25.659008    4.047313   -4.256109
     58          1           0       27.271496    3.825600   -4.808563
     59          1           0       26.922335    4.919080   -3.405891
     60          1           0       30.930537    2.158560   -1.212575
     61          1           0       31.621893    2.719379   -2.769327
     62          1           0       30.740122    1.204613   -2.717331
     63          1           0       29.387361    0.098454    2.165172
     64          1           0       28.708469   -2.950009    1.989100
     65          1           0       31.405775   -0.659693    1.065747
     66          1           0       30.437071   -1.429059   -0.204739
     67          1           0       30.762526   -2.313896    1.331775
     68          1           0       27.652127   -1.512592    4.291769
     69          1           0       29.151667   -0.935798    4.183601
     70          1           0       28.525093   -3.510571    5.338416
     71          1           0       29.904971   -2.463645    5.360136
     72          1           0       29.699568   -3.693508    4.058103
     73          1           0       22.489361   -4.438540    3.649637
     74          1           0       23.333224   -3.516370    4.667375
     75          1           0       24.322007   -4.574686    3.662373
     76          1           0       19.905511   -0.080684    1.826583
     77          1           0       16.840823    0.132293   -1.040423
     78          1           0       16.545009   -1.409734   -0.342000
     79          1           0       17.712309   -1.380705   -1.707911
     80         12           0      -25.135730    0.358507    0.139871
     81          6           0      -22.025372   -1.180436   -0.362217
     82          6           0      -26.565825   -2.144200   -1.743076
     83          6           0      -28.047230    1.842647    0.600496
     84          6           0      -23.479802    2.909162    1.899064
     85          7           0      -24.342401   -1.468873   -0.829015
     86          6           0      -23.030041   -1.926703   -0.947833
     87          6           0      -22.932424   -3.413262   -1.471547
     88          6           0      -24.343247   -3.562474   -2.007290
     89          6           0      -25.165808   -2.310180   -1.491639
     90          6           0      -24.351277   -3.501457   -3.603370
     91          6           0      -22.740419   -4.276934   -0.146698
     92          6           0      -21.695727   -5.476476   -0.208467
     93          1           0      -21.687109   -6.070870   -1.593634
     94          7           0      -26.961067   -0.008270   -0.594680
     95          6           0      -27.365476   -1.037811   -1.333329
     96          6           0      -28.779608   -1.008368   -1.597985
     97          6           0      -29.280138    0.030447   -0.788347
     98          6           0      -28.056329    0.732570   -0.246439
     99          6           0      -29.527002   -1.948840   -2.470693
    100          6           0      -30.703651    0.380518   -0.406602
    101          8           0      -30.979947    1.160385    0.512022
    102          6           0      -31.871117   -0.154431   -1.240536
    103          7           0      -25.662158    2.180987    1.090444
    104          6           0      -26.999853    2.487551    1.174383
    105          6           0      -27.161244    3.694945    2.095536
    106          6           0      -25.677440    3.991064    2.634005
    107          6           0      -24.871515    2.951197    1.900860
    108          6           0      -27.905681    4.848900    1.335387
    109          6           0      -25.479838    3.993559    4.141770
    110          6           0      -24.779972    5.279886    4.681885
    111          7           0      -23.163932    0.793983    0.642117
    112          6           0      -22.623523    1.905474    1.361964
    113          6           0      -21.209517    1.806472    1.434551
    114          6           0      -20.949899    0.598410    0.765661
    115          6           0      -22.162695    0.072835    0.273789
    116          6           0      -20.200896    2.694033    2.089805
    117          6           0      -19.926493   -0.314534    0.367996
    118          8           0      -18.723707   -0.302133    0.485876
    119          6           0      -20.618012   -1.547651   -0.279305
    120          6           0      -19.928804   -1.871710   -1.554819
    121          8           0      -19.954422   -1.234284   -2.603849
    122          8           0      -19.305050   -3.039407   -1.370950
    123          6           0      -18.624799   -3.607165   -2.516056
    124          1           0      -27.162350   -2.937251   -2.198513
    125          1           0      -29.038839    2.289714    0.706639
    126          1           0      -22.931742    3.646024    2.490038
    127          1           0      -22.032649   -3.434440   -2.085633
    128          1           0      -24.796557   -4.476231   -1.624483
    129          1           0      -23.356476   -3.338350   -4.018410
    130          1           0      -25.002575   -2.683385   -3.910451
    131          1           0      -24.772575   -4.461804   -3.900797
    132          1           0      -23.660392   -4.748954    0.196915
    133          1           0      -22.466448   -3.569833    0.636713
    134          1           0      -22.052896   -6.325609    0.374319
    135          1           0      -20.762156   -5.220506    0.293225
    136          1           0      -30.162408   -2.542963   -1.812487
    137          1           0      -28.854944   -2.632762   -2.987171
    138          1           0      -30.148998   -1.449210   -3.212791
    139          1           0      -32.644173    0.553824   -0.943332
    140          1           0      -32.124847   -1.194487   -1.032207
    141          1           0      -31.812300   -0.029054   -2.321537
    142          1           0      -27.787498    3.538378    2.973779
    143          1           0      -25.365800    4.965295    2.257145
    144          1           0      -28.661581    5.216648    2.029363
    145          1           0      -28.329353    4.547476    0.377344
    146          1           0      -27.287508    5.745407    1.275142
    147          1           0      -24.934056    3.131415    4.523797
    148          1           0      -26.492119    4.088224    4.537277
    149          1           0      -24.657571    6.015153    3.886418
    150          1           0      -23.740697    5.090355    4.949609
    151          1           0      -25.349239    5.728834    5.496076
    152          1           0      -20.355629    2.448584    3.140842
    153          1           0      -20.431756    3.711260    1.774256
    154          1           0      -19.177149    2.414443    1.845070
    155          1           0      -20.365227   -2.358464    0.405211
    156          1           0      -17.928679   -2.879365   -2.933916
    157          1           0      -19.243733   -3.871572   -3.374106
    158          1           0      -18.080153   -4.474816   -2.143270
 ---------------------------------------------------------------------

 SCF Done:  E(RCAM-B3LYP) =  -4069.80718607     A.U. after   19 cycles

 Excitation energies and oscillator strengths:

 Excited State   1:      Singlet-A      1.6845 eV  736.04 nm  f=0.3925  <S**2>=0.000
     309 -> 316        0.17409
     311 -> 313        0.68815
     309 <- 316        0.10834
 This state for optimization and/or second-order correction.
 Total Energy, E(TD-HF/TD-DFT) =  -4069.74528230
 Copying the excited state density for this state as the 1-particle RhoCI density.

 Excited State   2:      Singlet-A      1.7258 eV  718.41 nm  f=0.3811  <S**2>=0.000
     310 -> 315       -0.16128
     312 -> 314        0.68776

 Excited State   3:      Singlet-A      2.2457 eV  552.09 nm  f=0.1078  <S**2>=0.000
     309 -> 313        0.63690
     311 -> 316       -0.29189

 Excited State   4:      Singlet-A      2.2841 eV  542.81 nm  f=0.1219  <S**2>=0.000
     310 -> 314        0.63702
     312 -> 315        0.28301

 Excited State   5:      Singlet-A      3.1516 eV  393.40 nm  f=0.0000  <S**2>=0.000
     312 -> 313        0.70710

 The electronic state is 1-A.
 Alpha  occ. eigenvalues --  -46.89782 -46.87752 -19.25242 -19.25108 -19.20721
 Alpha  occ. eigenvalues --  -19.19905 -19.19679 -19.18776 -19.18238 -19.17388
 Alpha  occ. eigenvalues --  -14.42293 -14.42224 -14.41994 -14.41604 -14.40206
 Alpha  occ. eigenvalues --  -14.40179 -14.39062 -14.38453 -10.40060 -10.38296
 Alpha  occ. eigenvalues --  -10.36363 -10.36221 -10.33999 -10.33137 -10.31888
 Alpha  occ. eigenvalues --  -10.31791 -10.31602 -10.31432 -10.31347 -10.31170
 Alpha  occ. eigenvalues --  -10.30997 -10.30950 -10.30665 -10.30611 -10.30541
 Alpha  occ. eigenvalues --  -10.30458 -10.30433 -10.30100 -10.29635 -10.29264
 Alpha  occ. eigenvalues --  -10.29050 -10.28990 -10.28897 -10.28633 -10.28490
 Alpha  occ. eigenvalues --  -10.28487 -10.28459 -10.28423 -10.28323 -10.28202
 Alpha  occ. eigenvalues --  -10.28139 -10.28116 -10.28098 -10.27963 -10.27813
 Alpha  occ. eigenvalues --  -10.27793 -10.27632 -10.27598 -10.27535 -10.27512
 Alpha  occ. eigenvalues --  -10.27509 -10.27128 -10.27080 -10.27059 -10.27025
 Alpha  occ. eigenvalues --  -10.26850 -10.26680 -10.26674 -10.26617 -10.26517
 Alpha  occ. eigenvalues --  -10.26420 -10.26415 -10.26379 -10.26269 -10.26209
 Alpha  occ. eigenvalues --  -10.26145 -10.26015 -10.25872 -10.25844 -10.25783
 Alpha  occ. eigenvalues --  -10.25695 -10.25678 -10.25442 -10.25409 -10.24613
 Alpha  occ. eigenvalues --  -10.23567  -3.18200  -3.16462  -1.93049  -1.92709
 Alpha  occ. eigenvalues --   -1.92467  -1.91372  -1.90897  -1.90793  -1.17083
 Alpha  occ. eigenvalues --   -1.16057  -1.10775  -1.10341  -1.10275  -1.09352
 Alpha  occ. eigenvalues --   -1.08713  -1.07067  -1.04969  -1.04894  -1.03898
 Alpha  occ. eigenvalues --   -1.02905  -1.02896  -1.02365  -1.02328  -1.01578
 Alpha  occ. eigenvalues --   -0.92635  -0.92225  -0.89628  -0.89200  -0.88467
 Alpha  occ. eigenvalues --   -0.88405  -0.88351  -0.88167  -0.87961  -0.87017
 Alpha  occ. eigenvalues --   -0.86856  -0.86620  -0.86410  -0.85796  -0.84072
 Alpha  occ. eigenvalues --   -0.83939  -0.83511  -0.83353  -0.82681  -0.82338
 Alpha  occ. eigenvalues --   -0.82215  -0.81828  -0.81255  -0.81130  -0.80363
 Alpha  occ. eigenvalues --   -0.80236  -0.78891  -0.77819  -0.77409  -0.77314
 Alpha  occ. eigenvalues --   -0.76749  -0.76745  -0.76105  -0.75584  -0.74963
 Alpha  occ. eigenvalues --   -0.74917  -0.73087  -0.72644  -0.71389  -0.71327
 Alpha  occ. eigenvalues --   -0.69226  -0.69170  -0.68855  -0.68419  -0.67592
 Alpha  occ. eigenvalues --   -0.67435  -0.67373  -0.66488  -0.65903  -0.65398
 Alpha  occ. eigenvalues --   -0.65228  -0.64998  -0.64797  -0.64489  -0.64485
 Alpha  occ. eigenvalues --   -0.64077  -0.62800  -0.62457  -0.60773  -0.59634
 Alpha  occ. eigenvalues --   -0.59578  -0.59461  -0.59123  -0.58976  -0.58613
 Alpha  occ. eigenvalues --   -0.58547  -0.57990  -0.57748  -0.57448  -0.57284
 Alpha  occ. eigenvalues --   -0.56626  -0.56314  -0.55646  -0.55313  -0.55313
 Alpha  occ. eigenvalues --   -0.54948  -0.54812  -0.54444  -0.53990  -0.53808
 Alpha  occ. eigenvalues --   -0.53522  -0.53227  -0.53149  -0.52704  -0.52579
 Alpha  occ. eigenvalues --   -0.52578  -0.52525  -0.52431  -0.52140  -0.52075
 Alpha  occ. eigenvalues --   -0.51755  -0.51718  -0.51623  -0.51298  -0.51025
 Alpha  occ. eigenvalues --   -0.51019  -0.50780  -0.50718  -0.50396  -0.50284
 Alpha  occ. eigenvalues --   -0.50187  -0.50070  -0.49966  -0.49687  -0.49621
 Alpha  occ. eigenvalues --   -0.49597  -0.49245  -0.49199  -0.49133  -0.48744
 Alpha  occ. eigenvalues --   -0.48618  -0.48506  -0.48430  -0.48401  -0.47996
 Alpha  occ. eigenvalues --   -0.47881  -0.47876  -0.47660  -0.47523  -0.47288
 Alpha  occ. eigenvalues --   -0.47162  -0.47010  -0.46934  -0.46724  -0.46545
 Alpha  occ. eigenvalues --   -0.46404  -0.46378  -0.46151  -0.46061  -0.45905
 Alpha  occ. eigenvalues --   -0.45660  -0.45257  -0.45218  -0.45047  -0.44939
 Alpha  occ. eigenvalues --   -0.44748  -0.44691  -0.44538  -0.44492  -0.44433
 Alpha  occ. eigenvalues --   -0.44273  -0.44059  -0.43948  -0.43678  -0.43645
 Alpha  occ. eigenvalues --   -0.43515  -0.43365  -0.43093  -0.43065  -0.42834
 Alpha  occ. eigenvalues --   -0.42694  -0.42665  -0.42596  -0.42475  -0.42329
 Alpha  occ. eigenvalues --   -0.42177  -0.41921  -0.41556  -0.41411  -0.41100
 Alpha  occ. eigenvalues --   -0.41058  -0.40957  -0.40799  -0.40443  -0.40362
 Alpha  occ. eigenvalues --   -0.40048  -0.39788  -0.39717  -0.38794  -0.38636
 Alpha  occ. eigenvalues --   -0.38260  -0.38166  -0.37708  -0.37611  -0.37400
 Alpha  occ. eigenvalues --   -0.37049  -0.36894  -0.36671  -0.36450  -0.36293
 Alpha  occ. eigenvalues --   -0.36210  -0.35587  -0.34766  -0.34244  -0.34223
 Alpha  occ. eigenvalues --   -0.33828  -0.33262  -0.32791  -0.32250  -0.31568
 Alpha  occ. eigenvalues --   -0.31375  -0.31234  -0.30883  -0.30200  -0.29949
 Alpha  occ. eigenvalues --   -0.29668  -0.29248  -0.29155  -0.24299  -0.24106
 Alpha  occ. eigenvalues --   -0.21152  -0.21041
 Alpha virt. eigenvalues --   -0.08766  -0.08567  -0.01681  -0.01631   0.00408
 Alpha virt. eigenvalues --    0.00537   0.01349   0.02181   0.02831   0.03429
 Alpha virt. eigenvalues --    0.04592   0.04689   0.05583   0.05854   0.05901

 Mulliken charges:
               1
     1  Mg  12.001228
     2  C    5.987619
     3  C    6.028585
     4  C    6.013855
     5  C    5.971199
     6  N    7.009070
     7  C    6.028869
     8  C    5.986014
     9  C    6.012403
    10  C    5.957167
    11  C    6.001454
    12  C    5.998349
    13  C    5.995662
    14  H    1.011493
    15  N    7.010233
    16  C    5.941472
    17  C    5.991155
    18  C    5.977553
    19  C    5.964817
    20  C    6.007319
    21  C    5.987565
    22  O    7.979109
    23  C    6.003930
    24  N    6.985103
    25  C    5.974242
    26  C    6.008823
    27  C    5.991357
    28  C    6.039277
    29  C    6.001381
    30  C    5.997673
    31  C    5.999050
    32  N    6.997212
    33  C    6.049428
    34  C    6.019924
    35  C    6.012204
    36  C    6.027891
    37  C    5.997247
    38  C    6.017252
    39  O    8.031162
    40  C    6.002568
    41  C    6.005520
    42  O    8.005111
    43  O    8.003201
    44  C    5.996792
    45  H    0.991420
    46  H    0.992162
    47  H    1.006769
    48  H    1.002763
    49  H    0.995968
    50  H    0.996775
    51  H    0.985651
    52  H    1.004417
    53  H    1.012469
    54  H    0.990668
    55  H    0.996669
    56  H    1.004159
    57  H    0.980645
    58  H    0.983171
    59  H    0.980990
    60  H    0.987901
    61  H    0.986736
    62  H    0.991603
    63  H    0.997586
    64  H    1.000907
    65  H    1.000147
    66  H    1.004001
    67  H    0.989119
    68  H    0.994867
    69  H    1.009063
    70  H    0.996366
    71  H    1.004260
    72  H    1.003379
    73  H    1.013764
    74  H    1.023063
    75  H    1.018909
    76  H    1.010455
    77  H    1.006451
    78  H    1.003075
    79  H    1.005114
    80  Mg  11.999979
    81  C    6.000281
    82  C    5.999939
    83  C    5.999756
    84  C    6.000077
    85  N    7.000147
    86  C    5.999677
    87  C    6.000019
    88  C    5.999976
    89  C    6.000174
    90  C    5.999957
    91  C    6.000015
    92  C    6.000026
    93  H    0.999948
    94  N    6.999932
    95  C    6.000313
    96  C    6.000208
    97  C    6.000114
    98  C    6.000356
    99  C    5.999909
   100  C    6.000131
   101  O    8.000247
   102  C    5.999916
   103  N    6.999932
   104  C    6.000308
   105  C    5.999900
   106  C    6.000092
   107  C    5.999774
   108  C    5.999944
   109  C    6.000063
   110  C    6.000011
   111  N    6.999978
   112  C    5.999689
   113  C    5.999775
   114  C    5.999959
   115  C    5.999728
   116  C    6.000023
   117  C    5.999807
   118  O    7.999655
   119  C    5.999976
   120  C    5.999967
   121  O    7.999970
   122  O    7.999980
   123  C    6.000030
   124  H    1.000135
   125  H    1.000059
   126  H    0.999850
   127  H    1.000018
   128  H    1.000023
   129  H    1.000114
   130  H    0.999989
   131  H    1.000045
   132  H    0.999910
   133  H    1.000054
   134  H    0.999957
   135  H    0.999993
   136  H    1.000182
   137  H    1.000158
   138  H    1.000202
   139  H    1.000149
   140  H    1.000081
   141  H    1.000091
   142  H    1.000037
   143  H    0.999987
   144  H    1.000051
   145  H    0.999970
   146  H    1.000107
   147  H    0.999987
   148  H    0.999908
   149  H    0.999996
   150  H    1.000002
   151  H    0.999961
   152  H    0.999828
   153  H    0.999883
   154  H    0.999843
   155  H    0.999915
   156  H    0.999975
   157  H    0.999967
   158  H    0.999916
 Sum of Mulliken charges = 624.00000

 Dipole moment (field-independent basis, Debye):
    X=             -6.7218    Y=             -6.1489    Z=              6.3173  Tot=             11.0860
 Quadrupole moment (field-independent basis, Debye-Ang):
   XX=           -324.4893   YY=             -0.1116   ZZ=             -2.3834
   XY=           -154.9370   XZ=            161.2083   YZ=              1.7679

 Normal termination of Gaussian 16 at Wed Sep 22 06:44:09 2021.
