 Gaussian 16, Revision A.03,
 Gaussian 16:  ES64L-G16RevA.03 25-Dec-2016

 -----------------------------------
 #p cam-b3lyp/Def2SVP td=(nstates=5)
 -----------------------------------

 --------------------------------
 TDDFT excited states in gaussian
 --------------------------------
 Symbolic Z-matrix:
 Charge =  0 Multiplicity = 1

                         Standard orientation:
 ---------------------------------------------------------------------
 Center     Atomic      Atomic             Coordinates (Angstroms)
 Number     Number       Type             X           Y           Z
 ---------------------------------------------------------------------
      1         12           0       13.298491    0.490037   -0.104322
      2          6           0       11.423923   -1.839609    1.509445
      3          6           0       14.944075   -1.852123   -2.030305
      4          6           0       15.210344    2.992810   -1.447568
      5          6           0       11.969674    2.985061    2.153993
      6          7           0       13.327816   -1.603212   -0.077884
      7          6           0       12.269528   -2.383870    0.496994
      8          6           0       12.261983   -3.752343   -0.057052
      9          6           0       13.645195   -3.776880   -0.849724
     10          6           0       14.042816   -2.327662   -1.020768
     11          6           0       14.799029   -4.599444   -0.085364
     12          6           0       10.957599   -4.142093   -0.818138
     13          6           0       10.412396   -5.496476   -0.497405
     14          1           0       11.477185   -6.648913   -0.315754
     15          7           0       14.814785    0.567580   -1.596773
     16          6           0       15.319813   -0.534508   -2.220243
     17          6           0       16.296529   -0.087977   -3.153447
     18          6           0       16.359844    1.358957   -3.093493
     19          6           0       15.364402    1.753634   -2.041264
     20          6           0       17.163793   -1.071035   -3.969820
     21          6           0       17.137912    2.382117   -3.860370
     22          8           0       17.204614    3.601127   -3.666398
     23          6           0       17.931244    1.825905   -5.102818
     24          7           0       13.648929    2.719005    0.366051
     25          6           0       14.389596    3.488318   -0.392289
     26          6           0       14.166123    4.972784   -0.111118
     27          6           0       13.125339    4.948524    1.044554
     28          6           0       12.899707    3.448819    1.226163
     29          6           0       15.513079    5.766431    0.284748
     30          6           0       11.811954    5.711332    0.566676
     31          6           0       10.921718    5.137820   -0.563403
     32          7           0       12.088138    0.554333    1.616757
     33          6           0       11.618372    1.624357    2.354715
     34          6           0       10.599552    1.079243    3.274850
     35          6           0       10.437123   -0.249772    3.022114
     36          6           0       11.394687   -0.521197    1.978537
     37          6           0        9.991092    1.848171    4.396595
     38          6           0        9.730608   -1.482167    3.370748
     39          8           0        8.872925   -1.707227    4.208101
     40          6           0       10.375082   -2.553978    2.386253
     41          6           0       11.054290   -3.561985    3.225455
     42          8           0       11.936332   -3.376471    4.081935
     43          8           0       10.476337   -4.756903    2.847312
     44          6           0       11.119200   -5.949030    3.415472
     45          1           0       15.449148   -2.555727   -2.695138
     46          1           0       15.766732    3.753567   -2.000241
     47          1           0       11.500028    3.735999    2.791745
     48          1           0       12.312446   -4.397708    0.820825
     49          1           0       13.460330   -4.215747   -1.829723
     50          1           0       14.425162   -5.228345    0.722601
     51          1           0       15.398064   -3.856382    0.440866
     52          1           0       15.341103   -5.084017   -0.896366
     53          1           0       11.138460   -4.116611   -1.892765
     54          1           0       10.254497   -3.376187   -0.491127
     55          1           0        9.785340   -5.902375   -1.290249
     56          1           0        9.741553   -5.656868    0.346712
     57          1           0       16.671474   -1.547614   -4.817440
     58          1           0       17.502510   -1.769402   -3.204720
     59          1           0       17.986914   -0.581324   -4.489722
     60          1           0       18.796519    1.266402   -4.747264
     61          1           0       18.075518    2.647816   -5.803828
     62          1           0       17.338604    1.170867   -5.741742
     63          1           0       13.712481    5.426128   -0.992153
     64          1           0       13.474120    5.432430    1.956898
     65          1           0       15.768334    6.370908   -0.586367
     66          1           0       16.322899    5.060987    0.473665
     67          1           0       15.499360    6.474833    1.112064
     68          1           0       11.957031    6.759078    0.303964
     69          1           0       11.198009    5.643183    1.465335
     70          1           0        9.990162    4.920973   -0.040456
     71          1           0       11.363494    4.267102   -1.046326
     72          1           0       10.728436    5.840830   -1.373629
     73          1           0        8.992050    1.418408    4.462714
     74          1           0        9.964967    2.921977    4.210303
     75          1           0       10.445151    1.486812    5.318356
     76          1           0        9.461539   -2.982869    1.975287
     77          1           0       10.448018   -6.744635    3.090714
     78          1           0       11.029054   -5.847927    4.497027
     79          1           0       12.181974   -6.062869    3.200811
     80         12           0      -13.592216    0.481817    0.235352
     81          6           0      -11.112941   -1.809846   -0.821001
     82          6           0      -15.805814   -1.881840   -0.299713
     83          6           0      -15.822811    2.922197    0.203522
     84          6           0      -11.045835    2.951780    0.026536
     85          7           0      -13.347794   -1.697238   -0.333378
     86          6           0      -12.326159   -2.418558   -0.620176
     87          6           0      -12.703532   -3.913546   -0.665901
     88          6           0      -14.286120   -3.877516   -0.975170
     89          6           0      -14.523199   -2.359341   -0.585152
     90          6           0      -14.725040   -4.212328   -2.455520
     91          6           0      -12.450671   -4.612803    0.770061
     92          6           0      -12.018828   -6.112525    0.856521
     93          1           0      -12.506467   -7.044472   -0.313323
     94          7           0      -15.569842    0.499118    0.195043
     95          6           0      -16.321428   -0.652719    0.017451
     96          6           0      -17.778301   -0.275932    0.059924
     97          6           0      -17.765423    1.169039    0.249023
     98          6           0      -16.387585    1.667507    0.225872
     99          6           0      -18.865891   -1.315966   -0.132153
    100          6           0      -18.963877    2.071555    0.443756
    101          8           0      -18.906045    3.303750    0.558440
    102          6           0      -20.302128    1.459496    0.543517
    103          7           0      -13.443000    2.711139    0.233437
    104          6           0      -14.546216    3.434814    0.173466
    105          6           0      -14.217600    4.959297    0.499683
    106          6           0      -12.596819    4.924083    0.405255
    107          6           0      -12.338681    3.427971    0.248150
    108          6           0      -14.931803    5.978560   -0.448265
    109          6           0      -11.778383    5.528388    1.593121
    110          6           0      -11.010295    6.796030    1.320067
    111          7           0      -11.432673    0.586219   -0.076124
    112          6           0      -10.591904    1.680518   -0.120909
    113          6           0       -9.304074    1.282277   -0.510870
    114          6           0       -9.478005   -0.076535   -0.835167
    115          6           0      -10.771510   -0.479520   -0.601593
    116          6           0       -8.115056    2.093999   -0.639499
    117          6           0       -8.724621   -1.199431   -1.239753
    118          8           0       -7.506044   -1.441537   -1.455703
    119          6           0       -9.826468   -2.319901   -1.510873
    120          6           0       -9.354051   -3.637554   -1.015941
    121          8           0       -9.098611   -3.962013    0.141902
    122          8           0       -9.353794   -4.530387   -2.133723
    123          6           0       -8.908917   -5.908380   -1.889591
    124          1           0      -16.486708   -2.734174   -0.356431
    125          1           0      -16.573644    3.712654    0.254437
    126          1           0      -10.254800    3.705308    0.042116
    127          1           0      -12.285496   -4.318531   -1.587128
    128          1           0      -14.763168   -4.667066   -0.395549
    129          1           0      -13.878445   -4.210414   -3.141748
    130          1           0      -15.403123   -3.457791   -2.853855
    131          1           0      -15.175466   -5.203902   -2.412211
    132          1           0      -13.311742   -4.477555    1.424744
    133          1           0      -11.698714   -4.027108    1.299226
    134          1           0      -12.346713   -6.611724    1.768895
    135          1           0      -10.943567   -6.135905    0.675105
    136          1           0      -19.673084   -1.205370    0.592832
    137          1           0      -18.495194   -2.339606   -0.078367
    138          1           0      -19.194528   -1.304306   -1.171072
    139          1           0      -20.536154    0.877631   -0.348426
    140          1           0      -21.054085    2.236446    0.681721
    141          1           0      -20.457337    0.801733    1.398715
    142          1           0      -14.448615    5.227609    1.530512
    143          1           0      -12.233391    5.295277   -0.554125
    144          1           0      -15.459944    5.451670   -1.243173
    145          1           0      -14.094508    6.623045   -0.716753
    146          1           0      -15.564984    6.601152    0.182517
    147          1           0      -11.047266    4.778368    1.895655
    148          1           0      -12.439860    5.685889    2.445263
    149          1           0      -11.361303    7.091183    0.332129
    150          1           0       -9.955040    6.532772    1.238966
    151          1           0      -11.238548    7.600381    2.018271
    152          1           0       -8.002665    2.634759    0.299829
    153          1           0       -8.190788    2.949901   -1.310230
    154          1           0       -7.248853    1.451966   -0.800538
    155          1           0      -10.003964   -2.366036   -2.585809
    156          1           0       -8.864900   -6.470737   -2.822651
    157          1           0       -9.692727   -6.431457   -1.341433
    158          1           0       -7.904222   -5.890353   -1.468580
 ---------------------------------------------------------------------

 SCF Done:  E(RCAM-B3LYP) =  -4069.77394463     A.U. after   19 cycles

 Excitation energies and oscillator strengths:

 Excited State   1:      Singlet-A      1.6987 eV  729.86 nm  f=0.3968  <S**2>=0.000
     309 -> 316        0.18618
     312 -> 314        0.68394
     309 <- 316        0.10902
 This state for optimization and/or second-order correction.
 Total Energy, E(TD-HF/TD-DFT) =  -4069.71151723
 Copying the excited state density for this state as the 1-particle RhoCI density.

 Excited State   2:      Singlet-A      1.7997 eV  688.91 nm  f=0.3574  <S**2>=0.000
     310 -> 315       -0.21217
     311 -> 313        0.67479
     310 <- 315       -0.10952

 Excited State   3:      Singlet-A      2.2245 eV  557.37 nm  f=0.0790  <S**2>=0.000
     310 -> 313        0.62928
     311 -> 315        0.30801

 Excited State   4:      Singlet-A      2.2663 eV  547.07 nm  f=0.0456  <S**2>=0.000
     309 -> 314        0.60929
     312 -> 316       -0.34925

 Excited State   5:      Singlet-A      2.9795 eV  416.13 nm  f=0.0000  <S**2>=0.000
     312 -> 313        0.70704

 The electronic state is 1-A.
 Alpha  occ. eigenvalues --  -46.89398 -46.89176 -19.25564 -19.23952 -19.20225
 Alpha  occ. eigenvalues --  -19.20172 -19.19465 -19.19434 -19.19005 -19.18459
 Alpha  occ. eigenvalues --  -14.42216 -14.42158 -14.42120 -14.41729 -14.39979
 Alpha  occ. eigenvalues --  -14.39425 -14.39409 -14.38573 -10.39434 -10.39300
 Alpha  occ. eigenvalues --  -10.35642 -10.35320 -10.35132 -10.34495 -10.31903
 Alpha  occ. eigenvalues --  -10.31746 -10.31698 -10.31530 -10.31101 -10.30971
 Alpha  occ. eigenvalues --  -10.30795 -10.30758 -10.30715 -10.30626 -10.30315
 Alpha  occ. eigenvalues --  -10.30261 -10.30255 -10.30106 -10.29818 -10.29517
 Alpha  occ. eigenvalues --  -10.29336 -10.29163 -10.28988 -10.28742 -10.28669
 Alpha  occ. eigenvalues --  -10.28653 -10.28578 -10.28399 -10.28392 -10.28313
 Alpha  occ. eigenvalues --  -10.28256 -10.28254 -10.28042 -10.28019 -10.27846
 Alpha  occ. eigenvalues --  -10.27805 -10.27768 -10.27690 -10.27602 -10.27547
 Alpha  occ. eigenvalues --  -10.27508 -10.27495 -10.27475 -10.27466 -10.27427
 Alpha  occ. eigenvalues --  -10.27350 -10.27304 -10.27278 -10.26982 -10.26516
 Alpha  occ. eigenvalues --  -10.26422 -10.26388 -10.26387 -10.26232 -10.26154
 Alpha  occ. eigenvalues --  -10.26033 -10.25913 -10.25834 -10.25820 -10.25791
 Alpha  occ. eigenvalues --  -10.25783 -10.25489 -10.25416 -10.25409 -10.24653
 Alpha  occ. eigenvalues --  -10.24648  -3.17852  -3.17580  -1.92755  -1.92483
 Alpha  occ. eigenvalues --   -1.92318  -1.92138  -1.92024  -1.91881  -1.15876
 Alpha  occ. eigenvalues --   -1.13975  -1.10108  -1.09542  -1.09428  -1.07387
 Alpha  occ. eigenvalues --   -1.07295  -1.06734  -1.05789  -1.05217  -1.05055
 Alpha  occ. eigenvalues --   -1.03702  -1.03495  -1.02818  -1.01637  -1.01476
 Alpha  occ. eigenvalues --   -0.92964  -0.92296  -0.89504  -0.89025  -0.88714
 Alpha  occ. eigenvalues --   -0.88617  -0.87936  -0.87905  -0.87558  -0.87383
 Alpha  occ. eigenvalues --   -0.87201  -0.86916  -0.86838  -0.86178  -0.84571
 Alpha  occ. eigenvalues --   -0.84280  -0.83980  -0.83297  -0.82731  -0.82343
 Alpha  occ. eigenvalues --   -0.82066  -0.81517  -0.81459  -0.81136  -0.80677
 Alpha  occ. eigenvalues --   -0.79898  -0.78975  -0.78015  -0.77720  -0.77281
 Alpha  occ. eigenvalues --   -0.77130  -0.76977  -0.75898  -0.75726  -0.75245
 Alpha  occ. eigenvalues --   -0.74907  -0.73230  -0.72393  -0.72263  -0.72104
 Alpha  occ. eigenvalues --   -0.69798  -0.69185  -0.68938  -0.68600  -0.68267
 Alpha  occ. eigenvalues --   -0.67932  -0.67359  -0.67233  -0.65931  -0.65667
 Alpha  occ. eigenvalues --   -0.65602  -0.65161  -0.64921  -0.64633  -0.64607
 Alpha  occ. eigenvalues --   -0.64317  -0.62455  -0.61265  -0.60543  -0.60229
 Alpha  occ. eigenvalues --   -0.60153  -0.59342  -0.59295  -0.58841  -0.58703
 Alpha  occ. eigenvalues --   -0.58354  -0.57893  -0.57748  -0.57411  -0.57345
 Alpha  occ. eigenvalues --   -0.57003  -0.55852  -0.55774  -0.55488  -0.55459
 Alpha  occ. eigenvalues --   -0.54986  -0.54807  -0.54456  -0.54345  -0.53801
 Alpha  occ. eigenvalues --   -0.53539  -0.53459  -0.53226  -0.53116  -0.53076
 Alpha  occ. eigenvalues --   -0.52972  -0.52613  -0.52479  -0.52321  -0.52248
 Alpha  occ. eigenvalues --   -0.52211  -0.52064  -0.51873  -0.51561  -0.51425
 Alpha  occ. eigenvalues --   -0.51117  -0.50980  -0.50924  -0.50817  -0.50557
 Alpha  occ. eigenvalues --   -0.50354  -0.49874  -0.49778  -0.49575  -0.49567
 Alpha  occ. eigenvalues --   -0.49253  -0.49209  -0.48848  -0.48794  -0.48673
 Alpha  occ. eigenvalues --   -0.48514  -0.48449  -0.48393  -0.48388  -0.48053
 Alpha  occ. eigenvalues --   -0.48047  -0.47817  -0.47629  -0.47622  -0.47320
 Alpha  occ. eigenvalues --   -0.47308  -0.47165  -0.47039  -0.46799  -0.46775
 Alpha  occ. eigenvalues --   -0.46673  -0.46308  -0.46111  -0.46069  -0.45795
 Alpha  occ. eigenvalues --   -0.45592  -0.45543  -0.45347  -0.45112  -0.44919
 Alpha  occ. eigenvalues --   -0.44698  -0.44451  -0.44234  -0.43936  -0.43918
 Alpha  occ. eigenvalues --   -0.43829  -0.43565  -0.43386  -0.43343  -0.43147
 Alpha  occ. eigenvalues --   -0.42995  -0.42916  -0.42832  -0.42692  -0.42614
 Alpha  occ. eigenvalues --   -0.42241  -0.42061  -0.42030  -0.41943  -0.41861
 Alpha  occ. eigenvalues --   -0.41695  -0.41617  -0.41587  -0.41455  -0.41182
 Alpha  occ. eigenvalues --   -0.41065  -0.40760  -0.40662  -0.40653  -0.40466
 Alpha  occ. eigenvalues --   -0.40296  -0.40061  -0.39718  -0.39438  -0.39036
 Alpha  occ. eigenvalues --   -0.38494  -0.37837  -0.37799  -0.37416  -0.37405
 Alpha  occ. eigenvalues --   -0.37067  -0.36643  -0.36454  -0.36314  -0.36178
 Alpha  occ. eigenvalues --   -0.36115  -0.35645  -0.34584  -0.34483  -0.34135
 Alpha  occ. eigenvalues --   -0.33908  -0.33555  -0.33403  -0.31801  -0.31301
 Alpha  occ. eigenvalues --   -0.31140  -0.31026  -0.30919  -0.30510  -0.30299
 Alpha  occ. eigenvalues --   -0.30253  -0.29807  -0.29300  -0.24334  -0.24166
 Alpha  occ. eigenvalues --   -0.21678  -0.20879
 Alpha virt. eigenvalues --   -0.08619  -0.08411  -0.02655  -0.02280  -0.00242
 Alpha virt. eigenvalues --   -0.00166   0.02032   0.02251   0.02252   0.02322
 Alpha virt. eigenvalues --    0.04574   0.04819   0.05029   0.05502   0.05518

 Mulliken charges:
               1
     1  Mg   0.798480
     2  C    0.018754
     3  C   -0.098293
     4  C   -0.026669
     5  C   -0.072666
     6  N   -0.371575
     7  C   -0.042026
     8  C   -0.004796
     9  C   -0.083327
    10  C    0.109705
    11  C    0.079503
    12  C    0.115759
    13  C   -0.087212
    14  H   -0.013184
    15  N   -0.377580
    16  C    0.154326
    17  C   -0.133091
    18  C   -0.038318
    19  C    0.104463
    20  C    0.104489
    21  C    0.019073
    22  O   -0.205767
    23  C    0.005677
    24  N   -0.192977
    25  C   -0.005943
    26  C   -0.021439
    27  C    0.004532
    28  C    0.005388
    29  C    0.043669
    30  C   -0.019999
    31  C   -0.000264
    32  N   -0.317304
    33  C    0.124343
    34  C   -0.222685
    35  C    0.035593
    36  C    0.083062
    37  C    0.127625
    38  C    0.060254
    39  O   -0.156447
    40  C   -0.043942
    41  C    0.209632
    42  O   -0.230450
    43  O   -0.341535
    44  C    0.182884
    45  H   -0.025499
    46  H   -0.002826
    47  H   -0.021332
    48  H    0.011622
    49  H    0.000565
    50  H    0.022046
    51  H    0.023795
    52  H    0.028280
    53  H    0.014448
    54  H    0.017478
    55  H    0.020586
    56  H    0.040458
    57  H    0.031498
    58  H    0.040532
    59  H   -0.006328
    60  H    0.058986
    61  H    0.025721
    62  H    0.020798
    63  H    0.023695
    64  H    0.011143
    65  H    0.021293
    66  H    0.027382
    67  H    0.018892
    68  H    0.016187
    69  H   -0.003139
    70  H    0.022660
    71  H    0.020566
    72  H    0.015674
    73  H    0.023797
    74  H    0.018810
    75  H    0.042503
    76  H    0.039653
    77  H    0.041045
    78  H    0.037693
    79  H    0.041594
    80  Mg   0.815729
    81  C    0.016316
    82  C   -0.078636
    83  C   -0.039514
    84  C   -0.091674
    85  N   -0.224067
    86  C   -0.122372
    87  C    0.024828
    88  C   -0.108499
    89  C    0.025544
    90  C    0.065600
    91  C    0.060397
    92  C   -0.072435
    93  H   -0.016706
    94  N   -0.489179
    95  C    0.213737
    96  C   -0.139462
    97  C   -0.019706
    98  C    0.151520
    99  C    0.115736
   100  C    0.006973
   101  O   -0.211187
   102  C    0.033116
   103  N   -0.209867
   104  C    0.015566
   105  C   -0.071792
   106  C   -0.031130
   107  C   -0.009413
   108  C    0.089609
   109  C    0.026560
   110  C    0.020985
   111  N   -0.334506
   112  C    0.141068
   113  C   -0.143412
   114  C    0.021167
   115  C    0.107322
   116  C    0.141203
   117  C    0.060052
   118  O   -0.216322
   119  C   -0.028776
   120  C    0.225849
   121  O   -0.218345
   122  O   -0.379575
   123  C    0.184914
   124  H   -0.030798
   125  H   -0.007174
   126  H   -0.039810
   127  H    0.000384
   128  H    0.019274
   129  H    0.015621
   130  H    0.018111
   131  H    0.022257
   132  H    0.004610
   133  H    0.033130
   134  H    0.042245
   135  H    0.060447
   136  H    0.034373
   137  H    0.008028
   138  H    0.037051
   139  H    0.032508
   140  H    0.024243
   141  H    0.038707
   142  H    0.021692
   143  H    0.009399
   144  H    0.040230
   145  H    0.007187
   146  H    0.016233
   147  H    0.010649
   148  H   -0.000206
   149  H    0.002827
   150  H    0.018946
   151  H    0.023666
   152  H    0.007467
   153  H    0.021687
   154  H    0.047056
   155  H    0.051685
   156  H    0.024910
   157  H    0.027309
   158  H    0.048838
 Sum of Mulliken charges =  -0.00000

 Dipole moment (field-independent basis, Debye):
    X=             -4.3808    Y=             -2.0602    Z=             -3.9910  Tot=              6.2741
 Quadrupole moment (field-independent basis, Debye-Ang):
   XX=           -423.9796   YY=           -465.0429   ZZ=           -526.0826
   XY=              5.7613   XZ=            -44.2920   YZ=             27.6815

 Normal termination of Gaussian 16 at Tue Sep 14 15:37:28 2021.
