 Gaussian 16, Revision A.03,
 Gaussian 16:  ES64L-G16RevA.03 25-Dec-2016

 ----------------------------------------------------------
 #p cam-b3lyp/Def2SVP td=(nstates=5) density=(transition=1)
 ----------------------------------------------------------

 --------------------------------
 TDDFT excited states in gaussian
 --------------------------------
 Symbolic Z-matrix:
 Charge =  0 Multiplicity = 1

                         Standard orientation:
 ---------------------------------------------------------------------
 Center     Atomic      Atomic             Coordinates (Angstroms)
 Number     Number       Type             X           Y           Z
 ---------------------------------------------------------------------
      1         12           0      -23.795494    0.591606    0.197133
      2          6           0      -22.670843   -2.363684   -1.312459
      3          6           0      -21.624923    2.388233   -1.946869
      4          6           0      -24.600803    3.436014    1.867553
      5          6           0      -25.272418   -1.313700    2.668880
      6          7           0      -22.486263    0.049515   -1.506970
      7          6           0      -22.349367   -1.239089   -2.031141
      8          6           0      -21.742553   -1.144517   -3.477343
      9          6           0      -21.354989    0.335238   -3.579591
     10          6           0      -21.810620    0.979694   -2.224036
     11          6           0      -19.825334    0.480109   -3.801857
     12          6           0      -22.782265   -1.641285   -4.474448
     13          6           0      -22.289427   -2.252560   -5.775848
     14          1           0      -20.805894   -2.054882   -6.161133
     15          7           0      -23.235910    2.643120    0.019378
     16          6           0      -22.310734    3.167527   -0.903181
     17          6           0      -22.144516    4.596510   -0.703729
     18          6           0      -23.045128    4.991765    0.362245
     19          6           0      -23.656954    3.666850    0.807539
     20          6           0      -21.315177    5.506754   -1.618547
     21          6           0      -23.352693    6.356581    0.947839
     22          8           0      -24.174699    6.471821    1.847133
     23          6           0      -22.806812    7.556732    0.274481
     24          7           0      -24.869471    0.974324    1.998868
     25          6           0      -25.139933    2.241877    2.417877
     26          6           0      -26.131505    2.198538    3.609907
     27          6           0      -26.412854    0.663504    3.843287
     28          6           0      -25.563320    0.028637    2.712055
     29          6           0      -25.530771    2.915069    4.832535
     30          6           0      -27.897545    0.239816    3.687418
     31          6           0      -28.517656    0.068584    5.070696
     32          7           0      -23.903474   -1.427023    0.736691
     33          6           0      -24.460751   -2.080994    1.784425
     34          6           0      -24.012554   -3.493033    1.713484
     35          6           0      -23.418641   -3.676535    0.499174
     36          6           0      -23.338382   -2.365895   -0.036905
     37          6           0      -24.406695   -4.505105    2.776074
     38          6           0      -22.834440   -4.636645   -0.446787
     39          8           0      -22.670730   -5.844303   -0.321876
     40          6           0      -22.429432   -3.813977   -1.654661
     41          6           0      -21.032629   -4.184378   -1.931911
     42          8           0      -19.985109   -3.833143   -1.372382
     43          8           0      -21.047005   -5.117062   -2.948742
     44          6           0      -19.770085   -5.674665   -3.338208
     45          1           0      -21.006963    2.912920   -2.678192
     46          1           0      -24.889425    4.405558    2.278899
     47          1           0      -25.689545   -1.836245    3.532336
     48          1           0      -20.881000   -1.804717   -3.370451
     49          1           0      -21.787581    0.690814   -4.514703
     50          1           0      -19.277082    0.905777   -2.961252
     51          1           0      -19.701688    1.293672   -4.516087
     52          1           0      -19.351935   -0.471403   -4.043192
     53          1           0      -23.436893   -0.782410   -4.625515
     54          1           0      -23.436341   -2.353853   -3.973304
     55          1           0      -22.928670   -1.904763   -6.586206
     56          1           0      -22.517218   -3.306257   -5.611015
     57          1           0      -20.719372    4.968462   -2.355922
     58          1           0      -20.628474    6.106873   -1.020064
     59          1           0      -21.980599    6.240111   -2.072539
     60          1           0      -23.254070    7.631162   -0.717054
     61          1           0      -21.720521    7.592816    0.356420
     62          1           0      -23.137354    8.476812    0.756552
     63          1           0      -27.014848    2.767857    3.321539
     64          1           0      -25.959538    0.437272    4.809276
     65          1           0      -25.444444    2.329914    5.747633
     66          1           0      -26.305867    3.665293    4.987565
     67          1           0      -24.511918    3.275179    4.692635
     68          1           0      -27.960343   -0.787291    3.327523
     69          1           0      -28.494356    0.936909    3.098912
     70          1           0      -29.462802    0.606060    4.995295
     71          1           0      -28.002992    0.611901    5.862808
     72          1           0      -28.685706   -0.961901    5.384918
     73          1           0      -24.829669   -4.083057    3.688073
     74          1           0      -23.578503   -5.149041    3.069407
     75          1           0      -25.260583   -5.072160    2.403692
     76          1           0      -23.095424   -4.081433   -2.474397
     77          1           0      -19.273781   -6.023522   -2.432262
     78          1           0      -19.116653   -4.959520   -3.838383
     79          1           0      -20.017024   -6.639675   -3.779485
     80         12           0       23.950961    0.274849   -0.184088
     81          6           0       21.627350   -2.223654    0.469706
     82          6           0       21.292999    1.986782   -1.862205
     83          6           0       25.881195    2.921998   -0.452573
     84          6           0       26.135399   -1.262313    2.101319
     85          7           0       21.703786   -0.042840   -0.522594
     86          6           0       21.039404   -1.210517   -0.221092
     87          6           0       19.574878   -1.110710   -0.656377
     88          6           0       19.614394    0.107528   -1.619997
     89          6           0       20.930274    0.769064   -1.305141
     90          6           0       19.498245   -0.155086   -3.172838
     91          6           0       18.606005   -0.927293    0.523307
     92          6           0       17.165474   -0.994180    0.186342
     93          1           0       16.169233   -1.341940    1.357521
     94          7           0       23.644429    2.227841   -1.035523
     95          6           0       22.505778    2.717910   -1.693858
     96          6           0       22.787025    4.056665   -2.131736
     97          6           0       24.086080    4.403685   -1.606240
     98          6           0       24.613487    3.129535   -1.006437
     99          6           0       21.743809    4.941406   -2.868506
    100          6           0       24.705615    5.793747   -1.782014
    101          8           0       24.199889    6.638920   -2.501692
    102          6           0       25.959770    6.116772   -1.063517
    103          7           0       25.851897    0.641546    0.536908
    104          6           0       26.444515    1.803559    0.241944
    105          6           0       27.804941    1.926788    1.040573
    106          6           0       27.906785    0.624313    1.923969
    107          6           0       26.481764   -0.055739    1.538245
    108          6           0       29.086669    2.249836    0.228498
    109          6           0       27.977051    0.997565    3.420213
    110          6           0       28.744521    0.007668    4.304966
    111          7           0       23.965324   -1.406077    1.074412
    112          6           0       24.945999   -1.974479    1.838168
    113          6           0       24.473452   -3.285331    2.299513
    114          6           0       23.245523   -3.444340    1.715317
    115          6           0       22.933113   -2.284170    1.043712
    116          6           0       25.277198   -4.294609    3.125772
    117          6           0       22.123021   -4.328019    1.616659
    118          8           0       21.924992   -5.436346    2.049991
    119          6           0       21.028307   -3.575530    0.788767
    120          6           0       20.814945   -4.339440   -0.471140
    121          8           0       21.654682   -4.734345   -1.231628
    122          8           0       19.433366   -4.413198   -0.719588
    123          6           0       19.057038   -5.053742   -1.947604
    124          1           0       20.450663    2.383474   -2.431971
    125          1           0       26.636451    3.710921   -0.476266
    126          1           0       26.818609   -1.802193    2.760455
    127          1           0       19.381926   -2.001891   -1.252055
    128          1           0       18.885998    0.893577   -1.423923
    129          1           0       18.703261    0.518085   -3.492978
    130          1           0       19.563939   -1.185987   -3.521763
    131          1           0       20.395988    0.269818   -3.621614
    132          1           0       18.641906    0.044859    1.015718
    133          1           0       18.827172   -1.659464    1.299989
    134          1           0       17.066015   -1.733765   -0.608153
    135          1           0       16.865933   -0.048498   -0.265055
    136          1           0       21.497360    5.585791   -2.024025
    137          1           0       20.796087    4.460703   -3.111941
    138          1           0       21.976048    5.537446   -3.751252
    139          1           0       25.769861    5.814307   -0.033694
    140          1           0       26.090768    7.198965   -1.071264
    141          1           0       26.707987    5.514997   -1.579991
    142          1           0       27.679555    2.793196    1.690584
    143          1           0       28.715463   -0.055374    1.657222
    144          1           0       29.357882    3.287135    0.427416
    145          1           0       28.903499    2.008324   -0.817983
    146          1           0       29.926130    1.678128    0.624116
    147          1           0       26.936853    1.074277    3.735740
    148          1           0       28.356878    2.001482    3.610959
    149          1           0       29.515134    0.633700    4.756094
    150          1           0       29.130591   -0.866012    3.779712
    151          1           0       28.109885   -0.341466    5.119577
    152          1           0       24.749949   -4.775964    3.948762
    153          1           0       26.114940   -3.685267    3.465702
    154          1           0       25.754834   -4.957609    2.404216
    155          1           0       20.130417   -3.568339    1.406819
    156          1           0       18.605470   -6.006293   -1.670261
    157          1           0       19.813640   -5.234658   -2.711475
    158          1           0       18.322198   -4.412574   -2.433693
 ---------------------------------------------------------------------

 SCF Done:  E(RCAM-B3LYP) =  -4069.80996981     A.U. after   19 cycles

 Excitation energies and oscillator strengths:

 Excited State   1:      Singlet-A      1.6782 eV  738.81 nm  f=0.3917  <S**2>=0.000
     310 -> 316        0.17298
     312 -> 314        0.68712
     310 <- 316        0.10455
 This state for optimization and/or second-order correction.
 Total Energy, E(TD-HF/TD-DFT) =  -4069.74829834
 Copying the excited state density for this state as the 1-particle RhoCI density.

 Excited State   2:      Singlet-A      1.7654 eV  702.28 nm  f=0.3979  <S**2>=0.000
     309 -> 315       -0.17238
     311 -> 313        0.68747
     309 <- 315       -0.10344

 Excited State   3:      Singlet-A      2.1968 eV  564.39 nm  f=0.1209  <S**2>=0.000
     310 -> 314        0.64517
     312 -> 316       -0.27390

 Excited State   4:      Singlet-A      2.2942 eV  540.42 nm  f=0.1179  <S**2>=0.000
     309 -> 313        0.63734
     311 -> 315        0.29069

 Excited State   5:      Singlet-A      3.0395 eV  407.91 nm  f=0.0000  <S**2>=0.000
     312 -> 313        0.70711

 The electronic state is 1-A.
 Alpha  occ. eigenvalues --  -46.89661 -46.89112 -19.24943 -19.24449 -19.20495
 Alpha  occ. eigenvalues --  -19.19787 -19.19291 -19.19201 -19.18693 -19.18526
 Alpha  occ. eigenvalues --  -14.42658 -14.42345 -14.42184 -14.41735 -14.40227
 Alpha  occ. eigenvalues --  -14.40114 -14.39197 -14.39095 -10.39505 -10.39356
 Alpha  occ. eigenvalues --  -10.35475 -10.35397 -10.34861 -10.34153 -10.32361
 Alpha  occ. eigenvalues --  -10.31987 -10.31594 -10.31222 -10.31200 -10.31177
 Alpha  occ. eigenvalues --  -10.31150 -10.31119 -10.31077 -10.30986 -10.30963
 Alpha  occ. eigenvalues --  -10.30644 -10.30562 -10.30079 -10.29543 -10.29533
 Alpha  occ. eigenvalues --  -10.29340 -10.29233 -10.29051 -10.28588 -10.28586
 Alpha  occ. eigenvalues --  -10.28398 -10.28348 -10.28248 -10.28231 -10.28187
 Alpha  occ. eigenvalues --  -10.28168 -10.28165 -10.28041 -10.27903 -10.27788
 Alpha  occ. eigenvalues --  -10.27771 -10.27765 -10.27746 -10.27742 -10.27664
 Alpha  occ. eigenvalues --  -10.27609 -10.27591 -10.27558 -10.27525 -10.27412
 Alpha  occ. eigenvalues --  -10.27393 -10.26921 -10.26799 -10.26789 -10.26537
 Alpha  occ. eigenvalues --  -10.26521 -10.26500 -10.26490 -10.26403 -10.26286
 Alpha  occ. eigenvalues --  -10.26241 -10.26222 -10.26078 -10.26058 -10.25626
 Alpha  occ. eigenvalues --  -10.25523 -10.25501 -10.25256 -10.25001 -10.24768
 Alpha  occ. eigenvalues --  -10.23984  -3.18082  -3.17509  -1.92989  -1.92540
 Alpha  occ. eigenvalues --   -1.92423  -1.92370  -1.91924  -1.91841  -1.16618
 Alpha  occ. eigenvalues --   -1.15787  -1.10454  -1.10336  -1.10119  -1.10004
 Alpha  occ. eigenvalues --   -1.08828  -1.06859  -1.04594  -1.04316  -1.03790
 Alpha  occ. eigenvalues --   -1.03722  -1.02824  -1.02783  -1.02633  -1.01622
 Alpha  occ. eigenvalues --   -0.93364  -0.93266  -0.89415  -0.89263  -0.89234
 Alpha  occ. eigenvalues --   -0.88839  -0.88776  -0.88094  -0.87960  -0.87103
 Alpha  occ. eigenvalues --   -0.86849  -0.86460  -0.85949  -0.85592  -0.85214
 Alpha  occ. eigenvalues --   -0.84304  -0.84049  -0.83877  -0.83164  -0.82722
 Alpha  occ. eigenvalues --   -0.82588  -0.82378  -0.81301  -0.80890  -0.80852
 Alpha  occ. eigenvalues --   -0.80015  -0.78092  -0.77761  -0.77352  -0.77255
 Alpha  occ. eigenvalues --   -0.77113  -0.76809  -0.76206  -0.75952  -0.75528
 Alpha  occ. eigenvalues --   -0.74531  -0.73248  -0.72530  -0.72047  -0.71002
 Alpha  occ. eigenvalues --   -0.69337  -0.69073  -0.69056  -0.68484  -0.67919
 Alpha  occ. eigenvalues --   -0.67789  -0.67066  -0.66766  -0.66099  -0.65580
 Alpha  occ. eigenvalues --   -0.65419  -0.64981  -0.64912  -0.64628  -0.64616
 Alpha  occ. eigenvalues --   -0.63891  -0.62697  -0.62122  -0.60241  -0.60118
 Alpha  occ. eigenvalues --   -0.59899  -0.59641  -0.59314  -0.59088  -0.58855
 Alpha  occ. eigenvalues --   -0.58788  -0.58460  -0.58346  -0.57633  -0.57574
 Alpha  occ. eigenvalues --   -0.56506  -0.55903  -0.55881  -0.55761  -0.55478
 Alpha  occ. eigenvalues --   -0.55082  -0.54930  -0.54768  -0.54389  -0.54027
 Alpha  occ. eigenvalues --   -0.53626  -0.53594  -0.53574  -0.53410  -0.53320
 Alpha  occ. eigenvalues --   -0.53312  -0.53151  -0.52904  -0.52812  -0.52647
 Alpha  occ. eigenvalues --   -0.51907  -0.51883  -0.51725  -0.51716  -0.51658
 Alpha  occ. eigenvalues --   -0.51370  -0.50843  -0.50766  -0.50738  -0.50368
 Alpha  occ. eigenvalues --   -0.50327  -0.50288  -0.49877  -0.49823  -0.49613
 Alpha  occ. eigenvalues --   -0.49318  -0.49300  -0.49245  -0.49048  -0.49018
 Alpha  occ. eigenvalues --   -0.48861  -0.48641  -0.48299  -0.48159  -0.48104
 Alpha  occ. eigenvalues --   -0.47855  -0.47542  -0.47393  -0.47381  -0.47156
 Alpha  occ. eigenvalues --   -0.47126  -0.47096  -0.46727  -0.46468  -0.46403
 Alpha  occ. eigenvalues --   -0.46392  -0.46149  -0.46027  -0.45881  -0.45809
 Alpha  occ. eigenvalues --   -0.45328  -0.45228  -0.45133  -0.44984  -0.44729
 Alpha  occ. eigenvalues --   -0.44676  -0.44444  -0.44385  -0.44213  -0.44168
 Alpha  occ. eigenvalues --   -0.43915  -0.43695  -0.43588  -0.43394  -0.43319
 Alpha  occ. eigenvalues --   -0.43238  -0.43171  -0.43032  -0.42958  -0.42798
 Alpha  occ. eigenvalues --   -0.42716  -0.42614  -0.42382  -0.42357  -0.42296
 Alpha  occ. eigenvalues --   -0.42036  -0.41873  -0.41863  -0.41542  -0.41523
 Alpha  occ. eigenvalues --   -0.41238  -0.41064  -0.40611  -0.40430  -0.40264
 Alpha  occ. eigenvalues --   -0.39970  -0.39918  -0.39716  -0.38923  -0.38820
 Alpha  occ. eigenvalues --   -0.38460  -0.38047  -0.38017  -0.37955  -0.37752
 Alpha  occ. eigenvalues --   -0.37676  -0.36906  -0.36519  -0.36442  -0.36303
 Alpha  occ. eigenvalues --   -0.36091  -0.35841  -0.35248  -0.34358  -0.34247
 Alpha  occ. eigenvalues --   -0.34082  -0.33725  -0.32613  -0.31765  -0.31571
 Alpha  occ. eigenvalues --   -0.31452  -0.31270  -0.31038  -0.30655  -0.30271
 Alpha  occ. eigenvalues --   -0.30124  -0.29979  -0.29949  -0.24669  -0.23798
 Alpha  occ. eigenvalues --   -0.21663  -0.20931
 Alpha virt. eigenvalues --   -0.09033  -0.08664  -0.01940  -0.01458   0.00189
 Alpha virt. eigenvalues --    0.00918   0.01828   0.02029   0.02515   0.02728
 Alpha virt. eigenvalues --    0.04416   0.05140   0.05209   0.05400   0.05822

 Mulliken charges:
               1
     1  Mg  12.000430
     2  C    5.970742
     3  C    6.012654
     4  C    6.029711
     5  C    5.988412
     6  N    6.985107
     7  C    6.038215
     8  C    5.994172
     9  C    6.012761
    10  C    5.967301
    11  C    6.002239
    12  C    5.995299
    13  C    5.999981
    14  H    1.007228
    15  N    7.009371
    16  C    5.954220
    17  C    5.982575
    18  C    5.980126
    19  C    5.963672
    20  C    6.003991
    21  C    5.985859
    22  O    7.969086
    23  C    6.008500
    24  N    7.007281
    25  C    5.962163
    26  C    6.008691
    27  C    5.987451
    28  C    6.029654
    29  C    6.002695
    30  C    5.995137
    31  C    5.998005
    32  N    6.995656
    33  C    6.041410
    34  C    6.029621
    35  C    6.002375
    36  C    6.040606
    37  C    5.995192
    38  C    6.018034
    39  O    8.027993
    40  C    6.001085
    41  C    6.003447
    42  O    8.007752
    43  O    8.000553
    44  C    5.998289
    45  H    0.986549
    46  H    0.998627
    47  H    1.011869
    48  H    0.997248
    49  H    0.992666
    50  H    1.001168
    51  H    1.000694
    52  H    0.985868
    53  H    1.010309
    54  H    0.991851
    55  H    1.003481
    56  H    0.995484
    57  H    0.981980
    58  H    0.981164
    59  H    0.981586
    60  H    0.992310
    61  H    0.992071
    62  H    0.983969
    63  H    1.001167
    64  H    1.004104
    65  H    0.990375
    66  H    0.999636
    67  H    1.005131
    68  H    0.994863
    69  H    1.010331
    70  H    1.005931
    71  H    1.005943
    72  H    0.998576
    73  H    1.019724
    74  H    1.020019
    75  H    1.022437
    76  H    1.007508
    77  H    1.000640
    78  H    1.007137
    79  H    1.002844
    80  Mg  11.999994
    81  C    6.000038
    82  C    5.999949
    83  C    5.999952
    84  C    6.000052
    85  N    7.000025
    86  C    5.999919
    87  C    6.000020
    88  C    5.999950
    89  C    6.000094
    90  C    5.999985
    91  C    6.000013
    92  C    6.000003
    93  H    0.999988
    94  N    6.999979
    95  C    6.000233
    96  C    6.000026
    97  C    6.000086
    98  C    6.000141
    99  C    5.999957
   100  C    6.000067
   101  O    8.000107
   102  C    5.999987
   103  N    6.999973
   104  C    6.000108
   105  C    5.999961
   106  C    6.000031
   107  C    5.999915
   108  C    5.999997
   109  C    6.000015
   110  C    6.000006
   111  N    6.999980
   112  C    5.999822
   113  C    5.999874
   114  C    6.000015
   115  C    5.999887
   116  C    6.000020
   117  C    5.999886
   118  O    7.999862
   119  C    6.000019
   120  C    5.999977
   121  O    7.999976
   122  O    7.999996
   123  C    6.000022
   124  H    1.000086
   125  H    1.000022
   126  H    0.999945
   127  H    0.999987
   128  H    1.000035
   129  H    1.000052
   130  H    1.000035
   131  H    0.999986
   132  H    0.999991
   133  H    1.000009
   134  H    0.999977
   135  H    1.000013
   136  H    1.000101
   137  H    1.000100
   138  H    1.000105
   139  H    1.000037
   140  H    1.000078
   141  H    1.000025
   142  H    1.000012
   143  H    0.999977
   144  H    1.000010
   145  H    0.999991
   146  H    1.000028
   147  H    1.000010
   148  H    0.999965
   149  H    0.999976
   150  H    0.999988
   151  H    1.000001
   152  H    0.999895
   153  H    0.999922
   154  H    0.999885
   155  H    0.999950
   156  H    0.999943
   157  H    0.999975
   158  H    0.999988
 Sum of Mulliken charges = 624.00000

 Dipole moment (field-independent basis, Debye):
    X=             -2.0421    Y=            -10.6986    Z=              2.1148  Tot=             11.0952
 Quadrupole moment (field-independent basis, Debye-Ang):
   XX=             95.8589   YY=            -13.7138   ZZ=              3.5440
   XY=            248.1974   XZ=            -52.0967   YZ=             -3.2133

 Normal termination of Gaussian 16 at Wed Sep 22 23:12:26 2021.
