 Gaussian 16, Revision A.03,
 Gaussian 16:  ES64L-G16RevA.03 25-Dec-2016

 -----------------------------------
 #p cam-b3lyp/Def2SVP td=(nstates=5)
 -----------------------------------

 --------------------------------
 TDDFT excited states in gaussian
 --------------------------------
 Symbolic Z-matrix:
 Charge =  0 Multiplicity = 1

                         Standard orientation:
 ---------------------------------------------------------------------
 Center     Atomic      Atomic             Coordinates (Angstroms)
 Number     Number       Type             X           Y           Z
 ---------------------------------------------------------------------
      1         12           0       -4.481269   -0.185164    1.124764
      2          6           0       -4.858816    3.035839   -0.144143
      3          6           0       -2.039623    0.967278    3.256686
      4          6           0       -4.044963   -3.403503    2.049039
      5          6           0       -6.735638   -1.325107   -1.402697
      6          7           0       -3.515851    1.744470    1.400403
      7          6           0       -3.831891    2.929199    0.810519
      8          6           0       -3.037966    4.089807    1.424000
      9          6           0       -2.051309    3.315798    2.405710
     10          6           0       -2.601856    1.886963    2.349065
     11          6           0       -0.604312    3.379852    1.931933
     12          6           0       -3.864092    5.102766    2.294101
     13          6           0       -3.352093    6.516935    2.382994
     14          1           0       -1.981184    6.816980    1.969095
     15          7           0       -3.300671   -1.054270    2.506849
     16          6           0       -2.336482   -0.390212    3.291288
     17          6           0       -1.857589   -1.357645    4.243535
     18          6           0       -2.442544   -2.620491    3.972739
     19          6           0       -3.313443   -2.404446    2.791151
     20          6           0       -0.720096   -1.081702    5.203410
     21          6           0       -2.323277   -3.914335    4.662831
     22          8           0       -2.730889   -4.957326    4.197656
     23          6           0       -1.498041   -4.032155    5.995352
     24          7           0       -5.403478   -2.145864    0.548645
     25          6           0       -5.022915   -3.276471    1.064014
     26          6           0       -5.757321   -4.480729    0.401481
     27          6           0       -6.664887   -3.846998   -0.637114
     28          6           0       -6.244668   -2.334430   -0.574047
     29          6           0       -4.699347   -5.567530   -0.111131
     30          6           0       -8.162272   -4.119157   -0.380883
     31          6           0       -8.818197   -5.322245   -1.156276
     32          7           0       -5.744972    0.619358   -0.238180
     33          6           0       -6.606853    0.046584   -1.206208
     34          6           0       -7.254553    1.044015   -1.969707
     35          6           0       -6.502604    2.242856   -1.612593
     36          6           0       -5.642514    1.882206   -0.536202
     37          6           0       -8.169036    0.805210   -3.157276
     38          6           0       -6.383705    3.603500   -1.987704
     39          8           0       -6.983028    4.286153   -2.808964
     40          6           0       -5.284396    4.231399   -0.902246
     41          6           0       -4.244240    4.907315   -1.746508
     42          8           0       -3.563237    4.338527   -2.606256
     43          8           0       -4.210715    6.320010   -1.551500
     44          6           0       -3.204033    7.065791   -2.369830
     45          1           0       -1.273162    1.401794    3.902930
     46          1           0       -3.711984   -4.418887    2.272314
     47          1           0       -7.469364   -1.612023   -2.158389
     48          1           0       -2.504956    4.561514    0.598174
     49          1           0       -2.055103    3.720753    3.417603
     50          1           0       -0.471731    4.148688    1.171221
     51          1           0       -0.221816    2.410371    1.611553
     52          1           0        0.086280    3.772038    2.678543
     53          1           0       -3.950792    4.678840    3.293928
     54          1           0       -4.888689    5.062540    1.923745
     55          1           0       -3.352095    6.786063    3.439018
     56          1           0       -4.008763    7.169190    1.807222
     57          1           0        0.177084   -1.660258    4.983573
     58          1           0       -1.081589   -1.268400    6.215497
     59          1           0       -0.335794   -0.061856    5.211660
     60          1           0       -0.454097   -4.109182    5.690359
     61          1           0       -1.695099   -4.991213    6.474584
     62          1           0       -1.619229   -3.140059    6.608619
     63          1           0       -6.313674   -4.912246    1.233776
     64          1           0       -6.375629   -4.123234   -1.649910
     65          1           0       -4.831535   -5.758847   -1.175947
     66          1           0       -4.843308   -6.555786    0.326039
     67          1           0       -3.727760   -5.107992    0.075001
     68          1           0       -8.685333   -3.205631   -0.665873
     69          1           0       -8.275150   -4.241675    0.696415
     70          1           0       -9.134161   -4.951585   -2.132045
     71          1           0       -9.620319   -5.884552   -0.677864
     72          1           0       -7.937884   -5.936394   -1.342906
     73          1           0       -9.142153    0.651178   -2.691730
     74          1           0       -7.884095   -0.092136   -3.705255
     75          1           0       -8.097575    1.521204   -3.977031
     76          1           0       -5.807243    4.911240   -0.228391
     77          1           0       -3.411180    6.980814   -3.435979
     78          1           0       -2.148926    6.821684   -2.243452
     79          1           0       -3.444573    8.079308   -2.048861
     80         12           0        3.907754   -0.876484   -1.088996
     81          6           0        6.586556    1.110792   -0.244978
     82          6           0        1.870682    1.964852   -0.899960
     83          6           0        1.210193   -2.769107   -1.820792
     84          6           0        5.866698   -3.640400   -0.887601
     85          7           0        4.190808    1.264449   -0.353985
     86          6           0        5.450603    1.873478   -0.296873
     87          6           0        5.351857    3.411625   -0.320665
     88          6           0        3.793458    3.600746   -0.422031
     89          6           0        3.204391    2.220580   -0.619835
     90          6           0        3.198433    4.315920    0.784375
     91          6           0        6.120380    4.220388   -1.424900
     92          6           0        7.347611    5.163254   -0.932362
     93          1           0        7.104832    6.629258   -1.304367
     94          7           0        1.855280   -0.505469   -1.225500
     95          6           0        1.239819    0.756597   -1.243971
     96          6           0       -0.152480    0.665108   -1.695761
     97          6           0       -0.445245   -0.787215   -1.918226
     98          6           0        0.907233   -1.447380   -1.724765
     99          6           0       -1.059184    1.868505   -1.830993
    100          6           0       -1.671955   -1.478610   -2.287344
    101          8           0       -1.694107   -2.717898   -2.318171
    102          6           0       -2.975410   -0.755629   -2.578236
    103          7           0        3.616994   -2.856257   -1.223309
    104          6           0        2.426805   -3.454748   -1.676576
    105          6           0        2.528193   -5.005882   -1.971114
    106          6           0        4.086442   -5.230455   -1.610624
    107          6           0        4.554763   -3.807011   -1.232559
    108          6           0        1.530612   -5.918024   -1.100440
    109          6           0        4.878165   -5.843729   -2.816416
    110          6           0        5.940602   -6.854457   -2.517054
    111          7           0        5.852613   -1.203007   -0.541955
    112          6           0        6.548381   -2.415236   -0.560336
    113          6           0        7.939454   -2.206679   -0.344849
    114          6           0        8.018574   -0.765399   -0.306816
    115          6           0        6.714371   -0.257025   -0.355531
    116          6           0        9.068697   -3.148651   -0.305948
    117          6           0        8.915121    0.321014   -0.063501
    118          8           0       10.136684    0.429387    0.090258
    119          6           0        7.968110    1.590565    0.132430
    120          6           0        8.119671    2.089477    1.524922
    121          8           0        7.424887    1.904044    2.445246
    122          8           0        9.197250    2.968395    1.605945
    123          6           0        9.116761    3.939959    2.676797
    124          1           0        1.259055    2.869144   -0.926069
    125          1           0        0.437212   -3.478484   -2.123464
    126          1           0        6.527172   -4.506071   -0.969860
    127          1           0        5.672013    3.794004    0.647957
    128          1           0        3.519842    4.264067   -1.243015
    129          1           0        2.549489    3.621365    1.317153
    130          1           0        2.605426    5.104907    0.323413
    131          1           0        3.912556    4.802947    1.448066
    132          1           0        5.394433    4.846303   -1.944476
    133          1           0        6.585178    3.553958   -2.151627
    134          1           0        8.172498    4.799014   -1.544984
    135          1           0        7.500644    5.058480    0.141513
    136          1           0       -1.317586    2.177747   -0.817469
    137          1           0       -1.955977    1.554487   -2.362871
    138          1           0       -0.564015    2.739767   -2.260267
    139          1           0       -3.752769   -1.515575   -2.496279
    140          1           0       -2.997527   -0.260658   -3.549682
    141          1           0       -3.336229   -0.053177   -1.827183
    142          1           0        2.434502   -5.184674   -3.041770
    143          1           0        4.274139   -5.940786   -0.805129
    144          1           0        2.059068   -6.827962   -0.815338
    145          1           0        0.666435   -6.331667   -1.618822
    146          1           0        1.156907   -5.411496   -0.210344
    147          1           0        5.315355   -5.100006   -3.482430
    148          1           0        4.242080   -6.434878   -3.474953
    149          1           0        6.872465   -6.358537   -2.788241
    150          1           0        6.040563   -7.750321   -3.129872
    151          1           0        5.930204   -7.096071   -1.453718
    152          1           0        8.813879   -4.014392   -0.917845
    153          1           0        9.119136   -3.455240    0.738759
    154          1           0        9.986707   -2.600303   -0.518157
    155          1           0        8.259688    2.383377   -0.555978
    156          1           0        9.377130    3.367702    3.566556
    157          1           0        8.071413    4.245891    2.715511
    158          1           0        9.832278    4.750915    2.537852
 ---------------------------------------------------------------------

 SCF Done:  E(RCAM-B3LYP) =  -4069.83492998     A.U. after   19 cycles

 Excitation energies and oscillator strengths:

 Excited State   1:      Singlet-A      1.6714 eV  741.82 nm  f=0.3674  <S**2>=0.000
     310 -> 315        0.15459
     312 -> 314        0.67985
 This state for optimization and/or second-order correction.
 Total Energy, E(TD-HF/TD-DFT) =  -4069.77350854
 Copying the excited state density for this state as the 1-particle RhoCI density.

 Excited State   2:      Singlet-A      1.7383 eV  713.27 nm  f=0.4067  <S**2>=0.000
     309 -> 316        0.17085
     311 -> 313        0.67713
     309 <- 316        0.10301

 Excited State   3:      Singlet-A      2.1945 eV  564.97 nm  f=0.0283  <S**2>=0.000
     309 -> 313       -0.25876
     310 -> 314        0.58996
     312 -> 315       -0.23735

 Excited State   4:      Singlet-A      2.2300 eV  555.97 nm  f=0.1929  <S**2>=0.000
     309 -> 313        0.59463
     310 -> 314        0.25113
     311 -> 316       -0.23950
     312 -> 315       -0.11182

 Excited State   5:      Singlet-A      2.2576 eV  549.20 nm  f=0.0004  <S**2>=0.000
     312 -> 313        0.69991

 The electronic state is 1-A.
 Alpha  occ. eigenvalues --  -46.88310 -46.87895 -19.24898 -19.22266 -19.20372
 Alpha  occ. eigenvalues --  -19.19685 -19.19400 -19.18665 -19.18595 -19.17906
 Alpha  occ. eigenvalues --  -14.43066 -14.42507 -14.41993 -14.41857 -14.40395
 Alpha  occ. eigenvalues --  -14.40211 -14.39761 -14.38540 -10.39872 -10.38194
 Alpha  occ. eigenvalues --  -10.35585 -10.35069 -10.34746 -10.34171 -10.32024
 Alpha  occ. eigenvalues --  -10.31939 -10.31879 -10.31830 -10.31468 -10.31319
 Alpha  occ. eigenvalues --  -10.31242 -10.31022 -10.30997 -10.30980 -10.30902
 Alpha  occ. eigenvalues --  -10.30748 -10.30713 -10.30260 -10.30196 -10.29912
 Alpha  occ. eigenvalues --  -10.29591 -10.29234 -10.29211 -10.29182 -10.29167
 Alpha  occ. eigenvalues --  -10.28895 -10.28554 -10.28503 -10.28431 -10.28348
 Alpha  occ. eigenvalues --  -10.28318 -10.28215 -10.28213 -10.28062 -10.28011
 Alpha  occ. eigenvalues --  -10.27756 -10.27752 -10.27723 -10.27646 -10.27639
 Alpha  occ. eigenvalues --  -10.27599 -10.27529 -10.27509 -10.27289 -10.27271
 Alpha  occ. eigenvalues --  -10.27169 -10.27052 -10.26789 -10.26538 -10.26511
 Alpha  occ. eigenvalues --  -10.26459 -10.26420 -10.26413 -10.26380 -10.26345
 Alpha  occ. eigenvalues --  -10.26162 -10.26149 -10.26143 -10.25941 -10.25839
 Alpha  occ. eigenvalues --  -10.25835 -10.25759 -10.25717 -10.25302 -10.24855
 Alpha  occ. eigenvalues --  -10.24409  -3.17001  -3.16657  -1.91916  -1.91528
 Alpha  occ. eigenvalues --   -1.91448  -1.91319  -1.91123  -1.90974  -1.16874
 Alpha  occ. eigenvalues --   -1.14244  -1.11244  -1.09354  -1.09023  -1.08101
 Alpha  occ. eigenvalues --   -1.07797  -1.06630  -1.05604  -1.04575  -1.04223
 Alpha  occ. eigenvalues --   -1.03669  -1.03387  -1.02660  -1.02066  -1.00566
 Alpha  occ. eigenvalues --   -0.92566  -0.92525  -0.89632  -0.89252  -0.89115
 Alpha  occ. eigenvalues --   -0.88670  -0.88611  -0.88475  -0.87961  -0.87705
 Alpha  occ. eigenvalues --   -0.87295  -0.87110  -0.86539  -0.86356  -0.84691
 Alpha  occ. eigenvalues --   -0.84210  -0.83433  -0.83183  -0.82490  -0.82383
 Alpha  occ. eigenvalues --   -0.81653  -0.81535  -0.80826  -0.80677  -0.80411
 Alpha  occ. eigenvalues --   -0.80161  -0.78936  -0.78430  -0.77555  -0.77277
 Alpha  occ. eigenvalues --   -0.77148  -0.76707  -0.76351  -0.75290  -0.75215
 Alpha  occ. eigenvalues --   -0.75197  -0.73405  -0.72955  -0.71896  -0.71670
 Alpha  occ. eigenvalues --   -0.69780  -0.69199  -0.69094  -0.68662  -0.68348
 Alpha  occ. eigenvalues --   -0.67955  -0.67576  -0.67466  -0.66238  -0.65633
 Alpha  occ. eigenvalues --   -0.65433  -0.65324  -0.65200  -0.64966  -0.64947
 Alpha  occ. eigenvalues --   -0.63866  -0.61944  -0.60898  -0.60540  -0.60050
 Alpha  occ. eigenvalues --   -0.59948  -0.59627  -0.59412  -0.58940  -0.58858
 Alpha  occ. eigenvalues --   -0.58459  -0.58269  -0.58233  -0.57676  -0.57638
 Alpha  occ. eigenvalues --   -0.56468  -0.56304  -0.55572  -0.55287  -0.55100
 Alpha  occ. eigenvalues --   -0.55039  -0.54406  -0.53920  -0.53737  -0.53693
 Alpha  occ. eigenvalues --   -0.53575  -0.53188  -0.53115  -0.52916  -0.52866
 Alpha  occ. eigenvalues --   -0.52706  -0.52680  -0.52628  -0.52215  -0.52172
 Alpha  occ. eigenvalues --   -0.51986  -0.51819  -0.51595  -0.51381  -0.51360
 Alpha  occ. eigenvalues --   -0.51169  -0.50964  -0.50749  -0.50509  -0.50317
 Alpha  occ. eigenvalues --   -0.50006  -0.49927  -0.49817  -0.49784  -0.49684
 Alpha  occ. eigenvalues --   -0.49636  -0.49523  -0.49483  -0.49283  -0.48834
 Alpha  occ. eigenvalues --   -0.48741  -0.48708  -0.48532  -0.48464  -0.48403
 Alpha  occ. eigenvalues --   -0.48076  -0.47885  -0.47822  -0.47644  -0.47522
 Alpha  occ. eigenvalues --   -0.47403  -0.47213  -0.47117  -0.46973  -0.46786
 Alpha  occ. eigenvalues --   -0.46740  -0.46548  -0.46056  -0.45935  -0.45890
 Alpha  occ. eigenvalues --   -0.45511  -0.45353  -0.45293  -0.45274  -0.45093
 Alpha  occ. eigenvalues --   -0.44973  -0.44771  -0.44561  -0.44445  -0.44309
 Alpha  occ. eigenvalues --   -0.44196  -0.44155  -0.43717  -0.43572  -0.43426
 Alpha  occ. eigenvalues --   -0.43395  -0.43243  -0.43159  -0.42920  -0.42839
 Alpha  occ. eigenvalues --   -0.42694  -0.42603  -0.42488  -0.42318  -0.42287
 Alpha  occ. eigenvalues --   -0.41865  -0.41624  -0.41550  -0.41503  -0.41412
 Alpha  occ. eigenvalues --   -0.41145  -0.41033  -0.40947  -0.40710  -0.40662
 Alpha  occ. eigenvalues --   -0.40249  -0.40116  -0.39935  -0.39483  -0.39065
 Alpha  occ. eigenvalues --   -0.38778  -0.38732  -0.38063  -0.37850  -0.37620
 Alpha  occ. eigenvalues --   -0.37558  -0.37310  -0.37034  -0.36558  -0.36457
 Alpha  occ. eigenvalues --   -0.36105  -0.35019  -0.34748  -0.34495  -0.34434
 Alpha  occ. eigenvalues --   -0.34155  -0.33865  -0.33144  -0.31861  -0.31387
 Alpha  occ. eigenvalues --   -0.31302  -0.31224  -0.30781  -0.30182  -0.29934
 Alpha  occ. eigenvalues --   -0.29868  -0.29670  -0.29222  -0.24494  -0.24354
 Alpha  occ. eigenvalues --   -0.21877  -0.21407
 Alpha virt. eigenvalues --   -0.09295  -0.09177  -0.02126  -0.01953  -0.00134
 Alpha virt. eigenvalues --   -0.00067   0.02005   0.02108   0.02457   0.03682
 Alpha virt. eigenvalues --    0.03963   0.05063   0.05078   0.05301   0.05759

 Mulliken charges:
               1
     1  Mg   0.812245
     2  C   -0.062507
     3  C   -0.097925
     4  C   -0.057265
     5  C   -0.076933
     6  N   -0.258964
     7  C   -0.055067
     8  C    0.006297
     9  C   -0.080869
    10  C    0.049603
    11  C    0.036891
    12  C    0.058766
    13  C   -0.049587
    14  H    0.019965
    15  N   -0.447003
    16  C    0.222613
    17  C   -0.135264
    18  C    0.003336
    19  C    0.126165
    20  C    0.098757
    21  C   -0.028861
    22  O   -0.192620
    23  C    0.054995
    24  N   -0.252713
    25  C    0.032401
    26  C   -0.046108
    27  C    0.008895
    28  C    0.007315
    29  C    0.061006
    30  C    0.040534
    31  C    0.012895
    32  N   -0.352971
    33  C    0.116985
    34  C   -0.139050
    35  C   -0.038798
    36  C    0.147960
    37  C    0.107202
    38  C    0.040947
    39  O   -0.174682
    40  C   -0.013022
    41  C    0.228014
    42  O   -0.237211
    43  O   -0.372279
    44  C    0.181950
    45  H   -0.019250
    46  H    0.007165
    47  H   -0.023049
    48  H    0.013820
    49  H    0.013558
    50  H    0.008342
    51  H    0.045118
    52  H    0.009422
    53  H    0.002505
    54  H    0.002530
    55  H    0.027872
    56  H    0.043857
    57  H    0.045700
    58  H    0.027980
    59  H    0.008417
    60  H    0.032846
    61  H    0.029813
    62  H    0.018469
    63  H    0.021230
    64  H    0.003749
    65  H    0.011551
    66  H    0.020089
    67  H    0.040294
    68  H    0.000930
    69  H    0.002220
    70  H    0.014884
    71  H    0.031575
    72  H    0.008983
    73  H    0.032038
    74  H    0.017618
    75  H    0.039235
    76  H    0.042970
    77  H    0.041667
    78  H    0.033837
    79  H    0.037972
    80  Mg   0.823480
    81  C    0.028294
    82  C   -0.091835
    83  C   -0.059891
    84  C   -0.102449
    85  N   -0.301054
    86  C   -0.078628
    87  C    0.037655
    88  C   -0.089620
    89  C    0.067243
    90  C    0.060244
    91  C    0.032737
    92  C   -0.092779
    93  H    0.019192
    94  N   -0.404414
    95  C    0.184655
    96  C   -0.170949
    97  C    0.011582
    98  C    0.175280
    99  C    0.145287
   100  C   -0.024106
   101  O   -0.226200
   102  C    0.007627
   103  N   -0.333705
   104  C    0.018899
   105  C    0.006248
   106  C   -0.041242
   107  C    0.113918
   108  C    0.046968
   109  C    0.003010
   110  C   -0.000810
   111  N   -0.324864
   112  C    0.107599
   113  C   -0.170732
   114  C    0.001059
   115  C    0.100767
   116  C    0.151271
   117  C    0.019966
   118  O   -0.182815
   119  C   -0.047798
   120  C    0.190118
   121  O   -0.158350
   122  O   -0.358882
   123  C    0.189624
   124  H   -0.036878
   125  H   -0.001989
   126  H   -0.046416
   127  H    0.007642
   128  H    0.008357
   129  H    0.030480
   130  H    0.006192
   131  H    0.022875
   132  H    0.019634
   133  H    0.017230
   134  H    0.052950
   135  H    0.038304
   136  H    0.018363
   137  H    0.031154
   138  H    0.032222
   139  H    0.030480
   140  H    0.057043
   141  H    0.057813
   142  H    0.025291
   143  H    0.015148
   144  H    0.012318
   145  H    0.023805
   146  H    0.036366
   147  H    0.009009
   148  H    0.005257
   149  H    0.005673
   150  H    0.014824
   151  H    0.014894
   152  H    0.020438
   153  H    0.029007
   154  H    0.042555
   155  H    0.023717
   156  H    0.030948
   157  H    0.020555
   158  H    0.041140
 Sum of Mulliken charges =  -0.00000

 Dipole moment (field-independent basis, Debye):
    X=             -2.1413    Y=             -0.0311    Z=              1.8991  Tot=              2.8623
 Quadrupole moment (field-independent basis, Debye-Ang):
   XX=           -592.0794   YY=           -477.0916   ZZ=           -499.9957
   XY=             15.9620   XZ=            -25.9466   YZ=             29.3312

 Normal termination of Gaussian 16 at Thu Sep 16 07:41:23 2021.
