 Gaussian 16, Revision A.03,
 Gaussian 16:  ES64L-G16RevA.03 25-Dec-2016

 -----------------------------------
 #p cam-b3lyp/Def2SVP td=(nstates=5)
 -----------------------------------

 --------------------------------
 TDDFT excited states in gaussian
 --------------------------------
 Symbolic Z-matrix:
 Charge =  0 Multiplicity = 1

                         Standard orientation:
 ---------------------------------------------------------------------
 Center     Atomic      Atomic             Coordinates (Angstroms)
 Number     Number       Type             X           Y           Z
 ---------------------------------------------------------------------
      1         12           0       18.153190   -0.043064    0.277779
      2          6           0       15.405779   -1.656138   -0.912823
      3          6           0       19.200361    0.468259   -3.061453
      4          6           0       20.170159    2.379633    1.380760
      5          6           0       16.739218   -0.134812    3.599659
      6          7           0       17.381784   -0.570788   -1.686402
      7          6           0       16.291713   -1.192693   -1.992506
      8          6           0       16.218842   -1.611744   -3.503869
      9          6           0       17.603335   -1.162541   -4.108490
     10          6           0       18.172124   -0.375083   -2.878185
     11          6           0       18.447313   -2.257529   -4.762354
     12          6           0       14.886281   -1.009225   -4.250973
     13          6           0       14.215889    0.223040   -3.665432
     14          1           0       13.278587    1.077629   -4.518667
     15          7           0       19.490569    1.247061   -0.719872
     16          6           0       19.834132    1.265666   -2.050288
     17          6           0       20.763524    2.284409   -2.282200
     18          6           0       21.056187    2.910607   -1.009536
     19          6           0       20.190631    2.206307   -0.027180
     20          6           0       21.414211    2.449879   -3.643316
     21          6           0       22.053578    4.068550   -0.824611
     22          8           0       22.645833    4.495321   -1.841222
     23          6           0       22.368085    4.712018    0.418160
     24          7           0       18.320153    1.125238    2.245165
     25          6           0       19.363462    1.890706    2.396207
     26          6           0       19.579522    2.341102    3.869039
     27          6           0       18.513201    1.496125    4.599760
     28          6           0       17.762890    0.719395    3.443486
     29          6           0       20.942060    2.079251    4.401611
     30          6           0       17.542770    2.378620    5.517869
     31          6           0       17.692874    2.181936    7.082442
     32          7           0       16.510768   -0.820649    1.251207
     33          6           0       16.058724   -0.833577    2.576682
     34          6           0       14.801560   -1.641913    2.643824
     35          6           0       14.524245   -1.922628    1.298388
     36          6           0       15.559988   -1.383112    0.479213
     37          6           0       14.001296   -1.999600    3.799573
     38          6           0       13.546092   -2.516301    0.507798
     39          8           0       12.488580   -3.114158    0.755326
     40          6           0       14.104028   -2.460142   -0.942733
     41          6           0       14.171557   -3.906376   -1.488380
     42          8           0       13.683450   -4.334059   -2.520555
     43          8           0       14.885683   -4.743008   -0.658097
     44          6           0       14.991816   -6.155226   -1.043613
     45          1           0       19.413088    0.614463   -4.122354
     46          1           0       20.914058    3.043054    1.826328
     47          1           0       16.416170   -0.299078    4.629655
     48          1           0       16.272172   -2.700670   -3.518302
     49          1           0       17.489094   -0.382320   -4.861664
     50          1           0       19.362138   -2.406194   -4.189018
     51          1           0       18.750140   -1.994502   -5.776531
     52          1           0       17.949437   -3.216576   -4.905644
     53          1           0       14.246204   -1.891306   -4.280895
     54          1           0       15.045112   -0.652843   -5.268974
     55          1           0       15.062123    0.828295   -3.341433
     56          1           0       13.718930   -0.127665   -2.760743
     57          1           0       22.500248    2.415965   -3.733594
     58          1           0       21.023639    3.356383   -4.106300
     59          1           0       21.060989    1.656116   -4.301270
     60          1           0       22.811142    4.105469    1.207834
     61          1           0       21.455597    5.031393    0.920611
     62          1           0       22.930561    5.637864    0.301714
     63          1           0       19.452761    3.394801    4.117194
     64          1           0       18.937433    0.680617    5.185609
     65          1           0       21.580902    2.958128    4.487123
     66          1           0       21.529089    1.500776    3.687366
     67          1           0       20.878270    1.588829    5.372822
     68          1           0       16.516716    2.068339    5.315673
     69          1           0       17.681445    3.454129    5.416272
     70          1           0       17.720069    3.154755    7.571737
     71          1           0       18.679322    1.758538    7.271973
     72          1           0       16.782021    1.665861    7.386508
     73          1           0       14.723083   -2.074004    4.613290
     74          1           0       13.520948   -2.967267    3.650330
     75          1           0       13.220279   -1.243491    3.873999
     76          1           0       13.376271   -2.099172   -1.669122
     77          1           0       15.177601   -6.742213   -0.143951
     78          1           0       15.803298   -6.447450   -1.709901
     79          1           0       14.127015   -6.527783   -1.593418
     80         12           0      -18.076752    0.595434    0.171193
     81          6           0      -15.045176   -1.178773   -0.262709
     82          6           0      -19.478759   -2.264158    1.287604
     83          6           0      -20.888586    2.253525    0.421467
     84          6           0      -16.595511    3.260698   -1.718288
     85          7           0      -17.380655   -1.565251    0.396552
     86          6           0      -16.044951   -1.930782    0.389236
     87          6           0      -15.961750   -3.275218    1.027503
     88          6           0      -17.391757   -3.814947    0.987632
     89          6           0      -18.183113   -2.485302    0.910814
     90          6           0      -17.631341   -4.678608   -0.307125
     91          6           0      -15.342175   -3.335583    2.525858
     92          6           0      -14.342675   -4.464671    2.923370
     93          1           0      -14.760042   -5.923387    2.577808
     94          7           0      -19.947181    0.018850    0.776252
     95          6           0      -20.290912   -1.161995    1.198781
     96          6           0      -21.731757   -1.141108    1.505079
     97          6           0      -22.151111    0.223398    1.473264
     98          6           0      -20.984919    0.907521    0.845872
     99          6           0      -22.678010   -2.344602    1.862308
    100          6           0      -23.448061    0.899436    1.916839
    101          8           0      -23.718008    2.098910    1.715473
    102          6           0      -24.525004    0.062368    2.422773
    103          7           0      -18.691642    2.481293   -0.734943
    104          6           0      -19.926275    3.000547   -0.354372
    105          6           0      -20.005846    4.510017   -0.805389
    106          6           0      -18.580583    4.796863   -1.340101
    107          6           0      -17.880045    3.440930   -1.227886
    108          6           0      -21.178216    4.791868   -1.745433
    109          6           0      -17.836143    5.993285   -0.695736
    110          6           0      -16.987456    6.896516   -1.620754
    111          7           0      -16.234911    1.004910   -0.817886
    112          6           0      -15.794878    2.085383   -1.575940
    113          6           0      -14.397431    1.898011   -1.872575
    114          6           0      -14.083385    0.612823   -1.428037
    115          6           0      -15.224832    0.080243   -0.767672
    116          6           0      -13.526390    2.824451   -2.466939
    117          6           0      -13.013874   -0.385383   -1.280633
    118          8           0      -11.832366   -0.386417   -1.587909
    119          6           0      -13.609537   -1.591275   -0.482892
    120          6           0      -13.414121   -2.834483   -1.332297
    121          8           0      -14.041272   -3.327685   -2.242262
    122          8           0      -12.326659   -3.407837   -0.739125
    123          6           0      -12.025890   -4.821299   -1.069502
    124          1           0      -19.922321   -3.157487    1.733066
    125          1           0      -21.773470    2.824140    0.710782
    126          1           0      -16.063828    4.137990   -2.091392
    127          1           0      -15.332891   -4.007328    0.520284
    128          1           0      -17.695703   -4.271793    1.929129
    129          1           0      -18.337532   -5.496494   -0.168130
    130          1           0      -16.742983   -5.219740   -0.633772
    131          1           0      -18.059954   -3.984775   -1.029495
    132          1           0      -16.150803   -3.261667    3.252269
    133          1           0      -14.810244   -2.407114    2.736752
    134          1           0      -14.360915   -4.411502    4.012525
    135          1           0      -13.429470   -4.131035    2.430519
    136          1           0      -23.039529   -2.365318    2.890152
    137          1           0      -22.116796   -3.257592    1.661371
    138          1           0      -23.633837   -2.355457    1.338431
    139          1           0      -24.180242   -0.558471    3.250115
    140          1           0      -24.925889   -0.572634    1.632632
    141          1           0      -25.240344    0.728353    2.904331
    142          1           0      -20.074754    5.092057    0.113745
    143          1           0      -18.593463    4.906896   -2.424284
    144          1           0      -20.854192    4.636260   -2.774988
    145          1           0      -21.527171    5.823985   -1.738390
    146          1           0      -21.918640    4.000337   -1.634696
    147          1           0      -17.232892    5.725904    0.171706
    148          1           0      -18.537101    6.666111   -0.199884
    149          1           0      -15.971366    6.521989   -1.495838
    150          1           0      -17.040676    7.885601   -1.164669
    151          1           0      -17.342233    6.821773   -2.648322
    152          1           0      -12.623045    2.479475   -2.969485
    153          1           0      -13.286009    3.562060   -1.700622
    154          1           0      -14.106578    3.293784   -3.260603
    155          1           0      -13.106463   -1.687101    0.479135
    156          1           0      -11.782623   -5.280128   -0.111602
    157          1           0      -11.180466   -4.991195   -1.735723
    158          1           0      -12.914698   -5.306332   -1.472210
 ---------------------------------------------------------------------

 SCF Done:  E(RCAM-B3LYP) =  -4069.77341886     A.U. after   19 cycles

 Excitation energies and oscillator strengths:

 Excited State   1:      Singlet-A      1.7060 eV  726.77 nm  f=0.4646  <S**2>=0.000
     309 -> 316        0.16069
     311 -> 313        0.68819
     309 <- 316        0.10262
 This state for optimization and/or second-order correction.
 Total Energy, E(TD-HF/TD-DFT) =  -4069.71072552
 Copying the excited state density for this state as the 1-particle RhoCI density.

 Excited State   2:      Singlet-A      1.7330 eV  715.43 nm  f=0.3567  <S**2>=0.000
     310 -> 315        0.19039
     312 -> 314        0.68094
     310 <- 315        0.10747

 Excited State   3:      Singlet-A      2.2509 eV  550.83 nm  f=0.1193  <S**2>=0.000
     309 -> 313        0.64222
     311 -> 316       -0.27237

 Excited State   4:      Singlet-A      2.2617 eV  548.20 nm  f=0.0687  <S**2>=0.000
     310 -> 314        0.62173
     312 -> 315       -0.32224

 Excited State   5:      Singlet-A      2.8408 eV  436.44 nm  f=0.0000  <S**2>=0.000
     312 -> 313        0.70709

 The electronic state is 1-A.
 Alpha  occ. eigenvalues --  -46.90307 -46.89331 -19.24885 -19.24307 -19.20100
 Alpha  occ. eigenvalues --  -19.19982 -19.19223 -19.18959 -19.18636 -19.17416
 Alpha  occ. eigenvalues --  -14.43191 -14.41918 -14.41739 -14.41386 -14.40532
 Alpha  occ. eigenvalues --  -14.39820 -14.39815 -14.38915 -10.39709 -10.39184
 Alpha  occ. eigenvalues --  -10.35490 -10.34770 -10.34706 -10.34253 -10.32994
 Alpha  occ. eigenvalues --  -10.31766 -10.31659 -10.31496 -10.31398 -10.31263
 Alpha  occ. eigenvalues --  -10.30775 -10.30746 -10.30731 -10.30711 -10.30639
 Alpha  occ. eigenvalues --  -10.30370 -10.30303 -10.30002 -10.29947 -10.29823
 Alpha  occ. eigenvalues --  -10.29627 -10.29505 -10.29416 -10.29294 -10.29254
 Alpha  occ. eigenvalues --  -10.29018 -10.28795 -10.28466 -10.28404 -10.28285
 Alpha  occ. eigenvalues --  -10.28173 -10.27873 -10.27861 -10.27719 -10.27674
 Alpha  occ. eigenvalues --  -10.27633 -10.27555 -10.27542 -10.27491 -10.27441
 Alpha  occ. eigenvalues --  -10.27313 -10.27279 -10.27172 -10.27143 -10.27086
 Alpha  occ. eigenvalues --  -10.27060 -10.27032 -10.26898 -10.26820 -10.26699
 Alpha  occ. eigenvalues --  -10.26651 -10.26502 -10.26395 -10.26337 -10.26167
 Alpha  occ. eigenvalues --  -10.26155 -10.26019 -10.26005 -10.25768 -10.25672
 Alpha  occ. eigenvalues --  -10.25647 -10.25604 -10.25593 -10.25213 -10.24904
 Alpha  occ. eigenvalues --  -10.24755  -3.18714  -3.17718  -1.93592  -1.93203
 Alpha  occ. eigenvalues --   -1.92981  -1.92616  -1.92176  -1.92011  -1.16129
 Alpha  occ. eigenvalues --   -1.16064  -1.09544  -1.09330  -1.09044  -1.07710
 Alpha  occ. eigenvalues --   -1.07611  -1.07341  -1.05114  -1.05028  -1.04503
 Alpha  occ. eigenvalues --   -1.03900  -1.03634  -1.03016  -1.02242  -1.02030
 Alpha  occ. eigenvalues --   -0.92991  -0.92724  -0.89664  -0.89427  -0.88981
 Alpha  occ. eigenvalues --   -0.88843  -0.88438  -0.88317  -0.87944  -0.87791
 Alpha  occ. eigenvalues --   -0.87521  -0.87089  -0.86846  -0.85288  -0.84641
 Alpha  occ. eigenvalues --   -0.84192  -0.84190  -0.83552  -0.82943  -0.82690
 Alpha  occ. eigenvalues --   -0.82506  -0.82433  -0.81458  -0.81454  -0.80554
 Alpha  occ. eigenvalues --   -0.80262  -0.78476  -0.78348  -0.77412  -0.77388
 Alpha  occ. eigenvalues --   -0.76991  -0.76957  -0.76351  -0.75815  -0.75275
 Alpha  occ. eigenvalues --   -0.75078  -0.73393  -0.72467  -0.71947  -0.71777
 Alpha  occ. eigenvalues --   -0.69559  -0.68920  -0.68859  -0.68714  -0.68399
 Alpha  occ. eigenvalues --   -0.67657  -0.67325  -0.66833  -0.66032  -0.65647
 Alpha  occ. eigenvalues --   -0.65436  -0.65270  -0.65006  -0.64862  -0.64537
 Alpha  occ. eigenvalues --   -0.64285  -0.63327  -0.61891  -0.60896  -0.60443
 Alpha  occ. eigenvalues --   -0.59951  -0.59563  -0.59193  -0.58940  -0.58516
 Alpha  occ. eigenvalues --   -0.58279  -0.58017  -0.57897  -0.57460  -0.57245
 Alpha  occ. eigenvalues --   -0.56324  -0.56115  -0.55856  -0.55610  -0.55593
 Alpha  occ. eigenvalues --   -0.55159  -0.54804  -0.54538  -0.54416  -0.53859
 Alpha  occ. eigenvalues --   -0.53657  -0.53527  -0.53503  -0.53245  -0.53208
 Alpha  occ. eigenvalues --   -0.53184  -0.52910  -0.52869  -0.52589  -0.52385
 Alpha  occ. eigenvalues --   -0.52219  -0.52080  -0.51644  -0.51528  -0.51483
 Alpha  occ. eigenvalues --   -0.51241  -0.51161  -0.50931  -0.50762  -0.50681
 Alpha  occ. eigenvalues --   -0.50369  -0.50257  -0.49935  -0.49893  -0.49571
 Alpha  occ. eigenvalues --   -0.49557  -0.49319  -0.49219  -0.48988  -0.48943
 Alpha  occ. eigenvalues --   -0.48812  -0.48795  -0.48547  -0.48285  -0.48134
 Alpha  occ. eigenvalues --   -0.47647  -0.47623  -0.47402  -0.47348  -0.47175
 Alpha  occ. eigenvalues --   -0.47094  -0.46857  -0.46829  -0.46745  -0.46608
 Alpha  occ. eigenvalues --   -0.46213  -0.46178  -0.45876  -0.45875  -0.45715
 Alpha  occ. eigenvalues --   -0.45508  -0.45240  -0.45001  -0.44987  -0.44883
 Alpha  occ. eigenvalues --   -0.44858  -0.44650  -0.44588  -0.44445  -0.44313
 Alpha  occ. eigenvalues --   -0.44006  -0.43811  -0.43810  -0.43646  -0.43580
 Alpha  occ. eigenvalues --   -0.42977  -0.42926  -0.42683  -0.42678  -0.42656
 Alpha  occ. eigenvalues --   -0.42263  -0.42242  -0.42123  -0.42060  -0.41993
 Alpha  occ. eigenvalues --   -0.41880  -0.41492  -0.41477  -0.41199  -0.40942
 Alpha  occ. eigenvalues --   -0.40843  -0.40826  -0.40705  -0.40510  -0.40209
 Alpha  occ. eigenvalues --   -0.39978  -0.39828  -0.39812  -0.39575  -0.39062
 Alpha  occ. eigenvalues --   -0.38737  -0.38705  -0.38024  -0.37834  -0.37624
 Alpha  occ. eigenvalues --   -0.37353  -0.36844  -0.36511  -0.36483  -0.36398
 Alpha  occ. eigenvalues --   -0.36381  -0.35890  -0.34796  -0.34615  -0.34286
 Alpha  occ. eigenvalues --   -0.34028  -0.33859  -0.33062  -0.31652  -0.31595
 Alpha  occ. eigenvalues --   -0.31131  -0.31065  -0.30906  -0.30521  -0.30416
 Alpha  occ. eigenvalues --   -0.30164  -0.29217  -0.29008  -0.24926  -0.23930
 Alpha  occ. eigenvalues --   -0.21653  -0.20930
 Alpha virt. eigenvalues --   -0.09511  -0.08238  -0.02020  -0.01883  -0.00098
 Alpha virt. eigenvalues --   -0.00013   0.00639   0.01790   0.02225   0.02361
 Alpha virt. eigenvalues --    0.05029   0.05239   0.05276   0.05458   0.05821

 Mulliken charges:
               1
     1  Mg   0.825793
     2  C    0.015003
     3  C   -0.064105
     4  C   -0.034162
     5  C   -0.085259
     6  N   -0.280177
     7  C   -0.033738
     8  C   -0.003283
     9  C   -0.057042
    10  C    0.024079
    11  C    0.073111
    12  C    0.009611
    13  C   -0.045432
    14  H    0.044772
    15  N   -0.376612
    16  C    0.139149
    17  C   -0.133930
    18  C   -0.051348
    19  C    0.178995
    20  C    0.140065
    21  C    0.018680
    22  O   -0.238798
    23  C    0.063192
    24  N   -0.229443
    25  C   -0.016338
    26  C   -0.028411
    27  C    0.002404
    28  C    0.021002
    29  C    0.047859
    30  C    0.001350
    31  C   -0.010170
    32  N   -0.376995
    33  C    0.118827
    34  C   -0.164096
    35  C    0.035797
    36  C    0.123895
    37  C    0.127106
    38  C    0.044613
    39  O   -0.184241
    40  C   -0.043181
    41  C    0.174913
    42  O   -0.212528
    43  O   -0.339407
    44  C    0.178557
    45  H   -0.011505
    46  H   -0.063642
    47  H   -0.026529
    48  H    0.025710
    49  H    0.012410
    50  H    0.017743
    51  H    0.012573
    52  H    0.020262
    53  H    0.032870
    54  H    0.016844
    55  H    0.030137
    56  H    0.016170
    57  H    0.036942
    58  H    0.022636
    59  H   -0.021591
    60  H    0.042165
    61  H    0.019901
    62  H    0.027674
    63  H    0.019210
    64  H    0.008105
    65  H    0.006244
    66  H    0.010265
    67  H    0.018286
    68  H    0.012662
    69  H    0.017223
    70  H    0.010695
    71  H    0.016180
    72  H    0.026516
    73  H    0.022257
    74  H    0.042588
    75  H    0.050646
    76  H    0.029881
    77  H    0.033903
    78  H    0.019707
    79  H    0.044784
    80  Mg   0.808007
    81  C   -0.037973
    82  C   -0.089784
    83  C   -0.053050
    84  C   -0.086840
    85  N   -0.255054
    86  C    0.011447
    87  C   -0.052128
    88  C   -0.029234
    89  C   -0.033356
    90  C    0.087636
    91  C    0.015898
    92  C   -0.056940
    93  H    0.015477
    94  N   -0.338724
    95  C    0.178053
    96  C   -0.150826
    97  C   -0.029528
    98  C    0.090553
    99  C    0.102825
   100  C    0.020407
   101  O   -0.219915
   102  C    0.059571
   103  N   -0.286765
   104  C    0.009206
   105  C   -0.007509
   106  C   -0.009761
   107  C    0.041937
   108  C    0.096747
   109  C    0.007924
   110  C    0.017128
   111  N   -0.353042
   112  C    0.116937
   113  C   -0.178580
   114  C    0.026995
   115  C    0.138520
   116  C    0.109202
   117  C    0.030143
   118  O   -0.162664
   119  C   -0.011637
   120  C    0.215739
   121  O   -0.195430
   122  O   -0.342955
   123  C    0.168193
   124  H   -0.039356
   125  H   -0.000926
   126  H   -0.036903
   127  H    0.002056
   128  H   -0.005787
   129  H    0.006439
   130  H    0.024761
   131  H    0.035945
   132  H   -0.001618
   133  H   -0.000253
   134  H    0.042147
   135  H    0.049292
   136  H    0.021939
   137  H    0.018324
   138  H    0.019633
   139  H    0.016997
   140  H    0.053742
   141  H    0.028091
   142  H    0.011500
   143  H    0.009124
   144  H   -0.005882
   145  H    0.023761
   146  H    0.026146
   147  H   -0.000016
   148  H   -0.001235
   149  H    0.023451
   150  H    0.015904
   151  H    0.024086
   152  H    0.035119
   153  H    0.030463
   154  H    0.016860
   155  H    0.051223
   156  H    0.029879
   157  H    0.046084
   158  H    0.042160
 Sum of Mulliken charges =  -0.00000

 Dipole moment (field-independent basis, Debye):
    X=              0.6806    Y=             -1.9261    Z=              7.8688  Tot=              8.1296
 Quadrupole moment (field-independent basis, Debye-Ang):
   XX=           -402.3089   YY=           -487.2380   ZZ=           -486.6630
   XY=            -23.1360   XZ=             25.0760   YZ=              0.3793

 Normal termination of Gaussian 16 at Wed Sep 15 00:22:14 2021.
