 Gaussian 16, Revision A.03,
 Gaussian 16:  ES64L-G16RevA.03 25-Dec-2016

 -----------------------------------
 #p cam-b3lyp/Def2SVP td=(nstates=5)
 -----------------------------------

 --------------------------------
 TDDFT excited states in gaussian
 --------------------------------
 Symbolic Z-matrix:
 Charge =  0 Multiplicity = 1

                         Standard orientation:
 ---------------------------------------------------------------------
 Center     Atomic      Atomic             Coordinates (Angstroms)
 Number     Number       Type             X           Y           Z
 ---------------------------------------------------------------------
      1         12           0       29.337408    0.398556    0.550444
      2          6           0       29.149628   -2.175198   -1.869571
      3          6           0       28.637877    2.694627   -1.929553
      4          6           0       29.811041    2.865057    2.825014
      5          6           0       30.254524   -1.946819    2.989198
      6          7           0       29.057331    0.182592   -1.635175
      7          6           0       28.800274   -0.966599   -2.379031
      8          6           0       28.370088   -0.611935   -3.861113
      9          6           0       28.501030    0.934453   -3.868290
     10          6           0       28.802640    1.326808   -2.404564
     11          6           0       29.549647    1.586044   -4.845513
     12          6           0       27.013065   -1.243565   -4.378060
     13          6           0       27.137980   -2.127191   -5.582205
     14          1           0       25.952103   -2.052798   -6.623671
     15          7           0       29.237808    2.433123    0.410409
     16          6           0       28.870752    3.219636   -0.662631
     17          6           0       28.939622    4.621463   -0.280745
     18          6           0       29.275478    4.727650    1.098647
     19          6           0       29.440913    3.290283    1.527975
     20          6           0       28.529189    5.787962   -1.201881
     21          6           0       29.404412    5.960532    1.987397
     22          8           0       29.613525    5.913714    3.182158
     23          6           0       29.176314    7.446101    1.488357
     24          7           0       30.048142    0.450016    2.615811
     25          6           0       30.146950    1.574651    3.312457
     26          6           0       30.607588    1.313454    4.790869
     27          6           0       30.558672   -0.262787    4.887311
     28          6           0       30.241693   -0.638106    3.408141
     29          6           0       31.955477    2.020161    5.115228
     30          6           0       29.563076   -0.741880    5.925190
     31          6           0       30.062157   -1.908532    6.775817
     32          7           0       29.796541   -1.631831    0.628165
     33          6           0       30.057073   -2.473606    1.692445
     34          6           0       30.278998   -3.781251    1.156421
     35          6           0       29.901995   -3.752539   -0.209145
     36          6           0       29.608892   -2.395565   -0.520732
     37          6           0       30.724871   -4.971173    1.918434
     38          6           0       29.660808   -4.583781   -1.401438
     39          8           0       29.884602   -5.764015   -1.654149
     40          6           0       29.085874   -3.474979   -2.576029
     41          6           0       29.923034   -3.523671   -3.733908
     42          8           0       30.744092   -2.681948   -4.027400
     43          8           0       29.579580   -4.584374   -4.541322
     44          6           0       30.460618   -4.708176   -5.729239
     45          1           0       28.299314    3.440318   -2.652154
     46          1           0       30.024011    3.619605    3.584431
     47          1           0       30.457903   -2.618153    3.826876
     48          1           0       29.223393   -0.920147   -4.464286
     49          1           0       27.547715    1.399705   -4.119130
     50          1           0       29.076736    2.478008   -5.257617
     51          1           0       29.799762    0.858229   -5.617022
     52          1           0       30.481190    1.890190   -4.367792
     53          1           0       26.343742   -0.401788   -4.556135
     54          1           0       26.632395   -1.869569   -3.570842
     55          1           0       27.194661   -3.170190   -5.267929
     56          1           0       28.084591   -1.818078   -6.024563
     57          1           0       27.631973    6.203836   -0.744834
     58          1           0       28.182862    5.382792   -2.152965
     59          1           0       29.259933    6.590724   -1.307854
     60          1           0       28.174980    7.505099    1.060438
     61          1           0       30.024223    7.838405    0.926106
     62          1           0       29.324278    8.055014    2.379724
     63          1           0       29.896472    1.668158    5.536656
     64          1           0       31.582476   -0.578663    5.088652
     65          1           0       32.629418    1.285278    5.556431
     66          1           0       31.839256    2.912801    5.730391
     67          1           0       32.412366    2.375407    4.193018
     68          1           0       28.608105   -1.020769    5.481028
     69          1           0       29.233653    0.031898    6.620360
     70          1           0       30.989515   -2.322645    6.379936
     71          1           0       29.294680   -2.680441    6.712365
     72          1           0       30.119431   -1.657720    7.835139
     73          1           0       30.921640   -4.840569    2.982496
     74          1           0       31.486870   -5.453438    1.304972
     75          1           0       29.805032   -5.547946    2.017946
     76          1           0       28.065583   -3.746389   -2.848532
     77          1           0       31.493461   -4.849924   -5.410287
     78          1           0       30.277326   -3.819127   -6.332587
     79          1           0       30.232149   -5.582156   -6.337962
     80         12           0      -29.881864   -0.617892   -0.346272
     81          6           0      -28.049113    2.331802   -0.288197
     82          6           0      -27.235155   -2.210267    1.390918
     83          6           0      -31.968355   -3.040592    0.623901
     84          6           0      -32.649285    1.272228   -1.440574
     85          7           0      -27.956440    0.125422    0.790529
     86          6           0      -27.361006    1.302011    0.403966
     87          6           0      -25.976398    1.424561    0.958416
     88          6           0      -25.619281   -0.102040    1.265559
     89          6           0      -27.014375   -0.816822    1.184439
     90          6           0      -24.530558   -0.781493    0.291032
     91          6           0      -25.943708    2.479523    2.180475
     92          6           0      -24.663629    3.111233    2.400823
     93          1           0      -24.130836    2.943870    3.839652
     94          7           0      -29.627837   -2.454864    0.672010
     95          6           0      -28.450436   -2.934344    1.311423
     96          6           0      -28.745910   -4.256728    1.836480
     97          6           0      -30.114026   -4.546027    1.612988
     98          6           0      -30.622280   -3.351166    0.858865
     99          6           0      -27.755939   -5.028444    2.626746
    100          6           0      -30.849258   -5.849913    2.137061
    101          8           0      -30.166026   -6.660780    2.760501
    102          6           0      -32.232083   -6.254501    1.637885
    103          7           0      -31.991571   -0.757583   -0.330452
    104          6           0      -32.566180   -1.936453    0.018759
    105          6           0      -34.217097   -1.884284   -0.037648
    106          6           0      -34.414652   -0.557289   -0.916086
    107          6           0      -32.975408    0.047335   -0.950418
    108          6           0      -34.920321   -3.115685   -0.724491
    109          6           0      -35.419813    0.422426   -0.307618
    110          6           0      -36.675775    0.863054   -1.097072
    111          7           0      -30.203427    1.298599   -1.044483
    112          6           0      -31.350987    1.894838   -1.480370
    113          6           0      -31.039946    3.207572   -1.975170
    114          6           0      -29.711490    3.421867   -1.446813
    115          6           0      -29.294413    2.217514   -0.854772
    116          6           0      -32.003818    4.184672   -2.583839
    117          6           0      -28.692847    4.433230   -1.256190
    118          8           0      -28.594220    5.522489   -1.733869
    119          6           0      -27.470656    3.763378   -0.515363
    120          6           0      -26.177770    3.671200   -1.355471
    121          8           0      -26.118800    3.230123   -2.483096
    122          8           0      -25.112333    4.267560   -0.649954
    123          6           0      -23.877409    4.423334   -1.357530
    124          1           0      -26.358958   -2.661564    1.859426
    125          1           0      -32.714049   -3.669346    1.114533
    126          1           0      -33.529805    1.812241   -1.793462
    127          1           0      -25.236723    1.636897    0.185779
    128          1           0      -25.250244   -0.160998    2.290126
    129          1           0      -23.714351   -1.085835    0.946105
    130          1           0      -24.180559   -0.106992   -0.489797
    131          1           0      -25.012321   -1.661873   -0.135316
    132          1           0      -26.186676    1.864723    3.046967
    133          1           0      -26.797849    3.109777    1.931369
    134          1           0      -24.808067    4.167819    2.178499
    135          1           0      -23.909342    2.663397    1.753893
    136          1           0      -26.754207   -4.608641    2.536830
    137          1           0      -27.659028   -6.035253    2.219722
    138          1           0      -28.010419   -5.030730    3.686881
    139          1           0      -33.026188   -5.571647    1.941529
    140          1           0      -32.429651   -7.261582    2.006576
    141          1           0      -32.176798   -6.317031    0.551025
    142          1           0      -34.493806   -1.699422    0.999950
    143          1           0      -34.622247   -0.731956   -1.972008
    144          1           0      -35.488493   -3.675256    0.018015
    145          1           0      -34.163262   -3.771398   -1.156279
    146          1           0      -35.580262   -2.708566   -1.491295
    147          1           0      -34.927781    1.315398    0.077210
    148          1           0      -35.832093    0.113819    0.652918
    149          1           0      -36.715737    1.895760   -1.444582
    150          1           0      -37.498019    0.768378   -0.387400
    151          1           0      -36.831360    0.235335   -1.975315
    152          1           0      -31.409154    4.926032   -3.118137
    153          1           0      -32.446639    4.893550   -1.884903
    154          1           0      -32.809652    3.737038   -3.164925
    155          1           0      -27.292487    4.442958    0.318491
    156          1           0      -23.175702    4.405803   -0.522992
    157          1           0      -23.768094    5.424687   -1.773629
    158          1           0      -23.773306    3.663642   -2.131176
 ---------------------------------------------------------------------

 SCF Done:  E(RCAM-B3LYP) =  -4069.78237225     A.U. after   19 cycles

 Excitation energies and oscillator strengths:

 Excited State   1:      Singlet-A      1.6846 eV  736.00 nm  f=0.3875  <S**2>=0.000
     309 -> 316        0.17410
     312 -> 313        0.68817
     309 <- 316        0.10835
 This state for optimization and/or second-order correction.
 Total Energy, E(TD-HF/TD-DFT) =  -4069.72046548
 Copying the excited state density for this state as the 1-particle RhoCI density.

 Excited State   2:      Singlet-A      1.7837 eV  695.09 nm  f=0.3738  <S**2>=0.000
     310 -> 315        0.17650
     311 -> 314        0.68529
     310 <- 315        0.10146

 Excited State   3:      Singlet-A      2.2457 eV  552.09 nm  f=0.1076  <S**2>=0.000
     309 -> 313        0.63690
     312 -> 316       -0.29190

 Excited State   4:      Singlet-A      2.2587 eV  548.93 nm  f=0.1142  <S**2>=0.000
     310 -> 314        0.63968
     311 -> 315       -0.28423

 Excited State   5:      Singlet-A      3.2476 eV  381.78 nm  f=0.0000  <S**2>=0.000
     311 -> 313        0.70711

 The electronic state is 1-A.
 Alpha  occ. eigenvalues --  -46.89814 -46.88226 -19.25147 -19.24325 -19.20758
 Alpha  occ. eigenvalues --  -19.19876 -19.19708 -19.19378 -19.19217 -19.18272
 Alpha  occ. eigenvalues --  -14.42325 -14.42264 -14.42025 -14.41755 -14.40333
 Alpha  occ. eigenvalues --  -14.40210 -14.39094 -14.38714 -10.40097 -10.38316
 Alpha  occ. eigenvalues --  -10.36394 -10.36392 -10.35987 -10.34033 -10.32511
 Alpha  occ. eigenvalues --  -10.31970 -10.31824 -10.31633 -10.31473 -10.31264
 Alpha  occ. eigenvalues --  -10.31261 -10.31201 -10.31121 -10.30982 -10.30573
 Alpha  occ. eigenvalues --  -10.30488 -10.30180 -10.30163 -10.29802 -10.29666
 Alpha  occ. eigenvalues --  -10.29293 -10.28857 -10.28700 -10.28661 -10.28647
 Alpha  occ. eigenvalues --  -10.28522 -10.28521 -10.28493 -10.28489 -10.28235
 Alpha  occ. eigenvalues --  -10.28179 -10.28147 -10.28130 -10.28018 -10.27988
 Alpha  occ. eigenvalues --  -10.27824 -10.27801 -10.27776 -10.27664 -10.27658
 Alpha  occ. eigenvalues --  -10.27633 -10.27602 -10.27358 -10.27117 -10.27052
 Alpha  occ. eigenvalues --  -10.26900 -10.26877 -10.26771 -10.26713 -10.26710
 Alpha  occ. eigenvalues --  -10.26490 -10.26451 -10.26443 -10.26410 -10.26328
 Alpha  occ. eigenvalues --  -10.26305 -10.26242 -10.25974 -10.25871 -10.25815
 Alpha  occ. eigenvalues --  -10.25710 -10.25472 -10.25283 -10.25138 -10.24870
 Alpha  occ. eigenvalues --  -10.24645  -3.18231  -3.16756  -1.93081  -1.92741
 Alpha  occ. eigenvalues --   -1.92498  -1.91663  -1.91205  -1.91062  -1.16095
 Alpha  occ. eigenvalues --   -1.15869  -1.11507  -1.10809  -1.10304  -1.09258
 Alpha  occ. eigenvalues --   -1.08751  -1.07427  -1.04926  -1.04081  -1.02928
 Alpha  occ. eigenvalues --   -1.02463  -1.02397  -1.01958  -1.01609  -1.00936
 Alpha  occ. eigenvalues --   -0.92258  -0.91845  -0.89229  -0.89132  -0.88431
 Alpha  occ. eigenvalues --   -0.88385  -0.88198  -0.88038  -0.87216  -0.86888
 Alpha  occ. eigenvalues --   -0.86887  -0.86442  -0.85827  -0.85604  -0.84375
 Alpha  occ. eigenvalues --   -0.84106  -0.83636  -0.83383  -0.82714  -0.82502
 Alpha  occ. eigenvalues --   -0.82246  -0.81163  -0.81034  -0.80715  -0.80268
 Alpha  occ. eigenvalues --   -0.80096  -0.78430  -0.77849  -0.77345  -0.76937
 Alpha  occ. eigenvalues --   -0.76779  -0.76450  -0.76139  -0.75760  -0.74949
 Alpha  occ. eigenvalues --   -0.74715  -0.72676  -0.72241  -0.71359  -0.71297
 Alpha  occ. eigenvalues --   -0.69254  -0.69052  -0.68845  -0.68452  -0.67469
 Alpha  occ. eigenvalues --   -0.67421  -0.67234  -0.66521  -0.65933  -0.65626
 Alpha  occ. eigenvalues --   -0.64829  -0.64798  -0.64583  -0.64519  -0.64348
 Alpha  occ. eigenvalues --   -0.64109  -0.62837  -0.61143  -0.60033  -0.59665
 Alpha  occ. eigenvalues --   -0.59493  -0.59165  -0.59008  -0.58795  -0.58581
 Alpha  occ. eigenvalues --   -0.58022  -0.58022  -0.57806  -0.57480  -0.57003
 Alpha  occ. eigenvalues --   -0.56345  -0.55943  -0.55763  -0.55348  -0.54981
 Alpha  occ. eigenvalues --   -0.54849  -0.54735  -0.54240  -0.54021  -0.53693
 Alpha  occ. eigenvalues --   -0.53260  -0.53240  -0.53206  -0.53036  -0.52736
 Alpha  occ. eigenvalues --   -0.52614  -0.52551  -0.52462  -0.52125  -0.52106
 Alpha  occ. eigenvalues --   -0.51751  -0.51693  -0.51656  -0.51408  -0.51055
 Alpha  occ. eigenvalues --   -0.51016  -0.50912  -0.50813  -0.50586  -0.50216
 Alpha  occ. eigenvalues --   -0.50142  -0.50099  -0.49719  -0.49629  -0.49574
 Alpha  occ. eigenvalues --   -0.49513  -0.49463  -0.49232  -0.49163  -0.48776
 Alpha  occ. eigenvalues --   -0.48645  -0.48541  -0.48465  -0.48064  -0.48029
 Alpha  occ. eigenvalues --   -0.48002  -0.47906  -0.47733  -0.47491  -0.47321
 Alpha  occ. eigenvalues --   -0.47041  -0.46965  -0.46778  -0.46437  -0.46420
 Alpha  occ. eigenvalues --   -0.46214  -0.46185  -0.45995  -0.45937  -0.45691
 Alpha  occ. eigenvalues --   -0.45524  -0.45253  -0.45140  -0.44972  -0.44843
 Alpha  occ. eigenvalues --   -0.44779  -0.44676  -0.44525  -0.44468  -0.44089
 Alpha  occ. eigenvalues --   -0.43992  -0.43980  -0.43929  -0.43565  -0.43546
 Alpha  occ. eigenvalues --   -0.43396  -0.43286  -0.43193  -0.43124  -0.42960
 Alpha  occ. eigenvalues --   -0.42725  -0.42695  -0.42510  -0.42406  -0.42292
 Alpha  occ. eigenvalues --   -0.42209  -0.41993  -0.41505  -0.41441  -0.41172
 Alpha  occ. eigenvalues --   -0.41090  -0.40990  -0.40559  -0.40477  -0.40282
 Alpha  occ. eigenvalues --   -0.40022  -0.39817  -0.39674  -0.39428  -0.38683
 Alpha  occ. eigenvalues --   -0.38666  -0.38199  -0.37742  -0.37659  -0.37171
 Alpha  occ. eigenvalues --   -0.37082  -0.36863  -0.36709  -0.36244  -0.36244
 Alpha  occ. eigenvalues --   -0.35910  -0.35621  -0.34802  -0.34284  -0.34276
 Alpha  occ. eigenvalues --   -0.33841  -0.33294  -0.33079  -0.31653  -0.31597
 Alpha  occ. eigenvalues --   -0.31479  -0.31266  -0.30643  -0.30232  -0.30227
 Alpha  occ. eigenvalues --   -0.29983  -0.29187  -0.28656  -0.24330  -0.24060
 Alpha  occ. eigenvalues --   -0.21311  -0.21183
 Alpha virt. eigenvalues --   -0.08797  -0.08514  -0.01772  -0.01662   0.00048
 Alpha virt. eigenvalues --    0.00377   0.01319   0.02104   0.02149   0.02967
 Alpha virt. eigenvalues --    0.04542   0.04556   0.04654   0.05401   0.05817

 Mulliken charges:
               1
     1  Mg   0.816311
     2  C    0.025803
     3  C   -0.086839
     4  C   -0.055838
     5  C   -0.058739
     6  N   -0.312798
     7  C   -0.055458
     8  C   -0.012763
     9  C   -0.109550
    10  C    0.087983
    11  C    0.070609
    12  C    0.093575
    13  C   -0.080261
    14  H    0.012927
    15  N   -0.426195
    16  C    0.167050
    17  C   -0.153119
    18  C   -0.007872
    19  C    0.162616
    20  C    0.112423
    21  C   -0.007693
    22  O   -0.188108
    23  C    0.041588
    24  N   -0.245173
    25  C    0.014722
    26  C   -0.075047
    27  C   -0.009803
    28  C   -0.002069
    29  C    0.065594
    30  C    0.045605
    31  C    0.000088
    32  N   -0.378401
    33  C    0.150633
    34  C   -0.188276
    35  C    0.001865
    36  C    0.131829
    37  C    0.134314
    38  C    0.077222
    39  O   -0.163559
    40  C   -0.091556
    41  C    0.202875
    42  O   -0.222074
    43  O   -0.341847
    44  C    0.191517
    45  H   -0.034377
    46  H   -0.007061
    47  H   -0.044525
    48  H    0.030918
    49  H    0.006509
    50  H    0.015317
    51  H    0.021334
    52  H    0.028730
    53  H    0.014493
    54  H    0.009612
    55  H    0.043787
    56  H    0.030088
    57  H    0.030523
    58  H    0.009724
    59  H    0.043670
    60  H    0.041103
    61  H    0.033015
    62  H    0.021254
    63  H    0.014101
    64  H    0.009826
    65  H    0.013098
    66  H    0.028861
    67  H    0.019982
    68  H    0.006112
    69  H    0.004043
    70  H    0.022174
    71  H    0.008832
    72  H    0.018141
    73  H   -0.003104
    74  H    0.047721
    75  H    0.022300
    76  H    0.051785
    77  H    0.042341
    78  H    0.032272
    79  H    0.033294
    80  Mg   0.828057
    81  C   -0.072435
    82  C   -0.057829
    83  C   -0.081616
    84  C   -0.081428
    85  N   -0.265440
    86  C   -0.081261
    87  C   -0.050693
    88  C   -0.081850
    89  C    0.007708
    90  C    0.060791
    91  C    0.092495
    92  C   -0.035258
    93  H    0.002928
    94  N   -0.385526
    95  C    0.158105
    96  C   -0.142467
    97  C   -0.067427
    98  C    0.178874
    99  C    0.144045
   100  C    0.031877
   101  O   -0.206482
   102  C    0.035037
   103  N   -0.335718
   104  C    0.049448
   105  C   -0.075284
   106  C    0.031381
   107  C    0.005877
   108  C    0.071053
   109  C    0.013957
   110  C   -0.000427
   111  N   -0.323376
   112  C    0.132913
   113  C   -0.155244
   114  C   -0.032989
   115  C    0.194985
   116  C    0.109649
   117  C    0.027405
   118  O   -0.144005
   119  C   -0.010164
   120  C    0.212584
   121  O   -0.191226
   122  O   -0.358184
   123  C    0.169354
   124  H   -0.013831
   125  H   -0.041821
   126  H   -0.032958
   127  H    0.008071
   128  H    0.010251
   129  H    0.021951
   130  H    0.030837
   131  H    0.021836
   132  H    0.012240
   133  H    0.014209
   134  H    0.040368
   135  H    0.028148
   136  H   -0.012262
   137  H    0.032711
   138  H    0.042224
   139  H    0.049854
   140  H    0.031291
   141  H    0.045631
   142  H    0.029954
   143  H    0.018158
   144  H    0.017712
   145  H    0.025638
   146  H    0.023977
   147  H    0.007629
   148  H   -0.005476
   149  H    0.018756
   150  H    0.012247
   151  H    0.011902
   152  H    0.026176
   153  H    0.020813
   154  H    0.022583
   155  H    0.044394
   156  H    0.028338
   157  H    0.035820
   158  H    0.050437
 Sum of Mulliken charges =  -0.00000

 Dipole moment (field-independent basis, Debye):
    X=             -3.7777    Y=              2.2770    Z=              0.3288  Tot=              4.4231
 Quadrupole moment (field-independent basis, Debye-Ang):
   XX=           -466.9878   YY=           -557.3018   ZZ=           -502.4075
   XY=            195.5592   XZ=             -3.1954   YZ=              0.2378

 Normal termination of Gaussian 16 at Thu Sep 16 08:46:26 2021.
