 Gaussian 16, Revision A.03,
 Gaussian 16:  ES64L-G16RevA.03 25-Dec-2016

 ----------------------------------------------------------
 #p cam-b3lyp/Def2SVP td=(nstates=5) density=(transition=1)
 ----------------------------------------------------------

 --------------------------------
 TDDFT excited states in gaussian
 --------------------------------
 Symbolic Z-matrix:
 Charge =  0 Multiplicity = 1

                         Standard orientation:
 ---------------------------------------------------------------------
 Center     Atomic      Atomic             Coordinates (Angstroms)
 Number     Number       Type             X           Y           Z
 ---------------------------------------------------------------------
      1         12           0        9.291039    0.302662   -0.381749
      2          6           0        7.267974   -2.102262    1.231765
      3          6           0       11.139983   -2.093186   -1.691621
      4          6           0       11.631162    2.685281   -1.102707
      5          6           0        7.815236    2.756011    1.958823
      6          7           0        9.206743   -1.862475   -0.168535
      7          6           0        8.191798   -2.607595    0.315167
      8          6           0        8.357421   -4.061474   -0.168960
      9          6           0        9.535610   -4.049782   -1.089328
     10          6           0       10.050406   -2.583277   -0.970987
     11          6           0       10.548859   -5.234156   -0.810289
     12          6           0        7.109583   -4.797883   -0.761380
     13          6           0        7.221975   -5.840842   -1.954532
     14          1           0        6.439660   -7.158325   -1.851377
     15          7           0       11.012060    0.303102   -1.494916
     16          6           0       11.626627   -0.834783   -1.966705
     17          6           0       12.770257   -0.426495   -2.731888
     18          6           0       12.997848    0.995090   -2.565210
     19          6           0       11.895248    1.374447   -1.654453
     20          6           0       13.577414   -1.473745   -3.385731
     21          6           0       14.050072    1.933755   -3.205656
     22          8           0       14.094085    3.079337   -2.898728
     23          6           0       14.847115    1.481502   -4.385633
     24          7           0        9.674584    2.414948    0.397893
     25          6           0       10.638604    3.139191   -0.213625
     26          6           0       10.671993    4.617056    0.291628
     27          6           0        9.436416    4.673332    1.241200
     28          6           0        8.925244    3.211311    1.239635
     29          6           0       11.941058    5.041355    0.981760
     30          6           0        8.277857    5.670988    0.889894
     31          6           0        7.311634    5.314330   -0.188664
     32          7           0        7.849811    0.443396    1.258405
     33          6           0        7.361282    1.471938    2.012010
     34          6           0        6.271249    0.991600    2.825745
     35          6           0        6.168785   -0.403545    2.583323
     36          6           0        7.187878   -0.691576    1.652889
     37          6           0        5.517361    1.735185    3.871168
     38          6           0        5.492539   -1.621047    2.929422
     39          8           0        4.549792   -1.879681    3.668750
     40          6           0        6.138226   -2.771934    2.034487
     41          6           0        6.533781   -3.998362    2.839426
     42          8           0        7.394113   -3.999810    3.681665
     43          8           0        5.786301   -5.084337    2.412343
     44          6           0        6.072162   -6.311208    3.156942
     45          1           0       11.679323   -2.801714   -2.324337
     46          1           0       12.391551    3.401287   -1.420611
     47          1           0        7.304978    3.499096    2.575043
     48          1           0        8.547291   -4.525301    0.798994
     49          1           0        9.167313   -4.263612   -2.093068
     50          1           0       10.114473   -5.916947   -0.080261
     51          1           0       11.514653   -4.790318   -0.568888
     52          1           0       10.649871   -5.881479   -1.681618
     53          1           0        6.428762   -4.020861   -1.109839
     54          1           0        6.541576   -5.318719    0.009908
     55          1           0        8.289718   -6.047722   -2.029547
     56          1           0        6.927791   -5.349736   -2.882171
     57          1           0       14.610388   -1.134951   -3.309719
     58          1           0       13.305274   -1.472766   -4.440548
     59          1           0       13.544110   -2.514586   -3.063367
     60          1           0       15.738636    1.068313   -3.915677
     61          1           0       14.972094    2.319218   -5.072398
     62          1           0       14.423379    0.640889   -4.935545
     63          1           0       10.425255    5.322943   -0.501686
     64          1           0        9.584826    4.822779    2.310199
     65          1           0       12.732368    4.301983    0.851576
     66          1           0       11.811463    5.139508    2.059893
     67          1           0       12.221953    5.986878    0.518544
     68          1           0        8.698681    6.639533    0.619624
     69          1           0        7.774700    5.930871    1.821509
     70          1           0        7.766356    4.590421   -0.865167
     71          1           0        6.949345    6.064704   -0.891717
     72          1           0        6.423430    4.963146    0.337524
     73          1           0        6.127004    2.124308    4.686146
     74          1           0        4.979423    0.971444    4.433348
     75          1           0        4.874728    2.502756    3.439052
     76          1           0        5.377832   -3.031796    1.297751
     77          1           0        6.524542   -6.749262    2.267784
     78          1           0        5.080275   -6.700601    3.385143
     79          1           0        6.729251   -6.152118    4.012214
     80         12           0       -8.658374    0.899320   -0.594477
     81          6           0      -10.874067   -1.902295   -0.896571
     82          6           0       -6.144863   -1.185932   -0.254529
     83          6           0       -6.950622    3.538136    0.456554
     84          6           0      -11.693025    2.977491   -0.623456
     85          7           0       -8.536069   -1.296197   -0.626627
     86          6           0       -9.548978   -2.270523   -0.727868
     87          6           0       -9.015257   -3.751514   -0.665086
     88          6           0       -7.407765   -3.411136   -0.517628
     89          6           0       -7.310924   -1.889378   -0.474298
     90          6           0       -6.773303   -4.051473    0.790761
     91          6           0       -9.410011   -4.672043   -1.872046
     92          6           0       -8.584237   -5.942679   -2.034017
     93          1           0       -9.363422   -7.249869   -1.800121
     94          7           0       -6.766838    1.150975   -0.076601
     95          6           0       -5.787756    0.188878    0.005149
     96          6           0       -4.499282    0.741817    0.365616
     97          6           0       -4.770039    2.154387    0.557863
     98          6           0       -6.229580    2.334158    0.231641
     99          6           0       -3.231305    0.029212    0.434941
    100          6           0       -3.830971    3.285142    0.940516
    101          8           0       -4.143826    4.442551    0.956133
    102          6           0       -2.466109    2.842518    1.396789
    103          7           0       -9.253264    2.962045   -0.083202
    104          6           0       -8.304481    3.853889    0.298278
    105          6           0       -8.910709    5.272985    0.464911
    106          6           0      -10.387531    5.065622   -0.020406
    107          6           0      -10.455765    3.579551   -0.315239
    108          6           0       -8.834010    5.949130    1.876131
    109          6           0      -10.825191    5.895557   -1.278533
    110          6           0      -11.129408    7.376066   -0.959550
    111          7           0      -10.812180    0.675216   -0.702508
    112          6           0      -11.858290    1.565488   -0.780456
    113          6           0      -13.048836    0.853095   -1.025155
    114          6           0      -12.768962   -0.461900   -1.026872
    115          6           0      -11.363389   -0.572929   -0.801403
    116          6           0      -14.359613    1.577976   -1.301465
    117          6           0      -13.251545   -1.844616   -1.100945
    118          8           0      -14.366210   -2.278536   -1.238239
    119          6           0      -11.994648   -2.832945   -0.989929
    120          6           0      -12.106283   -3.545804    0.319931
    121          8           0      -11.734919   -3.250391    1.433419
    122          8           0      -12.726833   -4.740979    0.014803
    123          6           0      -12.958117   -5.684694    1.134247
    124          1           0       -5.257361   -1.797269   -0.078956
    125          1           0       -6.372339    4.325303    0.946304
    126          1           0      -12.471683    3.737999   -0.717303
    127          1           0       -9.323462   -4.172857    0.291917
    128          1           0       -6.892529   -3.858998   -1.367685
    129          1           0       -5.813181   -4.503296    0.541998
    130          1           0       -7.358003   -4.767929    1.367135
    131          1           0       -6.483267   -3.268391    1.490632
    132          1           0       -9.323183   -3.953060   -2.687719
    133          1           0      -10.450285   -4.983641   -1.968580
    134          1           0       -7.753731   -5.918631   -1.329042
    135          1           0       -8.291146   -6.035408   -3.079404
    136          1           0       -2.707924    0.523168   -0.383674
    137          1           0       -3.375523   -1.043909    0.308651
    138          1           0       -2.623110    0.152197    1.330856
    139          1           0       -1.781419    2.855627    0.548880
    140          1           0       -2.489978    2.033374    2.127308
    141          1           0       -2.227137    3.564941    2.176728
    142          1           0       -8.494217    5.853803   -0.358602
    143          1           0      -11.058990    5.184648    0.830222
    144          1           0       -9.785197    6.225263    2.332131
    145          1           0       -8.368812    6.918912    1.700869
    146          1           0       -8.299019    5.381967    2.637839
    147          1           0      -11.737901    5.467617   -1.691660
    148          1           0      -10.015672    5.760339   -1.997164
    149          1           0      -11.355844    7.498372    0.099811
    150          1           0      -11.954807    7.656447   -1.613817
    151          1           0      -10.289515    8.050965   -1.127141
    152          1           0      -15.027220    0.967398   -1.909509
    153          1           0      -14.137761    2.533004   -1.777812
    154          1           0      -14.832571    1.876150   -0.365518
    155          1           0      -11.947547   -3.522261   -1.833310
    156          1           0      -13.945877   -6.109624    0.956171
    157          1           0      -12.928649   -5.225472    2.122238
    158          1           0      -12.144655   -6.384979    0.942042
 ---------------------------------------------------------------------

 SCF Done:  E(RCAM-B3LYP) =  -4069.80375345     A.U. after   19 cycles

 Excitation energies and oscillator strengths:

 Excited State   1:      Singlet-A      1.6885 eV  734.30 nm  f=0.6672  <S**2>=0.000
     309 -> 315        0.11683
     310 -> 316       -0.13552
     311 -> 313        0.43573
     312 -> 314        0.52985
 This state for optimization and/or second-order correction.
 Total Energy, E(TD-HF/TD-DFT) =  -4069.74170365
 Copying the excited state density for this state as the 1-particle RhoCI density.

 Excited State   2:      Singlet-A      1.7099 eV  725.08 nm  f=0.1433  <S**2>=0.000
     309 -> 315        0.14579
     310 -> 316        0.11509
     311 -> 313        0.52714
     312 -> 314       -0.43631

 Excited State   3:      Singlet-A      2.1898 eV  566.19 nm  f=0.0892  <S**2>=0.000
     309 -> 313        0.64068
     311 -> 315       -0.28148

 Excited State   4:      Singlet-A      2.2124 eV  560.42 nm  f=0.1504  <S**2>=0.000
     310 -> 314        0.64875
     312 -> 316        0.26492

 Excited State   5:      Singlet-A      2.7615 eV  448.98 nm  f=0.0000  <S**2>=0.000
     312 -> 313        0.70688

 The electronic state is 1-A.
 Alpha  occ. eigenvalues --  -46.90133 -46.88454 -19.24913 -19.23744 -19.20194
 Alpha  occ. eigenvalues --  -19.19817 -19.19695 -19.19000 -19.18810 -19.18805
 Alpha  occ. eigenvalues --  -14.42357 -14.42074 -14.41914 -14.41206 -14.39632
 Alpha  occ. eigenvalues --  -14.39504 -14.38954 -14.38732 -10.39288 -10.38871
 Alpha  occ. eigenvalues --  -10.35843 -10.35159 -10.34977 -10.34618 -10.31775
 Alpha  occ. eigenvalues --  -10.31433 -10.31269 -10.31112 -10.31025 -10.30845
 Alpha  occ. eigenvalues --  -10.30786 -10.30750 -10.30488 -10.30262 -10.30068
 Alpha  occ. eigenvalues --  -10.29989 -10.29985 -10.29756 -10.29592 -10.29293
 Alpha  occ. eigenvalues --  -10.29160 -10.28963 -10.28811 -10.28785 -10.28743
 Alpha  occ. eigenvalues --  -10.28725 -10.28627 -10.28363 -10.28329 -10.28187
 Alpha  occ. eigenvalues --  -10.28062 -10.28008 -10.27809 -10.27701 -10.27643
 Alpha  occ. eigenvalues --  -10.27571 -10.27472 -10.27406 -10.27146 -10.27087
 Alpha  occ. eigenvalues --  -10.26952 -10.26859 -10.26827 -10.26775 -10.26725
 Alpha  occ. eigenvalues --  -10.26673 -10.26666 -10.26655 -10.26632 -10.26629
 Alpha  occ. eigenvalues --  -10.26623 -10.26623 -10.26484 -10.26389 -10.26225
 Alpha  occ. eigenvalues --  -10.26007 -10.25787 -10.25551 -10.25508 -10.25501
 Alpha  occ. eigenvalues --  -10.25494 -10.25434 -10.25203 -10.25070 -10.25030
 Alpha  occ. eigenvalues --  -10.24588  -3.18442  -3.16997  -1.93316  -1.92906
 Alpha  occ. eigenvalues --   -1.92733  -1.91893  -1.91433  -1.91321  -1.16463
 Alpha  occ. eigenvalues --   -1.15604  -1.13013  -1.11223  -1.10684  -1.09393
 Alpha  occ. eigenvalues --   -1.08710  -1.07365  -1.04365  -1.03689  -1.03276
 Alpha  occ. eigenvalues --   -1.03176  -1.02622  -1.02390  -1.01972  -1.01474
 Alpha  occ. eigenvalues --   -0.92901  -0.91768  -0.89457  -0.88993  -0.88809
 Alpha  occ. eigenvalues --   -0.88388  -0.88121  -0.88014  -0.87505  -0.87303
 Alpha  occ. eigenvalues --   -0.87021  -0.86732  -0.86241  -0.85904  -0.84121
 Alpha  occ. eigenvalues --   -0.83806  -0.83774  -0.83089  -0.82644  -0.82143
 Alpha  occ. eigenvalues --   -0.82068  -0.81887  -0.80992  -0.80596  -0.80549
 Alpha  occ. eigenvalues --   -0.79960  -0.78419  -0.77950  -0.77306  -0.77222
 Alpha  occ. eigenvalues --   -0.76875  -0.76529  -0.76007  -0.75432  -0.74782
 Alpha  occ. eigenvalues --   -0.74702  -0.72653  -0.72470  -0.71607  -0.71207
 Alpha  occ. eigenvalues --   -0.69949  -0.69533  -0.69398  -0.68656  -0.68350
 Alpha  occ. eigenvalues --   -0.67609  -0.67038  -0.66823  -0.65061  -0.64937
 Alpha  occ. eigenvalues --   -0.64497  -0.64421  -0.64300  -0.64291  -0.64156
 Alpha  occ. eigenvalues --   -0.63775  -0.61869  -0.61354  -0.60155  -0.59935
 Alpha  occ. eigenvalues --   -0.59699  -0.59353  -0.58950  -0.58700  -0.58500
 Alpha  occ. eigenvalues --   -0.58228  -0.58149  -0.57731  -0.57518  -0.56750
 Alpha  occ. eigenvalues --   -0.56305  -0.56013  -0.56001  -0.55658  -0.55533
 Alpha  occ. eigenvalues --   -0.55188  -0.54861  -0.54732  -0.54367  -0.54191
 Alpha  occ. eigenvalues --   -0.54163  -0.53964  -0.53845  -0.53556  -0.53464
 Alpha  occ. eigenvalues --   -0.52906  -0.52533  -0.52505  -0.52270  -0.51879
 Alpha  occ. eigenvalues --   -0.51809  -0.51508  -0.51336  -0.51183  -0.51069
 Alpha  occ. eigenvalues --   -0.50962  -0.50883  -0.50765  -0.50428  -0.50425
 Alpha  occ. eigenvalues --   -0.50177  -0.50087  -0.49690  -0.49672  -0.49551
 Alpha  occ. eigenvalues --   -0.49347  -0.49316  -0.49126  -0.49040  -0.48901
 Alpha  occ. eigenvalues --   -0.48749  -0.48711  -0.48468  -0.48276  -0.47824
 Alpha  occ. eigenvalues --   -0.47824  -0.47687  -0.47622  -0.47348  -0.47260
 Alpha  occ. eigenvalues --   -0.46946  -0.46911  -0.46646  -0.46230  -0.46182
 Alpha  occ. eigenvalues --   -0.45933  -0.45784  -0.45679  -0.45635  -0.45560
 Alpha  occ. eigenvalues --   -0.45332  -0.45194  -0.45063  -0.44926  -0.44771
 Alpha  occ. eigenvalues --   -0.44733  -0.44697  -0.44608  -0.44462  -0.44241
 Alpha  occ. eigenvalues --   -0.43870  -0.43856  -0.43788  -0.43677  -0.43392
 Alpha  occ. eigenvalues --   -0.43345  -0.43140  -0.43082  -0.43060  -0.42750
 Alpha  occ. eigenvalues --   -0.42649  -0.42482  -0.42434  -0.42166  -0.41974
 Alpha  occ. eigenvalues --   -0.41953  -0.41693  -0.41619  -0.41492  -0.41017
 Alpha  occ. eigenvalues --   -0.40970  -0.40829  -0.40739  -0.40663  -0.40381
 Alpha  occ. eigenvalues --   -0.40240  -0.39333  -0.39244  -0.39070  -0.38670
 Alpha  occ. eigenvalues --   -0.38257  -0.38051  -0.38004  -0.37631  -0.37524
 Alpha  occ. eigenvalues --   -0.37038  -0.36897  -0.36447  -0.36228  -0.36082
 Alpha  occ. eigenvalues --   -0.35858  -0.35635  -0.34787  -0.34533  -0.33824
 Alpha  occ. eigenvalues --   -0.33692  -0.33293  -0.32472  -0.31908  -0.31187
 Alpha  occ. eigenvalues --   -0.30992  -0.30776  -0.30693  -0.30460  -0.29978
 Alpha  occ. eigenvalues --   -0.29966  -0.29620  -0.29494  -0.23965  -0.23472
 Alpha  occ. eigenvalues --   -0.21193  -0.20841
 Alpha virt. eigenvalues --   -0.08783  -0.08411  -0.01760  -0.01014   0.00169
 Alpha virt. eigenvalues --    0.01006   0.01007   0.02369   0.02565   0.02794
 Alpha virt. eigenvalues --    0.04347   0.05036   0.05520   0.05806   0.05958

 Mulliken charges:
               1
     1  Mg  12.000550
     2  C    6.019756
     3  C    5.990938
     4  C    5.985938
     5  C    6.003501
     6  N    7.009427
     7  C    5.974957
     8  C    6.004771
     9  C    5.991345
    10  C    6.022032
    11  C    5.999983
    12  C    6.000879
    13  C    5.998367
    14  H    1.001930
    15  N    6.992873
    16  C    6.027965
    17  C    6.012114
    18  C    6.012410
    19  C    6.021979
    20  C    5.994806
    21  C    6.008830
    22  O    8.016334
    23  C    5.996740
    24  N    6.998947
    25  C    6.019788
    26  C    5.991581
    27  C    6.002539
    28  C    5.983091
    29  C    5.999449
    30  C    6.003367
    31  C    6.005521
    32  N    7.003018
    33  C    5.977103
    34  C    5.975020
    35  C    5.999684
    36  C    5.975386
    37  C    6.002384
    38  C    5.990854
    39  O    7.979939
    40  C    5.997753
    41  C    5.997647
    42  O    7.998184
    43  O    7.998786
    44  C    6.000933
    45  H    1.006159
    46  H    1.003524
    47  H    0.991914
    48  H    1.001735
    49  H    1.003579
    50  H    1.008024
    51  H    0.998003
    52  H    1.002270
    53  H    1.000768
    54  H    1.002465
    55  H    0.995748
    56  H    0.998514
    57  H    1.012273
    58  H    1.014107
    59  H    1.013513
    60  H    1.006089
    61  H    1.009370
    62  H    1.002494
    63  H    1.001478
    64  H    1.001159
    65  H    0.995608
    66  H    1.006309
    67  H    1.001363
    68  H    0.992911
    69  H    1.000745
    70  H    0.993484
    71  H    0.994740
    72  H    1.003148
    73  H    0.985362
    74  H    0.990225
    75  H    0.984435
    76  H    0.995042
    77  H    0.996423
    78  H    0.998588
    79  H    0.999036
    80  Mg  11.999312
    81  C    6.022898
    82  C    5.989632
    83  C    5.983080
    84  C    6.011791
    85  N    7.007765
    86  C    5.973276
    87  C    6.013256
    88  C    5.988329
    89  C    6.023350
    90  C    5.999502
    91  C    6.001758
    92  C    5.999361
    93  H    0.999570
    94  N    6.993457
    95  C    6.036187
    96  C    6.012669
    97  C    6.016177
    98  C    6.026047
    99  C    5.994652
   100  C    6.011206
   101  O    8.023152
   102  C    5.992552
   103  N    6.998752
   104  C    6.027952
   105  C    5.989615
   106  C    6.008389
   107  C    5.974918
   108  C    5.999499
   109  C    6.005638
   110  C    5.998769
   111  N    7.003344
   112  C    5.969228
   113  C    5.978290
   114  C    5.998210
   115  C    5.964952
   116  C    6.001580
   117  C    5.986228
   118  O    7.976096
   119  C    5.994191
   120  C    6.000491
   121  O    7.993919
   122  O    7.999283
   123  C    6.001857
   124  H    1.007772
   125  H    1.003555
   126  H    0.991000
   127  H    0.995612
   128  H    1.003540
   129  H    1.000418
   130  H    1.009382
   131  H    0.995641
   132  H    0.998619
   133  H    1.003500
   134  H    0.994236
   135  H    0.997762
   136  H    1.014591
   137  H    1.015010
   138  H    1.017796
   139  H    1.009593
   140  H    1.006226
   141  H    1.012879
   142  H    1.000369
   143  H    1.000104
   144  H    1.007327
   145  H    1.000761
   146  H    0.996620
   147  H    1.004249
   148  H    0.992539
   149  H    0.997617
   150  H    0.999710
   151  H    0.994161
   152  H    0.987626
   153  H    0.985681
   154  H    0.982789
   155  H    0.993132
   156  H    0.997629
   157  H    0.997400
   158  H    0.994969
 Sum of Mulliken charges = 624.00000

 Dipole moment (field-independent basis, Debye):
    X=             14.1153    Y=              0.6719    Z=             -2.9523  Tot=             14.4364
 Quadrupole moment (field-independent basis, Debye-Ang):
   XX=            -41.7402   YY=             -2.4776   ZZ=             -1.2924
   XY=             -8.8915   XZ=            -57.3704   YZ=              1.0492

 Normal termination of Gaussian 16 at Wed Sep 22 04:26:40 2021.
