 Gaussian 16, Revision A.03,
 Gaussian 16:  ES64L-G16RevA.03 25-Dec-2016

 ----------------------------------------------------------
 #p cam-b3lyp/Def2SVP td=(nstates=5) density=(transition=1)
 ----------------------------------------------------------

 --------------------------------
 TDDFT excited states in gaussian
 --------------------------------
 Symbolic Z-matrix:
 Charge =  0 Multiplicity = 1

                         Standard orientation:
 ---------------------------------------------------------------------
 Center     Atomic      Atomic             Coordinates (Angstroms)
 Number     Number       Type             X           Y           Z
 ---------------------------------------------------------------------
      1         12           0       -0.794987    0.127734    0.032658
      2          6           0        2.834220    0.082357    0.136498
      3          6           0       -0.601590   -3.237839    0.052946
      4          6           0       -3.984922    0.190464   -0.119533
      5          6           0       -0.663618    3.649269   -0.311441
      6          7           0        1.031091   -1.440955    0.123216
      7          6           0        2.348394   -1.205822    0.250798
      8          6           0        3.103310   -2.525201    0.501627
      9          6           0        1.959492   -3.517502   -0.013688
     10          6           0        0.729654   -2.720842    0.114350
     11          6           0        2.211904   -4.311865   -1.284217
     12          6           0        3.470402   -2.608844    1.993325
     13          6           0        4.715627   -3.504663    2.260833
     14          1           0        5.685905   -4.022386    1.100904
     15          7           0       -2.173438   -1.344119    0.018457
     16          6           0       -1.924563   -2.701094   -0.057828
     17          6           0       -3.208378   -3.387336   -0.166088
     18          6           0       -4.219500   -2.395290   -0.139861
     19          6           0       -3.454514   -1.117448   -0.083168
     20          6           0       -3.361522   -4.838398   -0.284052
     21          6           0       -5.829429   -2.550714   -0.134411
     22          8           0       -6.550396   -1.611982    0.066566
     23          6           0       -6.503685   -3.933426   -0.082130
     24          7           0       -2.103835    1.700830   -0.457930
     25          6           0       -3.403622    1.466925   -0.295649
     26          6           0       -4.270353    2.695058   -0.371399
     27          6           0       -3.204862    3.765570   -0.031084
     28          6           0       -1.904363    2.996500   -0.448692
     29          6           0       -4.927128    2.949882   -1.807308
     30          6           0       -3.204954    4.302982    1.461384
     31          6           0       -4.531745    4.336209    2.274430
     32          7           0        0.710807    1.576789   -0.181154
     33          6           0        0.658232    2.930223   -0.246009
     34          6           0        1.922330    3.504533   -0.139544
     35          6           0        2.764863    2.433875   -0.045200
     36          6           0        2.026269    1.267119   -0.049219
     37          6           0        2.228307    4.998385   -0.075153
     38          6           0        4.193941    2.122242    0.107628
     39          8           0        5.209471    2.794356    0.007624
     40          6           0        4.242054    0.545191    0.311855
     41          6           0        5.204552    0.012448   -0.636492
     42          8           0        5.030737   -0.177473   -1.844479
     43          8           0        6.403622    0.009741   -0.017584
     44          6           0        7.509432   -0.134664   -0.947324
     45          1           0       -0.525576   -4.312778   -0.124071
     46          1           0       -5.072459    0.171707   -0.210383
     47          1           0       -0.680206    4.740907   -0.323291
     48          1           0        3.952510   -2.636278   -0.172748
     49          1           0        1.890382   -4.299556    0.741198
     50          1           0        2.306257   -5.379562   -1.088497
     51          1           0        3.120976   -3.961682   -1.772793
     52          1           0        1.452680   -4.172845   -2.053895
     53          1           0        2.653692   -3.125545    2.497907
     54          1           0        3.569860   -1.639633    2.481689
     55          1           0        4.472460   -4.352805    2.901659
     56          1           0        5.245278   -2.923724    3.015741
     57          1           0       -2.502966   -5.370324    0.125324
     58          1           0       -3.469519   -5.025075   -1.352642
     59          1           0       -4.228696   -5.238424    0.241849
     60          1           0       -6.319189   -4.478711    0.843435
     61          1           0       -6.207482   -4.414927   -1.014332
     62          1           0       -7.580305   -3.824462   -0.215563
     63          1           0       -5.039530    2.491733    0.373286
     64          1           0       -3.276350    4.654086   -0.657930
     65          1           0       -5.956431    3.183529   -1.536161
     66          1           0       -4.916999    2.082353   -2.468084
     67          1           0       -4.531601    3.797435   -2.365751
     68          1           0       -2.745990    5.290544    1.473961
     69          1           0       -2.618704    3.525039    1.950809
     70          1           0       -4.700158    3.378080    2.765488
     71          1           0       -5.270494    4.642558    1.532999
     72          1           0       -4.538371    5.130605    3.019947
     73          1           0        1.343216    5.437484    0.385788
     74          1           0        2.316147    5.462108   -1.057239
     75          1           0        3.123183    5.136934    0.531295
     76          1           0        4.571095    0.379505    1.338483
     77          1           0        8.486012   -0.115735   -0.464398
     78          1           0        7.473582    0.478123   -1.848201
     79          1           0        7.512370   -1.135744   -1.379899
 ---------------------------------------------------------------------

 SCF Done:  E(RCAM-B3LYP) =  -2034.88058568     A.U. after   17 cycles

 Excitation energies and oscillator strengths:

 Excited State   1:      Singlet-A      1.8346 eV  675.81 nm  f=0.3716  <S**2>=0.000
     155 ->158        -0.18819
     156 ->157         0.68155
     155 <-158        -0.10398
 This state for optimization and/or second-order correction.
 Total Energy, E(TD-HF/TD-DFT) =  -2034.81316483
 Copying the excited state density for this state as the 1-particle RhoCI density.

 Excited State   2:      Singlet-A      2.2402 eV  553.45 nm  f=0.1574  <S**2>=0.000
     155 ->157         0.65520
     156 ->158         0.25320

 Excited State   3:      Singlet-A      3.5754 eV  346.77 nm  f=0.0012  <S**2>=0.000
     152 ->157        -0.14993
     154 ->157         0.66659

 Excited State   4:      Singlet-A      3.6750 eV  337.37 nm  f=0.4247  <S**2>=0.000
     151 ->157        -0.21083
     152 ->157        -0.26560
     155 ->157        -0.20114
     156 ->158         0.57305

 Excited State   5:      Singlet-A      3.7089 eV  334.28 nm  f=0.0067  <S**2>=0.000
     153 ->157         0.56324
     153 ->159        -0.25705
     153 ->161         0.25860

 The electronic state is 1-A.
 Alpha  occ. eigenvalues --  -46.89359 -19.24887 -19.20523 -19.18856 -19.18759
 Alpha  occ. eigenvalues --  -14.41478 -14.41126 -14.39950 -14.38640 -10.38209
 Alpha  occ. eigenvalues --  -10.36975 -10.34813 -10.31245 -10.30792 -10.30730
 Alpha  occ. eigenvalues --  -10.30618 -10.30523 -10.29599 -10.29583 -10.29424
 Alpha  occ. eigenvalues --  -10.29200 -10.28497 -10.28406 -10.27963 -10.27833
 Alpha  occ. eigenvalues --  -10.27703 -10.27522 -10.27502 -10.27479 -10.27365
 Alpha  occ. eigenvalues --  -10.27292 -10.27259 -10.27124 -10.27119 -10.26497
 Alpha  occ. eigenvalues --  -10.26210 -10.26080 -10.25986 -10.25537 -10.25465
 Alpha  occ. eigenvalues --  -10.25365 -10.25220 -10.23716  -3.17859  -1.92760
 Alpha  occ. eigenvalues --   -1.92333  -1.92144  -1.16479  -1.12605  -1.09448
 Alpha  occ. eigenvalues --   -1.06629  -1.05780  -1.05198  -1.04631  -1.03408
 Alpha  occ. eigenvalues --   -0.92340  -0.89165  -0.88741  -0.88103  -0.87517
 Alpha  occ. eigenvalues --   -0.86899  -0.85584  -0.84366  -0.83099  -0.82376
 Alpha  occ. eigenvalues --   -0.81936  -0.80724  -0.80089  -0.78601  -0.76833
 Alpha  occ. eigenvalues --   -0.76631  -0.75706  -0.75257  -0.72750  -0.71656
 Alpha  occ. eigenvalues --   -0.69657  -0.68757  -0.67573  -0.66764  -0.65438
 Alpha  occ. eigenvalues --   -0.65066  -0.64662  -0.63678  -0.61800  -0.60808
 Alpha  occ. eigenvalues --   -0.59500  -0.59236  -0.58401  -0.57912  -0.57472
 Alpha  occ. eigenvalues --   -0.56532  -0.55471  -0.55182  -0.54620  -0.54037
 Alpha  occ. eigenvalues --   -0.53780  -0.53603  -0.52952  -0.52866  -0.52267
 Alpha  occ. eigenvalues --   -0.51670  -0.51286  -0.51153  -0.50650  -0.50457
 Alpha  occ. eigenvalues --   -0.50031  -0.49704  -0.49079  -0.48913  -0.48762
 Alpha  occ. eigenvalues --   -0.48606  -0.48290  -0.47899  -0.47498  -0.47387
 Alpha  occ. eigenvalues --   -0.47042  -0.46728  -0.46203  -0.45754  -0.45431
 Alpha  occ. eigenvalues --   -0.44929  -0.44641  -0.44370  -0.44320  -0.44056
 Alpha  occ. eigenvalues --   -0.43894  -0.43799  -0.43302  -0.43248  -0.42958
 Alpha  occ. eigenvalues --   -0.42652  -0.42472  -0.42251  -0.42070  -0.41410
 Alpha  occ. eigenvalues --   -0.41349  -0.40398  -0.39729  -0.39329  -0.38599
 Alpha  occ. eigenvalues --   -0.38247  -0.38077  -0.37444  -0.36596  -0.35918
 Alpha  occ. eigenvalues --   -0.35644  -0.34167  -0.33718  -0.32476  -0.31925
 Alpha  occ. eigenvalues --   -0.31519  -0.30603  -0.30362  -0.29473  -0.23370
 Alpha  occ. eigenvalues --   -0.21361
 Alpha virt. eigenvalues --   -0.08251  -0.01074   0.00571   0.02427   0.02747
 Alpha virt. eigenvalues --    0.04207   0.05723   0.05886   0.06846   0.07710
 Alpha virt. eigenvalues --    0.08457   0.09059   0.09374   0.09578   0.10834

 Mulliken charges:
               1
     1  Mg  11.995876
     2  C    6.023655
     3  C    5.988553
     4  C    5.970607
     5  C    6.017763
     6  N    7.013037
     7  C    5.968153
     8  C    6.008389
     9  C    5.990825
    10  C    6.030399
    11  C    5.996086
    12  C    6.006740
    13  C    5.999386
    14  H    0.998635
    15  N    6.985150
    16  C    6.048839
    17  C    6.012201
    18  C    6.021978
    19  C    6.035299
    20  C    5.994633
    21  C    6.013187
    22  O    8.025857
    23  C    5.994931
    24  N    6.996345
    25  C    6.041038
    26  C    5.990754
    27  C    6.002897
    28  C    5.968936
    29  C    6.001480
    30  C    6.004335
    31  C    5.998218
    32  N    7.003131
    33  C    5.962502
    34  C    5.971730
    35  C    5.999681
    36  C    5.961895
    37  C    6.000749
    38  C    5.983276
    39  O    7.971900
    40  C    5.997336
    41  C    5.993827
    42  O    7.992460
    43  O    7.999510
    44  C    6.004528
    45  H    1.011293
    46  H    1.001413
    47  H    0.990357
    48  H    1.000465
    49  H    1.000804
    50  H    1.003099
    51  H    1.014224
    52  H    0.998045
    53  H    0.987122
    54  H    1.007159
    55  H    0.995169
    56  H    1.002081
    57  H    1.016312
    58  H    1.018595
    59  H    1.016651
    60  H    1.007986
    61  H    1.006143
    62  H    1.014180
    63  H    0.996842
    64  H    1.000060
    65  H    1.002232
    66  H    0.996737
    67  H    1.011905
    68  H    1.002626
    69  H    0.998882
    70  H    0.991887
    71  H    0.996110
    72  H    0.999792
    73  H    0.982321
    74  H    0.978349
    75  H    0.984849
    76  H    0.992751
    77  H    0.995003
    78  H    0.999070
    79  H    0.992781
 Sum of Mulliken charges = 312.00000

 Dipole moment (field-independent basis, Debye):
    X=             -7.2650    Y=             -7.3487    Z=             -0.1960  Tot=             10.3355
 Quadrupole moment (field-independent basis, Debye-Ang):
   XX=              7.7049   YY=             -0.3353   ZZ=             -0.2622
   XY=              5.0495   XZ=              1.5997   YZ=              1.2684

 Normal termination of Gaussian 16 at Fri Oct  8 17:08:04 2021.
