 Gaussian 16, Revision A.03,
 Gaussian 16:  ES64L-G16RevA.03 25-Dec-2016

 ----------------------------------------------------------
 #p cam-b3lyp/Def2SVP td=(nstates=5) density=(transition=1)
 ----------------------------------------------------------

 --------------------------------
 TDDFT excited states in gaussian
 --------------------------------
 Symbolic Z-matrix:
 Charge =  0 Multiplicity = 1

                         Standard orientation:
 ---------------------------------------------------------------------
 Center     Atomic      Atomic             Coordinates (Angstroms)
 Number     Number       Type             X           Y           Z
 ---------------------------------------------------------------------
      1         12           0      -30.348641    0.027173   -0.172253
      2          6           0      -26.937512   -0.572510   -0.443758
      3          6           0      -30.355292   -2.496593    2.365878
      4          6           0      -33.458183    0.815505    0.545081
      5          6           0      -29.923347    2.906784   -2.143213
      6          7           0      -28.791854   -1.267847    0.906935
      7          6           0      -27.475282   -1.370436    0.517204
      8          6           0      -26.742221   -2.384406    1.399674
      9          6           0      -27.926819   -3.142420    2.060258
     10          6           0      -29.109133   -2.243302    1.811210
     11          6           0      -28.249676   -4.609151    1.572165
     12          6           0      -25.793907   -1.726025    2.415178
     13          6           0      -24.930370   -2.653798    3.181136
     14          1           0      -23.616855   -2.054903    3.814460
     15          7           0      -31.749937   -0.723339    1.279017
     16          6           0      -31.569965   -1.768374    2.198588
     17          6           0      -32.798684   -1.940359    2.922310
     18          6           0      -33.684882   -0.882703    2.497894
     19          6           0      -32.968801   -0.212364    1.358046
     20          6           0      -32.970482   -2.985141    4.059329
     21          6           0      -35.072454   -0.669524    3.111239
     22          8           0      -35.563918   -1.470733    3.888758
     23          6           0      -35.842297    0.540639    2.742001
     24          7           0      -31.570027    1.521064   -0.910064
     25          6           0      -32.833446    1.598241   -0.478452
     26          6           0      -33.511572    2.911130   -1.044331
     27          6           0      -32.393557    3.651420   -1.874522
     28          6           0      -31.153652    2.640208   -1.588121
     29          6           0      -34.863464    2.756220   -1.789344
     30          6           0      -32.134487    5.055846   -1.288457
     31          6           0      -31.658172    6.107224   -2.298122
     32          7           0      -28.785454    1.038744   -1.143185
     33          6           0      -28.771429    2.104763   -1.998483
     34          6           0      -27.427165    2.217684   -2.576997
     35          6           0      -26.733212    1.151992   -2.069937
     36          6           0      -27.541386    0.500934   -1.165710
     37          6           0      -26.983380    3.230581   -3.637396
     38          6           0      -25.451359    0.513789   -2.056470
     39          8           0      -24.430834    0.734857   -2.660655
     40          6           0      -25.535756   -0.645092   -1.007703
     41          6           0      -25.356304   -1.927915   -1.741603
     42          8           0      -25.926055   -2.280671   -2.736790
     43          8           0      -24.494232   -2.751218   -0.996665
     44          6           0      -24.277665   -4.066139   -1.529602
     45          1           0      -30.275178   -3.341544    3.052296
     46          1           0      -34.482058    1.178534    0.660242
     47          1           0      -29.771841    3.752893   -2.816899
     48          1           0      -26.247429   -3.070495    0.713578
     49          1           0      -27.895999   -3.220033    3.146492
     50          1           0      -28.290986   -5.188314    2.494397
     51          1           0      -27.741211   -4.972548    0.678729
     52          1           0      -29.283377   -4.594704    1.227000
     53          1           0      -26.277293   -1.194280    3.235192
     54          1           0      -25.169591   -0.987403    1.912297
     55          1           0      -24.670081   -3.467101    2.503723
     56          1           0      -25.524339   -3.117394    3.968585
     57          1           0      -32.922974   -2.282828    4.892166
     58          1           0      -32.122294   -3.648020    4.231613
     59          1           0      -33.841066   -3.634435    4.153885
     60          1           0      -35.138912    1.362594    2.875134
     61          1           0      -36.644859    0.671634    3.468015
     62          1           0      -36.125720    0.352437    1.706164
     63          1           0      -33.761483    3.507310   -0.166258
     64          1           0      -32.573170    3.708006   -2.947661
     65          1           0      -35.652103    3.130057   -1.135581
     66          1           0      -34.969761    1.717785   -2.101364
     67          1           0      -34.890408    3.430067   -2.645651
     68          1           0      -31.387479    4.898087   -0.510932
     69          1           0      -32.975260    5.466529   -0.729046
     70          1           0      -32.409692    6.891733   -2.203037
     71          1           0      -31.528247    5.734852   -3.314349
     72          1           0      -30.711995    6.540769   -1.974028
     73          1           0      -26.017233    3.707880   -3.476923
     74          1           0      -27.808834    3.942668   -3.622553
     75          1           0      -27.124746    2.736886   -4.598973
     76          1           0      -24.724630   -0.474729   -0.299679
     77          1           0      -23.251307   -4.082703   -1.896346
     78          1           0      -24.935372   -4.441557   -2.313924
     79          1           0      -24.398406   -4.771139   -0.707552
     80         12           0       30.191401    0.250185    0.229983
     81          6           0       27.432251   -0.066763   -1.734128
     82          6           0       31.370396   -2.805980   -0.822024
     83          6           0       32.790694    0.622000    2.366849
     84          6           0       28.719752    3.139864    1.635601
     85          7           0       29.359257   -1.370469   -0.968015
     86          6           0       28.400756   -1.112389   -1.897381
     87          6           0       28.334347   -2.134319   -2.981248
     88          6           0       29.488835   -3.142258   -2.469152
     89          6           0       30.135624   -2.410392   -1.339295
     90          6           0       28.912045   -4.555872   -2.005430
     91          6           0       28.714248   -1.438642   -4.370691
     92          6           0       28.218453   -2.113167   -5.651633
     93          1           0       27.656912   -3.555215   -5.719968
     94          7           0       31.918030   -0.845573    0.668692
     95          6           0       32.202656   -2.111069    0.130180
     96          6           0       33.448547   -2.548408    0.716001
     97          6           0       33.884975   -1.554631    1.615611
     98          6           0       32.862526   -0.521423    1.524516
     99          6           0       34.112221   -3.876946    0.284330
    100          6           0       35.170057   -1.606206    2.596695
    101          8           0       35.552576   -0.626398    3.248709
    102          6           0       36.050089   -2.830220    2.789223
    103          7           0       30.702365    1.764809    1.761262
    104          6           0       31.822923    1.627959    2.509732
    105          6           0       31.831284    2.603275    3.685666
    106          6           0       30.656980    3.654493    3.246996
    107          6           0       30.011347    2.901530    2.073189
    108          6           0       31.725287    1.952764    5.140388
    109          6           0       31.146212    5.066275    2.641118
    110          6           0       30.557357    6.360209    3.172282
    111          7           0       28.466933    1.409307    0.016707
    112          6           0       27.994358    2.508884    0.629422
    113          6           0       26.716250    2.940269   -0.018623
    114          6           0       26.521980    1.940758   -1.001326
    115          6           0       27.556852    0.989791   -0.826241
    116          6           0       25.850860    4.126454    0.221418
    117          6           0       25.608610    1.585869   -2.021941
    118          8           0       24.564066    2.153043   -2.403011
    119          6           0       26.152955    0.259649   -2.546673
    120          6           0       25.153325   -0.765149   -2.349929
    121          8           0       24.584268   -1.119099   -1.365035
    122          8           0       25.017948   -1.413477   -3.573936
    123          6           0       24.098790   -2.600646   -3.761435
    124          1           0       31.912025   -3.642293   -1.267988
    125          1           0       33.580259    0.684941    3.119025
    126          1           0       28.120750    3.896932    2.144809
    127          1           0       27.422587   -2.696862   -3.181121
    128          1           0       30.226008   -3.329695   -3.249862
    129          1           0       29.538435   -5.420338   -2.224291
    130          1           0       27.888759   -4.658516   -2.366285
    131          1           0       28.846129   -4.515527   -0.917685
    132          1           0       29.792679   -1.318631   -4.475888
    133          1           0       28.283671   -0.438665   -4.312435
    134          1           0       29.046263   -2.039676   -6.358058
    135          1           0       27.449063   -1.483912   -6.097425
    136          1           0       33.589987   -4.399853   -0.516773
    137          1           0       34.180189   -4.494274    1.179478
    138          1           0       35.132004   -3.639193   -0.019232
    139          1           0       36.570653   -2.941327    1.838748
    140          1           0       35.480009   -3.759468    2.786579
    141          1           0       36.587066   -2.768344    3.735537
    142          1           0       32.772886    3.152539    3.650716
    143          1           0       29.988909    3.863672    4.082706
    144          1           0       30.857565    2.331149    5.681261
    145          1           0       32.637323    2.146202    5.703925
    146          1           0       31.558407    0.877713    5.069065
    147          1           0       31.081860    5.084550    1.553271
    148          1           0       32.222108    5.106596    2.808493
    149          1           0       30.135519    6.881597    2.313739
    150          1           0       31.285985    6.974823    3.700182
    151          1           0       29.711649    6.137467    3.824376
    152          1           0       26.238737    4.837802    0.950366
    153          1           0       24.869210    3.823876    0.586911
    154          1           0       25.718912    4.650288   -0.725095
    155          1           0       26.403664    0.307626   -3.606764
    156          1           0       23.635928   -2.875715   -2.813456
    157          1           0       24.680813   -3.466303   -4.080462
    158          1           0       23.359247   -2.279772   -4.495018
 ---------------------------------------------------------------------

 SCF Done:  E(RCAM-B3LYP) =  -4069.81426520     A.U. after   19 cycles

 Excitation energies and oscillator strengths:

 Excited State   1:      Singlet-A      1.7389 eV  713.01 nm  f=0.3992  <S**2>=0.000
     310 -> 316        0.19175
     312 -> 314        0.68291
     310 <- 316        0.10976
 This state for optimization and/or second-order correction.
 Total Energy, E(TD-HF/TD-DFT) =  -4069.75036217
 Copying the excited state density for this state as the 1-particle RhoCI density.

 Excited State   2:      Singlet-A      1.7655 eV  702.27 nm  f=0.3940  <S**2>=0.000
     309 -> 315        0.17238
     311 -> 313        0.68745
     309 <- 315        0.10344

 Excited State   3:      Singlet-A      2.2287 eV  556.30 nm  f=0.1027  <S**2>=0.000
     310 -> 314        0.63903
     312 -> 316       -0.29487

 Excited State   4:      Singlet-A      2.2942 eV  540.41 nm  f=0.1178  <S**2>=0.000
     309 -> 313        0.63734
     311 -> 315       -0.29069

 Excited State   5:      Singlet-A      3.1371 eV  395.22 nm  f=0.0000  <S**2>=0.000
     312 -> 313        0.70711

 The electronic state is 1-A.
 Alpha  occ. eigenvalues --  -46.89657 -46.89394 -19.24940 -19.23677 -19.20492
 Alpha  occ. eigenvalues --  -19.19585 -19.19188 -19.18774 -19.18688 -19.18523
 Alpha  occ. eigenvalues --  -14.42653 -14.42472 -14.42341 -14.41665 -14.40223
 Alpha  occ. eigenvalues --  -14.39546 -14.39385 -14.39091 -10.39501 -10.38646
 Alpha  occ. eigenvalues --  -10.36224 -10.34856 -10.34468 -10.34149 -10.32357
 Alpha  occ. eigenvalues --  -10.31896 -10.31740 -10.31589 -10.31220 -10.31173
 Alpha  occ. eigenvalues --  -10.31115 -10.31073 -10.30670 -10.30639 -10.30558
 Alpha  occ. eigenvalues --  -10.30209 -10.29988 -10.29863 -10.29740 -10.29538
 Alpha  occ. eigenvalues --  -10.29229 -10.29007 -10.28849 -10.28767 -10.28583
 Alpha  occ. eigenvalues --  -10.28344 -10.28292 -10.28245 -10.28244 -10.28226
 Alpha  occ. eigenvalues --  -10.28183 -10.28182 -10.28181 -10.28164 -10.27957
 Alpha  occ. eigenvalues --  -10.27953 -10.27899 -10.27818 -10.27783 -10.27742
 Alpha  occ. eigenvalues --  -10.27738 -10.27521 -10.27510 -10.27455 -10.27408
 Alpha  occ. eigenvalues --  -10.27393 -10.27358 -10.26917 -10.26795 -10.26657
 Alpha  occ. eigenvalues --  -10.26532 -10.26495 -10.26430 -10.26400 -10.26237
 Alpha  occ. eigenvalues --  -10.26204 -10.26162 -10.26109 -10.26073 -10.26061
 Alpha  occ. eigenvalues --  -10.26054 -10.25887 -10.25622 -10.25357 -10.24742
 Alpha  occ. eigenvalues --  -10.23980  -3.18078  -3.17801  -1.92985  -1.92721
 Alpha  occ. eigenvalues --   -1.92536  -1.92366  -1.92239  -1.92113  -1.16614
 Alpha  occ. eigenvalues --   -1.15626  -1.10333  -1.10114  -1.09509  -1.08824
 Alpha  occ. eigenvalues --   -1.08320  -1.07196  -1.05557  -1.04590  -1.04454
 Alpha  occ. eigenvalues --   -1.03786  -1.03718  -1.03571  -1.02820  -1.02624
 Alpha  occ. eigenvalues --   -0.93488  -0.93262  -0.89411  -0.89230  -0.88834
 Alpha  occ. eigenvalues --   -0.88603  -0.88256  -0.88089  -0.87511  -0.87059
 Alpha  occ. eigenvalues --   -0.86900  -0.86456  -0.86216  -0.85944  -0.85210
 Alpha  occ. eigenvalues --   -0.84320  -0.84044  -0.83468  -0.83160  -0.82583
 Alpha  occ. eigenvalues --   -0.82359  -0.81603  -0.81297  -0.81183  -0.80848
 Alpha  occ. eigenvalues --   -0.80294  -0.78406  -0.77757  -0.77466  -0.77348
 Alpha  occ. eigenvalues --   -0.77118  -0.77109  -0.76202  -0.76196  -0.75523
 Alpha  occ. eigenvalues --   -0.75182  -0.73243  -0.72584  -0.72043  -0.71980
 Alpha  occ. eigenvalues --   -0.69333  -0.69252  -0.69068  -0.68633  -0.68219
 Alpha  occ. eigenvalues --   -0.67785  -0.66762  -0.66095  -0.65978  -0.65576
 Alpha  occ. eigenvalues --   -0.65332  -0.65198  -0.64977  -0.64612  -0.64509
 Alpha  occ. eigenvalues --   -0.64245  -0.62693  -0.61810  -0.60444  -0.60237
 Alpha  occ. eigenvalues --   -0.59920  -0.59895  -0.59310  -0.59177  -0.58851
 Alpha  occ. eigenvalues --   -0.58790  -0.58467  -0.58456  -0.57749  -0.57570
 Alpha  occ. eigenvalues --   -0.56502  -0.56021  -0.55899  -0.55496  -0.55474
 Alpha  occ. eigenvalues --   -0.55287  -0.54926  -0.54385  -0.54229  -0.54023
 Alpha  occ. eigenvalues --   -0.53764  -0.53570  -0.53316  -0.53147  -0.53038
 Alpha  occ. eigenvalues --   -0.52970  -0.52754  -0.52643  -0.52196  -0.52131
 Alpha  occ. eigenvalues --   -0.51903  -0.51721  -0.51690  -0.51654  -0.51625
 Alpha  occ. eigenvalues --   -0.51401  -0.50839  -0.50801  -0.50733  -0.50536
 Alpha  occ. eigenvalues --   -0.50364  -0.50284  -0.49873  -0.49800  -0.49696
 Alpha  occ. eigenvalues --   -0.49390  -0.49314  -0.49120  -0.49044  -0.48911
 Alpha  occ. eigenvalues --   -0.48856  -0.48300  -0.48295  -0.48140  -0.48099
 Alpha  occ. eigenvalues --   -0.47946  -0.47608  -0.47537  -0.47377  -0.47262
 Alpha  occ. eigenvalues --   -0.47152  -0.47092  -0.46922  -0.46586  -0.46463
 Alpha  occ. eigenvalues --   -0.46451  -0.46399  -0.46241  -0.46163  -0.46145
 Alpha  occ. eigenvalues --   -0.45805  -0.45578  -0.45324  -0.45183  -0.45129
 Alpha  occ. eigenvalues --   -0.44683  -0.44671  -0.44344  -0.44256  -0.44164
 Alpha  occ. eigenvalues --   -0.43974  -0.43911  -0.43892  -0.43691  -0.43686
 Alpha  occ. eigenvalues --   -0.43315  -0.43234  -0.43135  -0.42954  -0.42712
 Alpha  occ. eigenvalues --   -0.42665  -0.42379  -0.42317  -0.42292  -0.42031
 Alpha  occ. eigenvalues --   -0.41859  -0.41740  -0.41625  -0.41537  -0.41290
 Alpha  occ. eigenvalues --   -0.41129  -0.41047  -0.40805  -0.40607  -0.40261
 Alpha  occ. eigenvalues --   -0.40202  -0.39915  -0.39716  -0.39712  -0.39401
 Alpha  occ. eigenvalues --   -0.38815  -0.38414  -0.38043  -0.37780  -0.37672
 Alpha  occ. eigenvalues --   -0.37529  -0.36903  -0.36753  -0.36573  -0.36516
 Alpha  occ. eigenvalues --   -0.36087  -0.36068  -0.35244  -0.34484  -0.34243
 Alpha  occ. eigenvalues --   -0.34226  -0.33720  -0.33149  -0.31761  -0.31243
 Alpha  occ. eigenvalues --   -0.31094  -0.31033  -0.31015  -0.30652  -0.30168
 Alpha  occ. eigenvalues --   -0.30120  -0.30043  -0.29944  -0.24665  -0.23827
 Alpha  occ. eigenvalues --   -0.21659  -0.21125
 Alpha virt. eigenvalues --   -0.09029  -0.08508  -0.01936  -0.01695   0.00004
 Alpha virt. eigenvalues --    0.00922   0.02035   0.02314   0.02732   0.02799
 Alpha virt. eigenvalues --    0.04419   0.04675   0.05339   0.05403   0.05827

 Mulliken charges:
               1
     1  Mg  11.999985
     2  C    6.000268
     3  C    5.999758
     4  C    5.999679
     5  C    6.000276
     6  N    7.000029
     7  C    5.999706
     8  C    6.000069
     9  C    5.999956
    10  C    6.000331
    11  C    5.999974
    12  C    6.000028
    13  C    6.000025
    14  H    0.999949
    15  N    6.999874
    16  C    6.000520
    17  C    6.000168
    18  C    6.000174
    19  C    6.000426
    20  C    5.999926
    21  C    6.000113
    22  O    8.000225
    23  C    5.999979
    24  N    7.000034
    25  C    6.000406
    26  C    5.999895
    27  C    6.000077
    28  C    5.999641
    29  C    5.999981
    30  C    6.000043
    31  C    6.000023
    32  N    7.000013
    33  C    5.999522
    34  C    5.999742
    35  C    5.999948
    36  C    5.999592
    37  C    6.000038
    38  C    5.999854
    39  O    7.999675
    40  C    5.999971
    41  C    5.999939
    42  O    7.999982
    43  O    7.999967
    44  C    6.000038
    45  H    1.000145
    46  H    1.000090
    47  H    0.999896
    48  H    0.999999
    49  H    0.999999
    50  H    1.000044
    51  H    1.000147
    52  H    0.999978
    53  H    0.999916
    54  H    1.000062
    55  H    0.999999
    56  H    0.999943
    57  H    1.000162
    58  H    1.000190
    59  H    1.000202
    60  H    1.000074
    61  H    1.000145
    62  H    1.000091
    63  H    1.000004
    64  H    0.999981
    65  H    1.000007
    66  H    1.000000
    67  H    1.000103
    68  H    0.999985
    69  H    0.999904
    70  H    0.999954
    71  H    1.000016
    72  H    1.000001
    73  H    0.999783
    74  H    0.999826
    75  H    0.999792
    76  H    0.999887
    77  H    0.999945
    78  H    0.999978
    79  H    0.999930
    80  Mg  11.998191
    81  C    5.973751
    82  C    6.026387
    83  C    6.022083
    84  C    5.983717
    85  N    7.000462
    86  C    6.041832
    87  C    5.980816
    88  C    6.015141
    89  C    5.958794
    90  C    6.002888
    91  C    5.995381
    92  C    5.999341
    93  H    1.006792
    94  N    7.009631
    95  C    5.941874
    96  C    5.991455
    97  C    5.974767
    98  C    5.968709
    99  C    6.001666
   100  C    5.987857
   101  O    7.971932
   102  C    6.002025
   103  N    7.002005
   104  C    5.966454
   105  C    6.011204
   106  C    5.989591
   107  C    6.030891
   108  C    6.002021
   109  C    5.990699
   110  C    6.001012
   111  N    6.992175
   112  C    6.044943
   113  C    6.032511
   114  C    6.002576
   115  C    6.034739
   116  C    5.993461
   117  C    6.014863
   118  O    8.029978
   119  C    5.999083
   120  C    6.004443
   121  O    8.003072
   122  O    8.001270
   123  C    5.998108
   124  H    0.990824
   125  H    0.994320
   126  H    1.008564
   127  H    1.004592
   128  H    0.997511
   129  H    0.999557
   130  H    0.983975
   131  H    0.999704
   132  H    1.012785
   133  H    0.992008
   134  H    1.004651
   135  H    0.996959
   136  H    0.981159
   137  H    0.982801
   138  H    0.982631
   139  H    0.992606
   140  H    0.993505
   141  H    0.985592
   142  H    1.000549
   143  H    1.004022
   144  H    0.988282
   145  H    0.999884
   146  H    1.004542
   147  H    0.999328
   148  H    1.014007
   149  H    0.997414
   150  H    1.006019
   151  H    0.999320
   152  H    1.020212
   153  H    1.021392
   154  H    1.018962
   155  H    1.009062
   156  H    1.003242
   157  H    1.006934
   158  H    1.002493
 Sum of Mulliken charges = 624.00000

 Dipole moment (field-independent basis, Debye):
    X=             -8.9844    Y=              5.9610    Z=             -2.1952  Tot=             11.0033
 Quadrupole moment (field-independent basis, Debye-Ang):
   XX=           -531.5546   YY=              3.5306   ZZ=             -0.0178
   XY=            181.4465   XZ=            -72.6803   YZ=              3.2027

 Normal termination of Gaussian 16 at Thu Sep 23 11:48:20 2021.
