 Gaussian 16, Revision A.03,
 Gaussian 16:  ES64L-G16RevA.03 25-Dec-2016

 -----------------------------------------------------
 #p cam-b3lyp/Def2SVP td=(nstates=5) density=(current)
 -----------------------------------------------------

 --------------------------------
 TDDFT excited states in gaussian
 --------------------------------
 Symbolic Z-matrix:
 Charge =  0 Multiplicity = 1

                         Standard orientation:
 ---------------------------------------------------------------------
 Center     Atomic      Atomic             Coordinates (Angstroms)
 Number     Number       Type             X           Y           Z
 ---------------------------------------------------------------------
      1         12           0       -0.641139   -0.018099   -0.414255
      2          6           0        2.832037    0.059683    0.206533
      3          6           0       -0.558227   -3.492662   -0.117232
      4          6           0       -4.021768    0.058057    0.009926
      5          6           0       -0.558532    3.553510   -0.156102
      6          7           0        0.942442   -1.489788   -0.044226
      7          6           0        2.245287   -1.236369    0.202136
      8          6           0        3.012268   -2.547245    0.572980
      9          6           0        1.959865   -3.641931    0.076171
     10          6           0        0.637854   -2.824244   -0.087440
     11          6           0        2.177062   -4.405903   -1.249681
     12          6           0        3.280302   -2.558969    2.125477
     13          6           0        4.640309   -3.193391    2.528672
     14          1           0        4.611298   -4.107846    3.820408
     15          7           0       -2.159645   -1.554606   -0.294803
     16          6           0       -1.872570   -2.892681   -0.238660
     17          6           0       -3.112142   -3.572036   -0.226860
     18          6           0       -4.164441   -2.614847   -0.119224
     19          6           0       -3.490214   -1.274917   -0.181994
     20          6           0       -3.276577   -5.073506   -0.226896
     21          6           0       -5.601935   -2.893300    0.160623
     22          8           0       -6.007538   -4.020632    0.393759
     23          6           0       -6.631427   -1.891231    0.254596
     24          7           0       -2.067071    1.632585   -0.002191
     25          6           0       -3.442024    1.357903   -0.043240
     26          6           0       -4.232083    2.628941   -0.066961
     27          6           0       -3.150621    3.771833   -0.053632
     28          6           0       -1.852941    2.982527   -0.069352
     29          6           0       -5.139146    2.629771   -1.304093
     30          6           0       -3.399864    4.868065    1.049634
     31          6           0       -3.527963    6.285350    0.579647
     32          7           0        0.833111    1.566662   -0.082756
     33          6           0        0.690288    2.932421   -0.067144
     34          6           0        2.015112    3.589373   -0.022523
     35          6           0        2.850658    2.454348    0.151944
     36          6           0        2.110536    1.294216    0.021445
     37          6           0        2.360558    5.068751    0.044467
     38          6           0        4.200898    2.080064    0.478952
     39          8           0        5.186386    2.791940    0.727759
     40          6           0        4.297377    0.555125    0.516632
     41          6           0        5.335518    0.061805   -0.407493
     42          8           0        6.254689   -0.578165   -0.043972
     43          8           0        5.027771    0.244457   -1.724653
     44          6           0        5.969885   -0.497764   -2.590124
     45          1           0       -0.558436   -4.585035   -0.107423
     46          1           0       -5.110949    0.007240    0.050812
     47          1           0       -0.340012    4.615477   -0.021700
     48          1           0        3.948846   -2.559628    0.015241
     49          1           0        1.579582   -4.306960    0.851384
     50          1           0        2.789800   -3.815448   -1.931822
     51          1           0        1.278806   -4.727281   -1.776990
     52          1           0        2.756614   -5.290034   -0.986245
     53          1           0        2.459479   -3.041999    2.656364
     54          1           0        3.269008   -1.507026    2.410929
     55          1           0        5.281703   -2.326964    2.690931
     56          1           0        4.951917   -3.691201    1.610154
     57          1           0       -4.235099   -5.455006   -0.578971
     58          1           0       -3.121310   -5.343594    0.817285
     59          1           0       -2.453553   -5.654550   -0.643020
     60          1           0       -6.677867   -1.397208   -0.716757
     61          1           0       -6.434620   -1.199168    1.073889
     62          1           0       -7.578168   -2.388937    0.464730
     63          1           0       -4.766379    2.765857    0.872885
     64          1           0       -2.941755    4.280805   -0.994859
     65          1           0       -5.237722    1.647511   -1.766844
     66          1           0       -4.753523    3.282848   -2.086964
     67          1           0       -6.173084    2.781873   -0.995781
     68          1           0       -2.553877    4.765772    1.729308
     69          1           0       -4.355111    4.768725    1.563836
     70          1           0       -2.795374    6.872792    1.132460
     71          1           0       -4.504592    6.706102    0.819667
     72          1           0       -3.474688    6.385153   -0.504510
     73          1           0        2.297697    5.470434    1.056007
     74          1           0        1.785080    5.677211   -0.654308
     75          1           0        3.425114    5.039741   -0.187537
     76          1           0        4.677520    0.236491    1.486381
     77          1           0        5.678894   -0.317956   -3.625389
     78          1           0        5.945550   -1.563189   -2.361681
     79          1           0        6.990528   -0.117092   -2.573217
 ---------------------------------------------------------------------

 SCF Done:  E(RCAM-B3LYP) =  -2034.88042577     A.U. after   19 cycles

 Excitation energies and oscillator strengths:

 Excited State   1:      Singlet-A      1.6804 eV  737.81 nm  f=0.4080  <S**2>=0.000
     155 ->158        -0.17294
     156 ->157         0.68701
     155 <-158        -0.10659
 This state for optimization and/or second-order correction.
 Total Energy, E(TD-HF/TD-DFT) =  -2034.81867109
 Copying the excited state density for this state as the 1-particle RhoCI density.

 Excited State   2:      Singlet-A      2.2017 eV  563.14 nm  f=0.1136  <S**2>=0.000
     155 ->157         0.64192
     156 ->158         0.28133

 Excited State   3:      Singlet-A      3.1756 eV  390.43 nm  f=0.0040  <S**2>=0.000
     152 ->157        -0.10292
     154 ->157         0.67878

 Excited State   4:      Singlet-A      3.3608 eV  368.91 nm  f=0.0065  <S**2>=0.000
     150 ->157        -0.16254
     150 ->159         0.10519
     151 ->157         0.55826
     151 ->159        -0.30978
     151 ->161         0.11494

 Excited State   5:      Singlet-A      3.4019 eV  364.45 nm  f=0.0253  <S**2>=0.000
     152 ->157         0.56727
     153 ->157        -0.25971
     153 ->161        -0.10230
     156 ->158        -0.25097

 The electronic state is 1-A.
 Alpha  occ. eigenvalues --  -46.90856 -19.25132 -19.19937 -19.18864 -19.17340
 Alpha  occ. eigenvalues --  -14.42995 -14.42722 -14.39926 -14.39320 -10.38751
 Alpha  occ. eigenvalues --  -10.34792 -10.33524 -10.32263 -10.32004 -10.31879
 Alpha  occ. eigenvalues --  -10.31842 -10.31083 -10.31008 -10.30203 -10.29878
 Alpha  occ. eigenvalues --  -10.29327 -10.29103 -10.29053 -10.28929 -10.28792
 Alpha  occ. eigenvalues --  -10.28525 -10.28480 -10.28443 -10.28189 -10.28169
 Alpha  occ. eigenvalues --  -10.27768 -10.27560 -10.27499 -10.27060 -10.26987
 Alpha  occ. eigenvalues --  -10.26829 -10.26680 -10.26536 -10.26411 -10.25768
 Alpha  occ. eigenvalues --  -10.25469 -10.25309 -10.25279  -3.19004  -1.93917
 Alpha  occ. eigenvalues --   -1.93439  -1.93299  -1.17993  -1.09572  -1.09061
 Alpha  occ. eigenvalues --   -1.08975  -1.05134  -1.03770  -1.03455  -1.02556
 Alpha  occ. eigenvalues --   -0.92650  -0.89443  -0.89040  -0.88256  -0.88082
 Alpha  occ. eigenvalues --   -0.87035  -0.85844  -0.84902  -0.84675  -0.82734
 Alpha  occ. eigenvalues --   -0.82535  -0.80948  -0.80573  -0.78680  -0.77634
 Alpha  occ. eigenvalues --   -0.76889  -0.76518  -0.75453  -0.73166  -0.72540
 Alpha  occ. eigenvalues --   -0.69394  -0.69286  -0.67980  -0.66920  -0.66372
 Alpha  occ. eigenvalues --   -0.65734  -0.65017  -0.64671  -0.63329  -0.60101
 Alpha  occ. eigenvalues --   -0.60045  -0.59014  -0.58910  -0.58331  -0.57100
 Alpha  occ. eigenvalues --   -0.56531  -0.56102  -0.55578  -0.55156  -0.54575
 Alpha  occ. eigenvalues --   -0.53528  -0.53404  -0.53218  -0.52846  -0.52677
 Alpha  occ. eigenvalues --   -0.52288  -0.51779  -0.51492  -0.51353  -0.50911
 Alpha  occ. eigenvalues --   -0.50068  -0.49878  -0.49586  -0.49290  -0.49060
 Alpha  occ. eigenvalues --   -0.48641  -0.48420  -0.48225  -0.47548  -0.47351
 Alpha  occ. eigenvalues --   -0.46983  -0.46816  -0.46703  -0.46377  -0.46352
 Alpha  occ. eigenvalues --   -0.45779  -0.45158  -0.45110  -0.44876  -0.44704
 Alpha  occ. eigenvalues --   -0.44372  -0.44036  -0.43615  -0.43350  -0.43023
 Alpha  occ. eigenvalues --   -0.42900  -0.42668  -0.42318  -0.41803  -0.41299
 Alpha  occ. eigenvalues --   -0.41047  -0.40813  -0.40154  -0.39654  -0.39256
 Alpha  occ. eigenvalues --   -0.38696  -0.37920  -0.37658  -0.37257  -0.36909
 Alpha  occ. eigenvalues --   -0.36422  -0.34942  -0.34154  -0.33512  -0.31514
 Alpha  occ. eigenvalues --   -0.30994  -0.30411  -0.30028  -0.29219  -0.24529
 Alpha  occ. eigenvalues --   -0.21594
 Alpha virt. eigenvalues --   -0.09403  -0.02273   0.00266   0.01194   0.02409
 Alpha virt. eigenvalues --    0.04670   0.05425   0.06067   0.06626   0.07724
 Alpha virt. eigenvalues --    0.08152   0.08634   0.08923   0.09516   0.09860

 Mulliken charges:
               1
     1  Mg   0.790054
     2  C   -0.005133
     3  C   -0.079910
     4  C   -0.031164
     5  C   -0.057417
     6  N   -0.298269
     7  C   -0.043880
     8  C   -0.045039
     9  C   -0.054004
    10  C    0.071687
    11  C    0.080483
    12  C    0.049085
    13  C   -0.051004
    14  H    0.026951
    15  N   -0.368207
    16  C    0.120621
    17  C   -0.150500
    18  C   -0.022720
    19  C    0.101221
    20  C    0.141396
    21  C   -0.052466
    22  O   -0.216703
    23  C    0.080080
    24  N   -0.299957
    25  C    0.045053
    26  C   -0.014924
    27  C   -0.016519
    28  C    0.043106
    29  C    0.073666
    30  C    0.039874
    31  C   -0.004687
    32  N   -0.282906
    33  C    0.030898
    34  C   -0.158387
    35  C    0.017968
    36  C    0.079991
    37  C    0.107897
    38  C    0.013922
    39  O   -0.195328
    40  C    0.054930
    41  C    0.148212
    42  O   -0.181488
    43  O   -0.336041
    44  C    0.182393
    45  H   -0.019188
    46  H   -0.055222
    47  H   -0.028906
    48  H    0.015425
    49  H    0.012446
    50  H    0.011465
    51  H    0.026660
    52  H    0.018426
    53  H    0.017924
    54  H    0.015485
    55  H    0.044133
    56  H    0.031773
    57  H    0.047445
    58  H    0.015591
    59  H   -0.005402
    60  H    0.028808
    61  H    0.042549
    62  H    0.024174
    63  H    0.026573
    64  H    0.019873
    65  H    0.018047
    66  H    0.021028
    67  H    0.017083
    68  H    0.019367
    69  H    0.017459
    70  H    0.022316
    71  H    0.009378
    72  H    0.013452
    73  H    0.038971
    74  H    0.027693
    75  H    0.041570
    76  H    0.029791
    77  H    0.026837
    78  H    0.034683
    79  H    0.039454
 Sum of Mulliken charges =  -0.00000

 Dipole moment (field-independent basis, Debye):
    X=             -3.7277    Y=              2.2808    Z=             -2.8962  Tot=              5.2426
 Quadrupole moment (field-independent basis, Debye-Ang):
   XX=           -291.5516   YY=           -250.9474   ZZ=           -251.5015
   XY=            -45.7527   XZ=            -11.1301   YZ=              3.8562

 Normal termination of Gaussian 16 at Fri Oct  8 12:48:05 2021.
