 Gaussian 16, Revision A.03,
 Gaussian 16:  ES64L-G16RevA.03 25-Dec-2016

 -----------------------------------
 #p cam-b3lyp/Def2SVP td=(nstates=5)
 -----------------------------------

 --------------------------------
 TDDFT excited states in gaussian
 --------------------------------
 Symbolic Z-matrix:
 Charge =  0 Multiplicity = 1

                         Standard orientation:
 ---------------------------------------------------------------------
 Center     Atomic      Atomic             Coordinates (Angstroms)
 Number     Number       Type             X           Y           Z
 ---------------------------------------------------------------------
      1         12           0      -24.946406    0.624358    0.406065
      2          6           0      -25.586931   -2.275974   -1.515848
      3          6           0      -24.492926   -1.386932    3.173869
      4          6           0      -24.626764    3.429163    2.280237
      5          6           0      -25.625720    2.635874   -2.383513
      6          7           0      -25.153642   -1.559915    0.702744
      7          6           0      -25.201939   -2.575532   -0.249217
      8          6           0      -25.046576   -4.002566    0.419250
      9          6           0      -24.981468   -3.641424    1.927180
     10          6           0      -24.922318   -2.098227    1.976623
     11          6           0      -26.119462   -4.184306    2.870251
     12          6           0      -23.915800   -4.943251   -0.167400
     13          6           0      -24.396667   -6.249385   -0.723410
     14          1           0      -23.452011   -7.493831   -0.487889
     15          7           0      -24.623935    0.913060    2.401474
     16          6           0      -24.391165   -0.017213    3.394025
     17          6           0      -24.203475    0.667002    4.663797
     18          6           0      -24.230831    2.075602    4.459120
     19          6           0      -24.482577    2.206847    2.976854
     20          6           0      -23.849618   -0.046207    5.984322
     21          6           0      -24.017767    3.217397    5.447759
     22          8           0      -23.979478    4.388306    5.130139
     23          6           0      -23.713595    3.016145    6.988850
     24          7           0      -25.202523    2.757835    0.010826
     25          6           0      -25.013507    3.686876    0.938746
     26          6           0      -25.187473    5.137860    0.363859
     27          6           0      -25.317454    4.873736   -1.188421
     28          6           0      -25.362752    3.316074   -1.218789
     29          6           0      -26.339809    5.910212    1.068871
     30          6           0      -24.196764    5.524027   -1.975255
     31          6           0      -24.651238    6.190754   -3.272427
     32          7           0      -25.630110    0.360271   -1.543839
     33          6           0      -25.768247    1.245635   -2.595600
     34          6           0      -26.258186    0.502790   -3.715712
     35          6           0      -26.171153   -0.872708   -3.386838
     36          6           0      -25.781245   -0.939260   -2.020121
     37          6           0      -26.682270    1.068148   -5.017981
     38          6           0      -26.287765   -2.240465   -3.921944
     39          8           0      -26.704976   -2.686384   -4.986833
     40          6           0      -25.833923   -3.244507   -2.608330
     41          6           0      -26.891785   -4.160368   -2.315037
     42          8           0      -27.643773   -4.065744   -1.369347
     43          8           0      -26.858311   -5.236822   -3.172415
     44          6           0      -27.974366   -6.187470   -2.941351
     45          1           0      -24.220450   -1.987244    4.044625
     46          1           0      -24.581889    4.363178    2.843279
     47          1           0      -25.733916    3.330424   -3.219965
     48          1           0      -26.037896   -4.445377    0.328999
     49          1           0      -24.050038   -3.997194    2.367698
     50          1           0      -25.634098   -4.489162    3.797914
     51          1           0      -26.612839   -5.017309    2.370066
     52          1           0      -26.886499   -3.450335    3.118107
     53          1           0      -23.197740   -5.082372    0.640887
     54          1           0      -23.457891   -4.402179   -0.995623
     55          1           0      -24.517290   -6.166141   -1.804312
     56          1           0      -25.367965   -6.383360   -0.248084
     57          1           0      -22.832424    0.271439    6.210723
     58          1           0      -23.760975   -1.116369    5.795743
     59          1           0      -24.480073    0.196931    6.840508
     60          1           0      -22.823062    2.392654    7.075309
     61          1           0      -24.603493    2.763920    7.566294
     62          1           0      -23.596594    4.028504    7.374392
     63          1           0      -24.298812    5.758809    0.475225
     64          1           0      -26.308812    5.231427   -1.467270
     65          1           0      -26.994552    6.323268    0.301013
     66          1           0      -25.988044    6.661791    1.776071
     67          1           0      -26.929361    5.218502    1.668358
     68          1           0      -23.396890    4.822002   -2.208474
     69          1           0      -23.636460    6.276415   -1.418043
     70          1           0      -25.684812    5.938436   -3.509634
     71          1           0      -24.016312    5.785232   -4.060659
     72          1           0      -24.456351    7.263275   -3.280565
     73          1           0      -26.636812    2.151030   -5.133331
     74          1           0      -27.608916    0.556535   -5.280918
     75          1           0      -25.841365    0.824704   -5.667817
     76          1           0      -24.934234   -3.797159   -2.880451
     77          1           0      -28.928369   -5.678131   -3.079338
     78          1           0      -27.809942   -6.607624   -1.949147
     79          1           0      -27.987996   -7.008241   -3.657404
     80         12           0       24.808249    0.713409   -0.292953
     81          6           0       26.065300   -2.002261    1.676763
     82          6           0       23.600033   -1.750763   -2.509175
     83          6           0       24.231788    3.018987   -2.541546
     84          6           0       26.369109    2.893195    1.798629
     85          7           0       24.804813   -1.599793   -0.343001
     86          6           0       25.289347   -2.400746    0.636284
     87          6           0       24.884307   -3.834341    0.335308
     88          6           0       24.062059   -3.834177   -0.984188
     89          6           0       24.117492   -2.326577   -1.297636
     90          6           0       24.676331   -4.809399   -2.139028
     91          6           0       24.026318   -4.488617    1.501328
     92          6           0       24.449210   -5.884025    1.961702
     93          1           0       25.064947   -6.926229    0.944097
     94          7           0       24.064409    0.634644   -2.295508
     95          6           0       23.626352   -0.417646   -2.953653
     96          6           0       23.201338    0.033235   -4.248844
     97          6           0       23.212405    1.450408   -4.294851
     98          6           0       23.875837    1.749337   -3.052823
     99          6           0       22.528788   -0.889034   -5.264352
    100          6           0       22.642908    2.487674   -5.249911
    101          8           0       22.836668    3.682770   -5.122557
    102          6           0       21.759672    1.961246   -6.347503
    103          7           0       25.561537    2.607370   -0.498758
    104          6           0       24.985508    3.451400   -1.450021
    105          6           0       25.211638    4.957118   -1.144767
    106          6           0       25.750989    4.835074    0.330211
    107          6           0       25.908613    3.335409    0.580981
    108          6           0       26.175222    5.583301   -2.163276
    109          6           0       24.734482    5.398071    1.432493
    110          6           0       25.042531    6.705123    2.082667
    111          7           0       25.860869    0.537800    1.420080
    112          6           0       26.469528    1.535131    2.150975
    113          6           0       27.276228    1.017839    3.253199
    114          6           0       27.145898   -0.410157    3.115285
    115          6           0       26.396104   -0.638712    1.937384
    116          6           0       27.854666    1.859558    4.332484
    117          6           0       27.437314   -1.696803    3.728600
    118          8           0       28.056711   -1.900164    4.788703
    119          6           0       26.753742   -2.834685    2.777098
    120          6           0       27.867311   -3.642146    2.304748
    121          8           0       28.821751   -3.190769    1.710401
    122          8           0       27.694770   -4.936185    2.599130
    123          6           0       28.723704   -5.973478    2.274981
    124          1           0       23.141245   -2.468403   -3.192393
    125          1           0       23.722319    3.867401   -3.004576
    126          1           0       26.780989    3.633806    2.486936
    127          1           0       25.803252   -4.396328    0.168463
    128          1           0       23.065577   -4.253422   -0.844022
    129          1           0       25.300542   -5.586958   -1.698624
    130          1           0       25.238315   -4.143138   -2.794042
    131          1           0       23.863912   -5.257061   -2.711223
    132          1           0       22.951472   -4.512262    1.327047
    133          1           0       24.121234   -3.878647    2.399595
    134          1           0       23.632276   -6.407708    2.458612
    135          1           0       25.158945   -5.665638    2.759636
    136          1           0       21.439482   -0.848795   -5.251308
    137          1           0       22.916484   -1.906310   -5.202283
    138          1           0       22.869518   -0.554630   -6.243977
    139          1           0       21.069978    1.170662   -6.050334
    140          1           0       22.291058    1.567726   -7.212906
    141          1           0       21.029303    2.727072   -6.608734
    142          1           0       24.241644    5.449130   -1.211045
    143          1           0       26.689293    5.386867    0.388369
    144          1           0       26.397707    4.951171   -3.022823
    145          1           0       27.145389    5.800665   -1.717858
    146          1           0       25.757802    6.526140   -2.518228
    147          1           0       24.575403    4.740038    2.286750
    148          1           0       23.713120    5.472491    1.060975
    149          1           0       24.275029    7.437928    1.836889
    150          1           0       26.003777    6.974253    1.644466
    151          1           0       25.077850    6.593601    3.166330
    152          1           0       27.847475    1.338535    5.289266
    153          1           0       27.319410    2.808276    4.297909
    154          1           0       28.892518    2.049251    4.055263
    155          1           0       26.065627   -3.468045    3.335347
    156          1           0       29.696871   -5.642563    2.638142
    157          1           0       28.812757   -6.155723    1.203738
    158          1           0       28.462483   -6.973088    2.621220
 ---------------------------------------------------------------------

 SCF Done:  E(RCAM-B3LYP) =  -4069.80603927     A.U. after   18 cycles

 Excitation energies and oscillator strengths:

 Excited State   1:      Singlet-A      1.6835 eV  736.49 nm  f=0.4022  <S**2>=0.000
     310 -> 316        0.17294
     312 -> 313        0.68701
     310 <- 316        0.10715
 This state for optimization and/or second-order correction.
 Total Energy, E(TD-HF/TD-DFT) =  -4069.74417346
 Copying the excited state density for this state as the 1-particle RhoCI density.

 Excited State   2:      Singlet-A      1.7837 eV  695.10 nm  f=0.3740  <S**2>=0.000
     309 -> 315       -0.17650
     311 -> 314        0.68529
     309 <- 315       -0.10146

 Excited State   3:      Singlet-A      2.1994 eV  563.73 nm  f=0.1320  <S**2>=0.000
     310 -> 313        0.65025
     312 -> 316       -0.26298

 Excited State   4:      Singlet-A      2.2587 eV  548.93 nm  f=0.1144  <S**2>=0.000
     309 -> 314        0.63968
     311 -> 315        0.28424

 Excited State   5:      Singlet-A      3.1999 eV  387.46 nm  f=0.0000  <S**2>=0.000
     312 -> 314        0.70711

 The electronic state is 1-A.
 Alpha  occ. eigenvalues --  -46.88635 -46.88246 -19.25277 -19.24344 -19.19896
 Alpha  occ. eigenvalues --  -19.19544 -19.19398 -19.19236 -19.19027 -19.18532
 Alpha  occ. eigenvalues --  -14.42283 -14.41894 -14.41775 -14.41728 -14.40353
 Alpha  occ. eigenvalues --  -14.39389 -14.39103 -14.38734 -10.38516 -10.38335
 Alpha  occ. eigenvalues --  -10.36414 -10.36007 -10.35802 -10.35475 -10.32554
 Alpha  occ. eigenvalues --  -10.32531 -10.31990 -10.31347 -10.31284 -10.31280
 Alpha  occ. eigenvalues --  -10.31141 -10.30759 -10.30533 -10.30284 -10.30200
 Alpha  occ. eigenvalues --  -10.30183 -10.29822 -10.29664 -10.29599 -10.29194
 Alpha  occ. eigenvalues --  -10.29041 -10.28877 -10.28764 -10.28721 -10.28667
 Alpha  occ. eigenvalues --  -10.28580 -10.28509 -10.28223 -10.28196 -10.28039
 Alpha  occ. eigenvalues --  -10.28034 -10.28008 -10.27950 -10.27821 -10.27812
 Alpha  occ. eigenvalues --  -10.27796 -10.27742 -10.27678 -10.27632 -10.27622
 Alpha  occ. eigenvalues --  -10.27378 -10.27137 -10.27102 -10.27022 -10.26920
 Alpha  occ. eigenvalues --  -10.26792 -10.26733 -10.26675 -10.26586 -10.26510
 Alpha  occ. eigenvalues --  -10.26441 -10.26348 -10.26262 -10.26241 -10.26082
 Alpha  occ. eigenvalues --  -10.26073 -10.25994 -10.25834 -10.25823 -10.25592
 Alpha  occ. eigenvalues --  -10.25583 -10.25477 -10.25303 -10.25157 -10.25037
 Alpha  occ. eigenvalues --  -10.24890  -3.17263  -3.16776  -1.92129  -1.91724
 Alpha  occ. eigenvalues --   -1.91683  -1.91574  -1.91225  -1.91083  -1.16575
 Alpha  occ. eigenvalues --   -1.15889  -1.11527  -1.10860  -1.09277  -1.08453
 Alpha  occ. eigenvalues --   -1.07446  -1.07383  -1.04665  -1.04101  -1.03525
 Alpha  occ. eigenvalues --   -1.03160  -1.02483  -1.01977  -1.01900  -1.00956
 Alpha  occ. eigenvalues --   -0.92178  -0.91865  -0.89152  -0.88651  -0.88451
 Alpha  occ. eigenvalues --   -0.88279  -0.88113  -0.88058  -0.87236  -0.87123
 Alpha  occ. eigenvalues --   -0.87037  -0.86908  -0.86422  -0.85624  -0.84395
 Alpha  occ. eigenvalues --   -0.84243  -0.84140  -0.83656  -0.82680  -0.82522
 Alpha  occ. eigenvalues --   -0.81849  -0.81302  -0.81054  -0.80735  -0.80713
 Alpha  occ. eigenvalues --   -0.80116  -0.78450  -0.78280  -0.77690  -0.76956
 Alpha  occ. eigenvalues --   -0.76882  -0.76470  -0.76294  -0.75780  -0.74857
 Alpha  occ. eigenvalues --   -0.74735  -0.72501  -0.72261  -0.71431  -0.71317
 Alpha  occ. eigenvalues --   -0.69072  -0.68865  -0.68767  -0.67816  -0.67666
 Alpha  occ. eigenvalues --   -0.67441  -0.67255  -0.66990  -0.65646  -0.65573
 Alpha  occ. eigenvalues --   -0.65177  -0.64818  -0.64639  -0.64603  -0.64516
 Alpha  occ. eigenvalues --   -0.64368  -0.62439  -0.61163  -0.60517  -0.60053
 Alpha  occ. eigenvalues --   -0.59245  -0.59185  -0.58833  -0.58815  -0.58506
 Alpha  occ. eigenvalues --   -0.58058  -0.58041  -0.57826  -0.57488  -0.57023
 Alpha  occ. eigenvalues --   -0.56099  -0.55963  -0.55783  -0.55773  -0.55179
 Alpha  occ. eigenvalues --   -0.54755  -0.54382  -0.54259  -0.53713  -0.53517
 Alpha  occ. eigenvalues --   -0.53333  -0.53259  -0.53226  -0.53056  -0.53006
 Alpha  occ. eigenvalues --   -0.52931  -0.52635  -0.52571  -0.52378  -0.52145
 Alpha  occ. eigenvalues --   -0.52110  -0.51714  -0.51427  -0.51302  -0.51207
 Alpha  occ. eigenvalues --   -0.51036  -0.50932  -0.50605  -0.50604  -0.50543
 Alpha  occ. eigenvalues --   -0.50162  -0.50088  -0.49988  -0.49594  -0.49533
 Alpha  occ. eigenvalues --   -0.49483  -0.49279  -0.49043  -0.48771  -0.48665
 Alpha  occ. eigenvalues --   -0.48583  -0.48561  -0.48414  -0.48159  -0.48083
 Alpha  occ. eigenvalues --   -0.48021  -0.47753  -0.47734  -0.47511  -0.47446
 Alpha  occ. eigenvalues --   -0.46798  -0.46760  -0.46619  -0.46440  -0.46234
 Alpha  occ. eigenvalues --   -0.46209  -0.46134  -0.46015  -0.45906  -0.45544
 Alpha  occ. eigenvalues --   -0.45321  -0.45160  -0.45116  -0.44863  -0.44696
 Alpha  occ. eigenvalues --   -0.44526  -0.44488  -0.44252  -0.44012  -0.43949
 Alpha  occ. eigenvalues --   -0.43839  -0.43609  -0.43585  -0.43314  -0.43305
 Alpha  occ. eigenvalues --   -0.43213  -0.43034  -0.42980  -0.42774  -0.42625
 Alpha  occ. eigenvalues --   -0.42488  -0.42426  -0.42312  -0.42013  -0.41858
 Alpha  occ. eigenvalues --   -0.41531  -0.41524  -0.41430  -0.41305  -0.41192
 Alpha  occ. eigenvalues --   -0.41025  -0.40580  -0.40566  -0.40307  -0.40302
 Alpha  occ. eigenvalues --   -0.40043  -0.39736  -0.39693  -0.39449  -0.39341
 Alpha  occ. eigenvalues --   -0.38702  -0.38409  -0.37936  -0.37679  -0.37191
 Alpha  occ. eigenvalues --   -0.36989  -0.36883  -0.36567  -0.36264  -0.36237
 Alpha  occ. eigenvalues --   -0.36165  -0.35930  -0.34470  -0.34303  -0.33861
 Alpha  occ. eigenvalues --   -0.33777  -0.33099  -0.33026  -0.31710  -0.31673
 Alpha  occ. eigenvalues --   -0.31499  -0.31254  -0.30756  -0.30663  -0.30247
 Alpha  occ. eigenvalues --   -0.30102  -0.29409  -0.28676  -0.24080  -0.23848
 Alpha  occ. eigenvalues --   -0.21331  -0.20976
 Alpha virt. eigenvalues --   -0.08734  -0.08534  -0.01792  -0.01133   0.00028
 Alpha virt. eigenvalues --    0.00101   0.01763   0.02061   0.02085   0.02947
 Alpha virt. eigenvalues --    0.04521   0.04751   0.05381   0.05506   0.05923

 Mulliken charges:
               1
     1  Mg   0.816352
     2  C    0.025809
     3  C   -0.086822
     4  C   -0.055836
     5  C   -0.058748
     6  N   -0.312796
     7  C   -0.055464
     8  C   -0.012763
     9  C   -0.109561
    10  C    0.087982
    11  C    0.070613
    12  C    0.093577
    13  C   -0.080245
    14  H    0.012902
    15  N   -0.426211
    16  C    0.167035
    17  C   -0.153119
    18  C   -0.007853
    19  C    0.162595
    20  C    0.112429
    21  C   -0.007698
    22  O   -0.188101
    23  C    0.041581
    24  N   -0.245190
    25  C    0.014703
    26  C   -0.075037
    27  C   -0.009809
    28  C   -0.002060
    29  C    0.065589
    30  C    0.045613
    31  C    0.000086
    32  N   -0.378396
    33  C    0.150627
    34  C   -0.188280
    35  C    0.001868
    36  C    0.131821
    37  C    0.134319
    38  C    0.077231
    39  O   -0.163555
    40  C   -0.091548
    41  C    0.202854
    42  O   -0.222060
    43  O   -0.341849
    44  C    0.191514
    45  H   -0.034385
    46  H   -0.007058
    47  H   -0.044518
    48  H    0.030924
    49  H    0.006494
    50  H    0.015314
    51  H    0.021339
    52  H    0.028741
    53  H    0.014478
    54  H    0.009602
    55  H    0.043787
    56  H    0.030098
    57  H    0.030506
    58  H    0.009717
    59  H    0.043678
    60  H    0.041089
    61  H    0.033028
    62  H    0.021259
    63  H    0.014094
    64  H    0.009839
    65  H    0.013111
    66  H    0.028865
    67  H    0.019990
    68  H    0.006093
    69  H    0.004040
    70  H    0.022187
    71  H    0.008823
    72  H    0.018147
    73  H   -0.003097
    74  H    0.047734
    75  H    0.022292
    76  H    0.051771
    77  H    0.042354
    78  H    0.032269
    79  H    0.033295
    80  Mg   0.829300
    81  C   -0.027433
    82  C   -0.081365
    83  C   -0.048348
    84  C   -0.097995
    85  N   -0.248702
    86  C   -0.030240
    87  C    0.007223
    88  C   -0.059275
    89  C    0.026550
    90  C    0.039534
    91  C    0.031808
    92  C   -0.059019
    93  H    0.004055
    94  N   -0.302837
    95  C    0.146137
    96  C   -0.168995
    97  C   -0.020036
    98  C    0.093315
    99  C    0.099917
   100  C    0.033804
   101  O   -0.186981
   102  C    0.024088
   103  N   -0.332233
   104  C   -0.001081
   105  C   -0.024800
   106  C   -0.002654
   107  C    0.080322
   108  C    0.078528
   109  C   -0.015170
   110  C    0.023911
   111  N   -0.395373
   112  C    0.148620
   113  C   -0.178801
   114  C    0.024805
   115  C    0.119055
   116  C    0.137500
   117  C    0.044575
   118  O   -0.191612
   119  C    0.008853
   120  C    0.183321
   121  O   -0.215302
   122  O   -0.324732
   123  C    0.186191
   124  H   -0.034537
   125  H   -0.001834
   126  H   -0.023797
   127  H    0.020284
   128  H    0.020897
   129  H    0.027657
   130  H    0.024002
   131  H    0.016037
   132  H    0.005669
   133  H    0.004817
   134  H    0.020160
   135  H    0.033000
   136  H    0.044408
   137  H    0.015530
   138  H    0.008545
   139  H    0.015405
   140  H    0.052155
   141  H    0.023556
   142  H    0.017641
   143  H    0.012713
   144  H    0.031341
   145  H    0.004862
   146  H    0.019358
   147  H    0.006155
   148  H   -0.004179
   149  H    0.014268
   150  H    0.005127
   151  H    0.017079
   152  H    0.042121
   153  H    0.016888
   154  H    0.031366
   155  H    0.029675
   156  H    0.052787
   157  H    0.029866
   158  H    0.042549
 Sum of Mulliken charges =  -0.00000

 Dipole moment (field-independent basis, Debye):
    X=             -2.0260    Y=             -0.8991    Z=              2.5240  Tot=              3.3591
 Quadrupole moment (field-independent basis, Debye-Ang):
   XX=           -857.4615   YY=           -469.2454   ZZ=           -521.1188
   XY=            -40.3843   XZ=           -151.9047   YZ=             -4.1634

 Normal termination of Gaussian 16 at Thu Sep 16 08:56:49 2021.
