 Gaussian 16, Revision A.03,
 Gaussian 16:  ES64L-G16RevA.03 25-Dec-2016

 ----------------------------------------------------------
 #p cam-b3lyp/Def2SVP td=(nstates=5) density=(transition=1)
 ----------------------------------------------------------

 --------------------------------
 TDDFT excited states in gaussian
 --------------------------------
 Symbolic Z-matrix:
 Charge =  0 Multiplicity = 1

                         Standard orientation:
 ---------------------------------------------------------------------
 Center     Atomic      Atomic             Coordinates (Angstroms)
 Number     Number       Type             X           Y           Z
 ---------------------------------------------------------------------
      1         12           0      -25.388553   -0.386393   -0.170671
      2          6           0      -23.270780    2.348782   -0.572402
      3          6           0      -27.484620    1.549834    1.750887
      4          6           0      -27.186322   -3.196959    0.349994
      5          6           0      -22.940904   -2.385274   -1.838961
      6          7           0      -25.287149    1.655466    0.572316
      7          6           0      -24.364020    2.609167    0.272792
      8          6           0      -24.761761    3.974303    0.848889
      9          6           0      -26.051180    3.595029    1.703223
     10          6           0      -26.291636    2.139847    1.287879
     11          6           0      -25.802622    3.718159    3.201696
     12          6           0      -25.197097    5.060907   -0.197734
     13          6           0      -24.985383    6.505206    0.175224
     14          1           0      -24.719880    6.860542    1.569489
     15          7           0      -27.113863   -0.734116    0.809998
     16          6           0      -27.831603    0.217112    1.562324
     17          6           0      -29.067070   -0.418050    1.939461
     18          6           0      -29.054447   -1.770906    1.515308
     19          6           0      -27.739830   -1.962984    0.854870
     20          6           0      -30.080854    0.224960    2.861510
     21          6           0      -30.072011   -2.828998    1.612714
     22          8           0      -29.843027   -3.996719    1.379566
     23          6           0      -31.497461   -2.510842    2.193559
     24          7           0      -25.218565   -2.527063   -0.815155
     25          6           0      -26.066204   -3.439205   -0.443387
     26          6           0      -25.642326   -4.851070   -0.948863
     27          6           0      -24.347841   -4.610905   -1.704242
     28          6           0      -24.071573   -3.089761   -1.424561
     29          6           0      -25.602168   -5.891615    0.267225
     30          6           0      -24.436617   -4.994046   -3.196627
     31          6           0      -23.916856   -6.422998   -3.605085
     32          7           0      -23.685945   -0.106270   -1.231082
     33          6           0      -22.784740   -1.002525   -1.857615
     34          6           0      -21.695477   -0.312714   -2.436393
     35          6           0      -21.832579    1.020596   -1.858757
     36          6           0      -23.083621    1.046357   -1.178557
     37          6           0      -20.488866   -0.948787   -3.102071
     38          6           0      -21.133466    2.250180   -1.784181
     39          8           0      -20.079800    2.629167   -2.279992
     40          6           0      -22.167957    3.257771   -0.950187
     41          6           0      -21.342971    3.827081    0.166438
     42          8           0      -20.777980    3.151984    1.033316
     43          8           0      -21.160095    5.237106    0.051344
     44          6           0      -20.336246    5.875836    1.124917
     45          1           0      -28.101460    2.221870    2.352362
     46          1           0      -27.718082   -4.076464    0.718011
     47          1           0      -22.185754   -2.938477   -2.400620
     48          1           0      -23.931387    4.289281    1.481237
     49          1           0      -26.907179    4.233931    1.486425
     50          1           0      -24.894896    4.285336    3.405931
     51          1           0      -25.811996    2.754467    3.711649
     52          1           0      -26.514730    4.364960    3.714243
     53          1           0      -26.248277    4.889992   -0.427287
     54          1           0      -24.699533    4.804134   -1.133190
     55          1           0      -25.919914    7.024951   -0.034853
     56          1           0      -24.164850    6.908592   -0.418215
     57          1           0      -30.160682   -0.274608    3.826935
     58          1           0      -31.039256    0.251126    2.341285
     59          1           0      -29.877264    1.254584    3.155221
     60          1           0      -31.385798   -2.531345    3.277941
     61          1           0      -32.177647   -3.338391    1.991580
     62          1           0      -31.827147   -1.516832    1.893778
     63          1           0      -26.464688   -5.128707   -1.608477
     64          1           0      -23.500256   -5.091069   -1.217648
     65          1           0      -24.618620   -6.355081    0.343004
     66          1           0      -26.258078   -6.751066    0.127164
     67          1           0      -25.805324   -5.283960    1.149994
     68          1           0      -23.844179   -4.251167   -3.731875
     69          1           0      -25.477876   -4.859371   -3.489824
     70          1           0      -22.841571   -6.347057   -3.770441
     71          1           0      -24.399490   -6.944181   -4.432066
     72          1           0      -24.035164   -6.950645   -2.659277
     73          1           0      -20.825302   -1.101899   -4.127149
     74          1           0      -20.247596   -1.911476   -2.652936
     75          1           0      -19.529611   -0.454541   -2.943002
     76          1           0      -22.550536    4.013167   -1.637678
     77          1           0      -19.311924    5.504981    1.118906
     78          1           0      -20.681296    5.802797    2.156622
     79          1           0      -20.337328    6.899526    0.750544
     80         12           0       24.721636   -0.782298    0.419035
     81          6           0       25.316914    2.463851   -1.069768
     82          6           0       25.277308    0.653275    3.259412
     83          6           0       24.420040   -3.863559    1.549265
     84          6           0       24.940923   -2.322208   -2.865814
     85          7           0       25.126090    1.400493    1.010324
     86          6           0       25.340453    2.559024    0.292895
     87          6           0       25.649524    3.685791    1.211450
     88          6           0       26.105138    2.977672    2.513221
     89          6           0       25.514308    1.571525    2.255023
     90          6           0       27.636870    2.905223    2.697181
     91          6           0       24.351592    4.500422    1.498991
     92          6           0       24.487105    6.072124    1.467439
     93          1           0       23.202691    6.972802    1.274863
     94          7           0       24.797422   -1.495607    2.277917
     95          6           0       24.923165   -0.758991    3.349493
     96          6           0       24.770783   -1.617435    4.509034
     97          6           0       24.403307   -2.872581    3.969352
     98          6           0       24.560082   -2.775603    2.543424
     99          6           0       24.834142   -1.040400    5.934874
    100          6           0       23.996724   -4.092908    4.747491
    101          8           0       23.737523   -5.110392    4.177487
    102          6           0       23.822271   -3.989183    6.227589
    103          7           0       24.975256   -2.869830   -0.587249
    104          6           0       24.625286   -3.901714    0.177847
    105          6           0       24.361956   -5.123557   -0.619558
    106          6           0       24.741125   -4.623051   -2.049289
    107          6           0       24.917667   -3.138099   -1.871881
    108          6           0       25.040253   -6.463591   -0.158614
    109          6           0       23.638989   -5.026660   -3.104889
    110          6           0       23.922894   -6.173224   -4.114952
    111          7           0       25.040686   -0.183818   -1.501179
    112          6           0       25.032546   -0.852685   -2.745606
    113          6           0       25.207574    0.131979   -3.833198
    114          6           0       25.294979    1.371575   -3.213846
    115          6           0       25.241461    1.169301   -1.845153
    116          6           0       25.412940   -0.216093   -5.327439
    117          6           0       25.456842    2.828278   -3.524951
    118          8           0       25.525815    3.463263   -4.550719
    119          6           0       25.652421    3.589447   -2.119565
    120          6           0       24.895733    4.785769   -2.059173
    121          8           0       23.750072    4.816242   -1.588458
    122          8           0       25.483538    5.927356   -2.595145
    123          6           0       24.821382    7.250802   -2.381830
    124          1           0       25.397818    1.018770    4.280735
    125          1           0       24.255751   -4.877086    1.920793
    126          1           0       24.999424   -2.768053   -3.859926
    127          1           0       26.510941    4.241620    0.840236
    128          1           0       25.741499    3.400275    3.449648
    129          1           0       27.936617    3.420465    3.610232
    130          1           0       28.082603    3.391215    1.829788
    131          1           0       28.045698    1.894572    2.715460
    132          1           0       24.056336    4.201679    2.504980
    133          1           0       23.607730    4.130096    0.793855
    134          1           0       25.224672    6.322501    0.705420
    135          1           0       24.914308    6.282919    2.448551
    136          1           0       23.849685   -1.146794    6.392381
    137          1           0       25.191009   -0.014530    6.019490
    138          1           0       25.442424   -1.681953    6.571808
    139          1           0       23.033757   -3.290723    6.506537
    140          1           0       24.655029   -3.570284    6.792403
    141          1           0       23.499529   -4.957992    6.609651
    142          1           0       23.286822   -5.301966   -0.600179
    143          1           0       25.735842   -4.988286   -2.305630
    144          1           0       25.525513   -6.246641    0.792425
    145          1           0       25.695232   -6.964942   -0.872053
    146          1           0       24.258356   -7.208016   -0.007434
    147          1           0       23.418676   -4.162163   -3.731747
    148          1           0       22.715295   -5.078885   -2.528566
    149          1           0       23.065162   -6.843853   -4.163805
    150          1           0       24.823041   -6.708677   -3.812598
    151          1           0       24.068024   -5.773498   -5.119291
    152          1           0       24.846681   -1.123344   -5.536144
    153          1           0       26.456607   -0.486357   -5.489794
    154          1           0       25.097786    0.594605   -5.984771
    155          1           0       26.710088    3.829789   -2.015574
    156          1           0       24.784247    7.504616   -1.321501
    157          1           0       23.907809    7.340320   -2.968373
    158          1           0       25.535472    8.007341   -2.706891
 ---------------------------------------------------------------------

 SCF Done:  E(RCAM-B3LYP) =  -4069.81206908     A.U. after   19 cycles

 Excitation energies and oscillator strengths:

 Excited State   1:      Singlet-A      1.7264 eV  718.17 nm  f=0.3696  <S**2>=0.000
     309 -> 315        0.17541
     312 -> 313        0.68640
     309 <- 315        0.10553
 This state for optimization and/or second-order correction.
 Total Energy, E(TD-HF/TD-DFT) =  -4069.74862527
 Copying the excited state density for this state as the 1-particle RhoCI density.

 Excited State   2:      Singlet-A      1.7381 eV  713.32 nm  f=0.3840  <S**2>=0.000
     310 -> 316        0.16386
     311 -> 314        0.68890
     310 <- 316        0.10278

 Excited State   3:      Singlet-A      2.1720 eV  570.83 nm  f=0.2253  <S**2>=0.000
     310 -> 314        0.67444
     311 -> 316       -0.20201

 Excited State   4:      Singlet-A      2.2226 eV  557.83 nm  f=0.1469  <S**2>=0.000
     309 -> 313        0.65068
     312 -> 315       -0.26116

 Excited State   5:      Singlet-A      3.2121 eV  385.99 nm  f=0.0000  <S**2>=0.000
     312 -> 314        0.70711

 The electronic state is 1-A.
 Alpha  occ. eigenvalues --  -46.89427 -46.87984 -19.24147 -19.23956 -19.19627
 Alpha  occ. eigenvalues --  -19.19449 -19.19270 -19.19245 -19.18515 -19.18217
 Alpha  occ. eigenvalues --  -14.42684 -14.41747 -14.41648 -14.40168 -14.40158
 Alpha  occ. eigenvalues --  -14.39809 -14.39759 -14.39350 -10.39062 -10.38503
 Alpha  occ. eigenvalues --  -10.35942 -10.35470 -10.35117 -10.34335 -10.31696
 Alpha  occ. eigenvalues --  -10.31607 -10.31604 -10.31185 -10.31155 -10.31125
 Alpha  occ. eigenvalues --  -10.31008 -10.30850 -10.30808 -10.30690 -10.30583
 Alpha  occ. eigenvalues --  -10.30025 -10.30010 -10.29824 -10.29698 -10.29358
 Alpha  occ. eigenvalues --  -10.29302 -10.28930 -10.28897 -10.28866 -10.28697
 Alpha  occ. eigenvalues --  -10.28485 -10.28231 -10.28174 -10.28102 -10.28094
 Alpha  occ. eigenvalues --  -10.28046 -10.27989 -10.27933 -10.27893 -10.27845
 Alpha  occ. eigenvalues --  -10.27769 -10.27767 -10.27757 -10.27612 -10.27501
 Alpha  occ. eigenvalues --  -10.27474 -10.27250 -10.27148 -10.27126 -10.26878
 Alpha  occ. eigenvalues --  -10.26808 -10.26790 -10.26509 -10.26363 -10.26345
 Alpha  occ. eigenvalues --  -10.26342 -10.26326 -10.26279 -10.26267 -10.26034
 Alpha  occ. eigenvalues --  -10.25992 -10.25906 -10.25858 -10.25851 -10.25801
 Alpha  occ. eigenvalues --  -10.25714 -10.25695 -10.25518 -10.25428 -10.25087
 Alpha  occ. eigenvalues --  -10.24530  -3.17950  -3.16680  -1.92837  -1.92412
 Alpha  occ. eigenvalues --   -1.92249  -1.91592  -1.91128  -1.90999  -1.14170
 Alpha  occ. eigenvalues --   -1.13444  -1.12154  -1.11125  -1.10835  -1.08623
 Alpha  occ. eigenvalues --   -1.06395  -1.05822  -1.05641  -1.05195  -1.04942
 Alpha  occ. eigenvalues --   -1.04869  -1.03952  -1.03380  -1.02424  -1.00971
 Alpha  occ. eigenvalues --   -0.92104  -0.91242  -0.89295  -0.89244  -0.88978
 Alpha  occ. eigenvalues --   -0.88855  -0.88411  -0.87977  -0.87783  -0.87769
 Alpha  occ. eigenvalues --   -0.87623  -0.87489  -0.86269  -0.85179  -0.84334
 Alpha  occ. eigenvalues --   -0.84329  -0.83042  -0.82991  -0.82207  -0.82126
 Alpha  occ. eigenvalues --   -0.82001  -0.81498  -0.80941  -0.80395  -0.80389
 Alpha  occ. eigenvalues --   -0.80031  -0.78793  -0.78755  -0.77274  -0.77109
 Alpha  occ. eigenvalues --   -0.76868  -0.76685  -0.76207  -0.75867  -0.75391
 Alpha  occ. eigenvalues --   -0.75065  -0.73126  -0.72760  -0.71622  -0.71087
 Alpha  occ. eigenvalues --   -0.69570  -0.69201  -0.68979  -0.68768  -0.67989
 Alpha  occ. eigenvalues --   -0.67921  -0.67323  -0.67294  -0.66096  -0.65792
 Alpha  occ. eigenvalues --   -0.65607  -0.65257  -0.64959  -0.64957  -0.64615
 Alpha  occ. eigenvalues --   -0.64208  -0.61423  -0.61400  -0.61028  -0.60355
 Alpha  occ. eigenvalues --   -0.60090  -0.59646  -0.59324  -0.59047  -0.58537
 Alpha  occ. eigenvalues --   -0.58037  -0.57786  -0.57554  -0.57358  -0.57165
 Alpha  occ. eigenvalues --   -0.56535  -0.56266  -0.55729  -0.55492  -0.54979
 Alpha  occ. eigenvalues --   -0.54633  -0.54010  -0.53993  -0.53859  -0.53399
 Alpha  occ. eigenvalues --   -0.53376  -0.53239  -0.53019  -0.52909  -0.52624
 Alpha  occ. eigenvalues --   -0.52496  -0.52415  -0.52376  -0.52262  -0.52055
 Alpha  occ. eigenvalues --   -0.51968  -0.51836  -0.51599  -0.51299  -0.51023
 Alpha  occ. eigenvalues --   -0.50566  -0.50534  -0.50224  -0.50143  -0.50072
 Alpha  occ. eigenvalues --   -0.49875  -0.49840  -0.49688  -0.49613  -0.49543
 Alpha  occ. eigenvalues --   -0.49518  -0.49292  -0.49259  -0.49090  -0.48820
 Alpha  occ. eigenvalues --   -0.48725  -0.48574  -0.48388  -0.48293  -0.48151
 Alpha  occ. eigenvalues --   -0.47925  -0.47761  -0.47661  -0.47540  -0.47504
 Alpha  occ. eigenvalues --   -0.47425  -0.47221  -0.47147  -0.46938  -0.46714
 Alpha  occ. eigenvalues --   -0.46416  -0.46218  -0.45778  -0.45769  -0.45515
 Alpha  occ. eigenvalues --   -0.45387  -0.45078  -0.45054  -0.44905  -0.44764
 Alpha  occ. eigenvalues --   -0.44693  -0.44541  -0.44536  -0.44449  -0.44261
 Alpha  occ. eigenvalues --   -0.44096  -0.44001  -0.43899  -0.43423  -0.43379
 Alpha  occ. eigenvalues --   -0.43318  -0.43024  -0.42976  -0.42890  -0.42733
 Alpha  occ. eigenvalues --   -0.42650  -0.42620  -0.42481  -0.42201  -0.42004
 Alpha  occ. eigenvalues --   -0.41860  -0.41844  -0.41501  -0.41308  -0.41285
 Alpha  occ. eigenvalues --   -0.41026  -0.40822  -0.40617  -0.40350  -0.40269
 Alpha  occ. eigenvalues --   -0.40179  -0.39878  -0.39869  -0.39837  -0.39434
 Alpha  occ. eigenvalues --   -0.38629  -0.38310  -0.37784  -0.37647  -0.37237
 Alpha  occ. eigenvalues --   -0.37022  -0.36991  -0.36505  -0.36167  -0.36044
 Alpha  occ. eigenvalues --   -0.35786  -0.35712  -0.34380  -0.33857  -0.33578
 Alpha  occ. eigenvalues --   -0.33517  -0.33037  -0.32591  -0.31829  -0.31665
 Alpha  occ. eigenvalues --   -0.31511  -0.31083  -0.31080  -0.30726  -0.30515
 Alpha  occ. eigenvalues --   -0.29780  -0.29664  -0.29488  -0.24193  -0.23518
 Alpha  occ. eigenvalues --   -0.21607  -0.21551
 Alpha virt. eigenvalues --   -0.09062  -0.09054  -0.01659  -0.00336   0.00206
 Alpha virt. eigenvalues --    0.00954   0.02336   0.02393   0.02677   0.03738
 Alpha virt. eigenvalues --    0.04550   0.04705   0.05172   0.05204   0.06124

 Mulliken charges:
               1
     1  Mg  11.998358
     2  C    6.032266
     3  C    5.991465
     4  C    5.973535
     5  C    6.002878
     6  N    7.016057
     7  C    5.961727
     8  C    6.012479
     9  C    5.987004
    10  C    6.028684
    11  C    5.995129
    12  C    6.002196
    13  C    6.000396
    14  H    0.995331
    15  N    6.986119
    16  C    6.042789
    17  C    6.018850
    18  C    6.019750
    19  C    6.034644
    20  C    5.994112
    21  C    6.008959
    22  O    8.030644
    23  C    5.997420
    24  N    6.991360
    25  C    6.031869
    26  C    5.997514
    27  C    6.004167
    28  C    5.977779
    29  C    5.997485
    30  C    6.004055
    31  C    5.999093
    32  N    7.001909
    33  C    5.962489
    34  C    5.975017
    35  C    5.991571
    36  C    5.967584
    37  C    6.001705
    38  C    5.987107
    39  O    7.966939
    40  C    5.990646
    41  C    5.995974
    42  O    7.996489
    43  O    7.997787
    44  C    6.002017
    45  H    1.014306
    46  H    1.001462
    47  H    0.986967
    48  H    1.002673
    49  H    1.003600
    50  H    1.015902
    51  H    0.998011
    52  H    1.003957
    53  H    0.989359
    54  H    1.008248
    55  H    0.996453
    56  H    1.004494
    57  H    1.019579
    58  H    1.018253
    59  H    1.017736
    60  H    1.008550
    61  H    1.014748
    62  H    1.004575
    63  H    0.996671
    64  H    1.000603
    65  H    1.008643
    66  H    0.999691
    67  H    0.994076
    68  H    1.006493
    69  H    0.989279
    70  H    1.002171
    71  H    0.994951
    72  H    0.993651
    73  H    0.983725
    74  H    0.981778
    75  H    0.985480
    76  H    0.993616
    77  H    0.999646
    78  H    0.993441
    79  H    0.995865
    80  Mg  12.000060
    81  C    5.999634
    82  C    6.000015
    83  C    6.000366
    84  C    5.999899
    85  N    6.999785
    86  C    6.000443
    87  C    5.999930
    88  C    6.000057
    89  C    5.999779
    90  C    6.000071
    91  C    5.999977
    92  C    5.999958
    93  H    1.000061
    94  N    7.000154
    95  C    5.999640
    96  C    5.999726
    97  C    5.999913
    98  C    5.999529
    99  C    6.000069
   100  C    5.999854
   101  O    7.999756
   102  C    6.000076
   103  N    7.000024
   104  C    5.999555
   105  C    6.000148
   106  C    5.999900
   107  C    6.000201
   108  C    6.000008
   109  C    5.999962
   110  C    5.999997
   111  N    7.000040
   112  C    6.000417
   113  C    6.000327
   114  C    6.000009
   115  C    6.000436
   116  C    5.999963
   117  C    6.000171
   118  O    8.000257
   119  C    6.000084
   120  C    6.000050
   121  O    8.000102
   122  O    7.999984
   123  C    5.999973
   124  H    0.999859
   125  H    0.999915
   126  H    1.000119
   127  H    0.999964
   128  H    0.999980
   129  H    0.999939
   130  H    0.999826
   131  H    0.999998
   132  H    1.000156
   133  H    0.999980
   134  H    0.999950
   135  H    1.000037
   136  H    0.999809
   137  H    0.999788
   138  H    0.999764
   139  H    0.999947
   140  H    0.999910
   141  H    0.999839
   142  H    1.000009
   143  H    0.999999
   144  H    1.000038
   145  H    0.999888
   146  H    0.999991
   147  H    0.999945
   148  H    1.000117
   149  H    1.000076
   150  H    1.000013
   151  H    0.999972
   152  H    1.000223
   153  H    1.000212
   154  H    1.000204
   155  H    1.000052
   156  H    1.000051
   157  H    1.000055
   158  H    1.000015
 Sum of Mulliken charges = 624.00000

 Dipole moment (field-independent basis, Debye):
    X=             -9.2740    Y=             -0.8350    Z=              5.1199  Tot=             10.6263
 Quadrupole moment (field-independent basis, Debye-Ang):
   XX=            470.9177   YY=             -2.0180   ZZ=             -1.6230
   XY=             26.1702   XZ=           -134.4547   YZ=             -2.6124

 Normal termination of Gaussian 16 at Thu Sep 23 06:38:00 2021.
