 Gaussian 16, Revision A.03,
 Gaussian 16:  ES64L-G16RevA.03 25-Dec-2016

 ----------------------------------------------------------
 #p cam-b3lyp/Def2SVP td=(nstates=5) density=(transition=1)
 ----------------------------------------------------------

 --------------------------------
 TDDFT excited states in gaussian
 --------------------------------
 Symbolic Z-matrix:
 Charge =  0 Multiplicity = 1

                         Standard orientation:
 ---------------------------------------------------------------------
 Center     Atomic      Atomic             Coordinates (Angstroms)
 Number     Number       Type             X           Y           Z
 ---------------------------------------------------------------------
      1         12           0      -27.018092    0.480526    0.048195
      2          6           0      -24.998582   -1.918560    1.562626
      3          6           0      -28.828507   -2.028393   -1.455990
      4          6           0      -28.703310    2.927176   -1.556888
      5          6           0      -24.822877    2.985054    1.343599
      6          7           0      -26.824412   -1.685291   -0.008597
      7          6           0      -25.960435   -2.466070    0.695217
      8          6           0      -26.280193   -3.956027    0.517822
      9          6           0      -27.430582   -3.905195   -0.582340
     10          6           0      -27.718604   -2.402943   -0.672709
     11          6           0      -26.969661   -4.470666   -1.920309
     12          6           0      -26.868964   -4.686677    1.776847
     13          6           0      -26.615414   -6.166719    1.899764
     14          1           0      -26.154285   -6.920640    0.733706
     15          7           0      -28.581838    0.446168   -1.221780
     16          6           0      -29.190107   -0.715985   -1.736937
     17          6           0      -30.354113   -0.273861   -2.459196
     18          6           0      -30.393652    1.143348   -2.474589
     19          6           0      -29.186586    1.577846   -1.729275
     20          6           0      -31.228831   -1.205872   -3.270133
     21          6           0      -31.379485    2.081604   -3.033422
     22          8           0      -31.178656    3.272546   -3.141531
     23          6           0      -32.708530    1.547252   -3.680428
     24          7           0      -26.928369    2.720584    0.019598
     25          6           0      -27.707519    3.442623   -0.728927
     26          6           0      -27.351416    4.956458   -0.628751
     27          6           0      -26.180834    5.007942    0.336161
     28          6           0      -25.877351    3.485737    0.579502
     29          6           0      -27.129600    5.576490   -2.088058
     30          6           0      -26.481026    5.825013    1.610590
     31          6           0      -26.015956    7.329112    1.627523
     32          7           0      -25.487842    0.602698    1.369265
     33          6           0      -24.680278    1.681096    1.808451
     34          6           0      -23.690351    1.243018    2.716992
     35          6           0      -23.751758   -0.207217    2.564596
     36          6           0      -24.891955   -0.487094    1.758333
     37          6           0      -22.587948    2.097442    3.315569
     38          6           0      -23.057431   -1.373284    2.970052
     39          8           0      -22.088703   -1.542332    3.699888
     40          6           0      -23.967759   -2.626057    2.351328
     41          6           0      -22.994402   -3.477469    1.590250
     42          8           0      -22.305966   -3.078499    0.645089
     43          8           0      -22.839439   -4.776901    2.157983
     44          6           0      -21.873872   -5.681253    1.458635
     45          1           0      -29.356785   -2.874994   -1.901060
     46          1           0      -29.170638    3.631321   -2.247914
     47          1           0      -24.152795    3.711689    1.806997
     48          1           0      -25.369540   -4.417310    0.135037
     49          1           0      -28.313131   -4.479389   -0.300669
     50          1           0      -26.045799   -5.038174   -1.811758
     51          1           0      -26.899058   -3.709919   -2.698204
     52          1           0      -27.604849   -5.269713   -2.302689
     53          1           0      -27.941077   -4.493908    1.794141
     54          1           0      -26.509587   -4.137680    2.647495
     55          1           0      -27.573912   -6.632582    2.127516
     56          1           0      -25.891605   -6.338022    2.696583
     57          1           0      -31.165462   -1.028532   -4.343688
     58          1           0      -32.252311   -1.108286   -2.905688
     59          1           0      -30.991959   -2.267478   -3.201381
     60          1           0      -32.441744    1.239734   -4.691878
     61          1           0      -33.405163    2.370449   -3.839598
     62          1           0      -33.084590    0.680560   -3.138170
     63          1           0      -28.258317    5.390847   -0.207696
     64          1           0      -25.268821    5.348366   -0.151769
     65          1           0      -26.142313    6.031698   -2.165265
     66          1           0      -27.793079    6.412048   -2.311951
     67          1           0      -27.207577    4.720940   -2.760184
     68          1           0      -25.976821    5.304254    2.425409
     69          1           0      -27.554530    5.746853    1.783222
     70          1           0      -24.976222    7.348263    1.956055
     71          1           0      -26.609150    8.059269    2.178393
     72          1           0      -25.993302    7.537698    0.558439
     73          1           0      -23.067458    2.543478    4.186510
     74          1           0      -22.278083    2.885344    2.630079
     75          1           0      -21.619112    1.615080    3.451351
     76          1           0      -24.450394   -3.149292    3.177720
     77          1           0      -20.858634   -5.287622    1.492586
     78          1           0      -22.066262   -5.940060    0.417090
     79          1           0      -21.935698   -6.540901    2.125929
     80         12           0       26.902949    0.507759    0.004488
     81          6           0       25.545198   -2.218610   -1.510279
     82          6           0       27.819958   -1.382601    2.728918
     83          6           0       28.049455    3.338384    1.465260
     84          6           0       25.526984    2.487921   -2.579586
     85          7           0       26.501352   -1.538947    0.640014
     86          6           0       26.229708   -2.501158   -0.281620
     87          6           0       26.527713   -3.881882    0.196199
     88          6           0       27.028196   -3.543701    1.694923
     89          6           0       27.133419   -2.054059    1.715740
     90          6           0       26.027664   -4.081912    2.815324
     91          6           0       27.696538   -4.498973   -0.704850
     92          6           0       27.806335   -6.024140   -0.763329
     93          1           0       27.086077   -6.990983    0.209268
     94          7           0       27.901271    0.956423    1.786748
     95          6           0       28.163884    0.017143    2.797329
     96          6           0       28.816210    0.726447    3.873460
     97          6           0       28.916105    2.084556    3.508876
     98          6           0       28.314695    2.140144    2.183570
     99          6           0       29.327855   -0.019192    5.128075
    100          6           0       29.474854    3.309314    4.405752
    101          8           0       29.654103    4.445053    3.948112
    102          6           0       29.867375    3.187909    5.868941
    103          7           0       26.844231    2.647234   -0.560477
    104          6           0       27.368134    3.585707    0.263768
    105          6           0       26.965134    4.994921   -0.167325
    106          6           0       26.419008    4.728597   -1.686305
    107          6           0       26.333125    3.194339   -1.703449
    108          6           0       26.000415    5.786891    0.829027
    109          6           0       27.419077    5.121244   -2.888492
    110          6           0       26.911926    5.956210   -4.049862
    111          7           0       25.803270    0.268995   -1.755211
    112          6           0       25.312687    1.116292   -2.676749
    113          6           0       24.664234    0.343011   -3.781809
    114          6           0       24.808014   -0.994069   -3.341341
    115          6           0       25.393012   -0.938482   -2.052682
    116          6           0       24.054307    0.793081   -5.062036
    117          6           0       24.499081   -2.311518   -3.754538
    118          8           0       23.935504   -2.721146   -4.790182
    119          6           0       24.959357   -3.173642   -2.581762
    120          6           0       23.820205   -3.888848   -2.053566
    121          8           0       22.769114   -3.494125   -1.655417
    122          8           0       24.206842   -5.223037   -1.968115
    123          6           0       23.299894   -6.291505   -1.397853
    124          1           0       28.334884   -1.943867    3.510902
    125          1           0       28.334855    4.255200    1.985971
    126          1           0       24.915942    3.039192   -3.296508
    127          1           0       25.757429   -4.651868    0.234864
    128          1           0       28.007192   -3.979794    1.893554
    129          1           0       26.491141   -4.446201    3.731865
    130          1           0       25.338338   -4.795343    2.363980
    131          1           0       25.422132   -3.227146    3.118420
    132          1           0       28.674653   -4.124881   -0.401819
    133          1           0       27.505918   -4.122933   -1.710337
    134          1           0       28.874705   -6.240422   -0.724425
    135          1           0       27.518020   -6.352861   -1.761062
    136          1           0       29.199329   -1.100863    5.090730
    137          1           0       28.802277    0.411194    5.979862
    138          1           0       30.382266    0.234099    5.240745
    139          1           0       30.767890    2.574985    5.857482
    140          1           0       29.208170    2.520637    6.424546
    141          1           0       29.842024    4.164249    6.352471
    142          1           0       27.878265    5.583912   -0.261169
    143          1           0       25.473777    5.244313   -1.856775
    144          1           0       25.073537    6.078655    0.334628
    145          1           0       26.510846    6.663756    1.225727
    146          1           0       25.684081    5.143034    1.650031
    147          1           0       27.927567    4.246934   -3.294578
    148          1           0       28.239281    5.670771   -2.427539
    149          1           0       27.104239    5.377054   -4.952350
    150          1           0       27.371252    6.943157   -4.097647
    151          1           0       25.826851    6.049949   -3.987512
    152          1           0       24.145175    1.860270   -5.263731
    153          1           0       22.987047    0.571103   -5.083348
    154          1           0       24.534270    0.252741   -5.877736
    155          1           0       25.722504   -3.895074   -2.875180
    156          1           0       22.372083   -5.848122   -1.035711
    157          1           0       23.777529   -6.751908   -0.531952
    158          1           0       23.122982   -6.987410   -2.217881
 ---------------------------------------------------------------------

 SCF Done:  E(RCAM-B3LYP) =  -4069.84047544     A.U. after   19 cycles

 Excitation energies and oscillator strengths:

 Excited State   1:      Singlet-A      1.7264 eV  718.16 nm  f=0.3758  <S**2>=0.000
     309 -> 316       -0.17541
     311 -> 313        0.68643
     309 <- 316       -0.10553
 This state for optimization and/or second-order correction.
 Total Energy, E(TD-HF/TD-DFT) =  -4069.77703052
 Copying the excited state density for this state as the 1-particle RhoCI density.

 Excited State   2:      Singlet-A      1.7389 eV  713.01 nm  f=0.3948  <S**2>=0.000
     310 -> 315        0.19175
     312 -> 314        0.68294
     310 <- 315        0.10976

 Excited State   3:      Singlet-A      2.2226 eV  557.83 nm  f=0.1438  <S**2>=0.000
     309 -> 313        0.65060
     311 -> 316        0.26124

 Excited State   4:      Singlet-A      2.2287 eV  556.30 nm  f=0.1048  <S**2>=0.000
     310 -> 314        0.63899
     312 -> 315       -0.29486

 Excited State   5:      Singlet-A      3.1090 eV  398.80 nm  f=0.0000  <S**2>=0.000
     312 -> 313        0.70710

 The electronic state is 1-A.
 Alpha  occ. eigenvalues --  -46.89384 -46.87980 -19.24142 -19.23666 -19.19574
 Alpha  occ. eigenvalues --  -19.19443 -19.19265 -19.19178 -19.18764 -19.18213
 Alpha  occ. eigenvalues --  -14.42679 -14.42462 -14.41654 -14.41643 -14.40163
 Alpha  occ. eigenvalues --  -14.39535 -14.39375 -14.39345 -10.39057 -10.38636
 Alpha  occ. eigenvalues --  -10.36214 -10.35465 -10.34458 -10.34331 -10.31885
 Alpha  occ. eigenvalues --  -10.31730 -10.31692 -10.31602 -10.31179 -10.31150
 Alpha  occ. eigenvalues --  -10.30845 -10.30803 -10.30685 -10.30659 -10.30628
 Alpha  occ. eigenvalues --  -10.30198 -10.29978 -10.29852 -10.29729 -10.29693
 Alpha  occ. eigenvalues --  -10.28998 -10.28892 -10.28861 -10.28838 -10.28757
 Alpha  occ. eigenvalues --  -10.28480 -10.28282 -10.28234 -10.28172 -10.28171
 Alpha  occ. eigenvalues --  -10.28097 -10.28041 -10.27946 -10.27943 -10.27928
 Alpha  occ. eigenvalues --  -10.27841 -10.27807 -10.27764 -10.27762 -10.27751
 Alpha  occ. eigenvalues --  -10.27607 -10.27499 -10.27496 -10.27469 -10.27445
 Alpha  occ. eigenvalues --  -10.27382 -10.27348 -10.26874 -10.26803 -10.26646
 Alpha  occ. eigenvalues --  -10.26420 -10.26359 -10.26340 -10.26321 -10.26194
 Alpha  occ. eigenvalues --  -10.26151 -10.26099 -10.26049 -10.25987 -10.25876
 Alpha  occ. eigenvalues --  -10.25854 -10.25846 -10.25797 -10.25347 -10.24732
 Alpha  occ. eigenvalues --  -10.24525  -3.17791  -3.16675  -1.92710  -1.92228
 Alpha  occ. eigenvalues --   -1.92102  -1.91587  -1.91123  -1.90994  -1.15615
 Alpha  occ. eigenvalues --   -1.13438  -1.11120  -1.09498  -1.08619  -1.08310
 Alpha  occ. eigenvalues --   -1.07186  -1.05817  -1.05546  -1.05190  -1.04444
 Alpha  occ. eigenvalues --   -1.03947  -1.03560  -1.03375  -1.02613  -1.02419
 Alpha  occ. eigenvalues --   -0.93477  -0.92099  -0.89290  -0.88973  -0.88592
 Alpha  occ. eigenvalues --   -0.88406  -0.88246  -0.87764  -0.87501  -0.87484
 Alpha  occ. eigenvalues --   -0.87048  -0.86890  -0.86264  -0.86205  -0.84329
 Alpha  occ. eigenvalues --   -0.84309  -0.83458  -0.82986  -0.82348  -0.82202
 Alpha  occ. eigenvalues --   -0.81592  -0.81493  -0.81172  -0.80390  -0.80283
 Alpha  occ. eigenvalues --   -0.80026  -0.78788  -0.78396  -0.77455  -0.77269
 Alpha  occ. eigenvalues --   -0.77107  -0.76863  -0.76185  -0.75862  -0.75171
 Alpha  occ. eigenvalues --   -0.75060  -0.73121  -0.72574  -0.71969  -0.71617
 Alpha  occ. eigenvalues --   -0.69565  -0.69241  -0.68974  -0.68622  -0.68209
 Alpha  occ. eigenvalues --   -0.67985  -0.67289  -0.65968  -0.65787  -0.65322
 Alpha  occ. eigenvalues --   -0.65253  -0.65188  -0.64952  -0.64610  -0.64499
 Alpha  occ. eigenvalues --   -0.64235  -0.61800  -0.61394  -0.60433  -0.60350
 Alpha  occ. eigenvalues --   -0.59910  -0.59641  -0.59319  -0.59166  -0.58779
 Alpha  occ. eigenvalues --   -0.58532  -0.58456  -0.57781  -0.57739  -0.57353
 Alpha  occ. eigenvalues --   -0.56261  -0.56010  -0.55486  -0.55277  -0.54974
 Alpha  occ. eigenvalues --   -0.54628  -0.54219  -0.54005  -0.53754  -0.53394
 Alpha  occ. eigenvalues --   -0.53234  -0.53028  -0.52959  -0.52904  -0.52744
 Alpha  occ. eigenvalues --   -0.52491  -0.52371  -0.52257  -0.52185  -0.52121
 Alpha  occ. eigenvalues --   -0.52050  -0.51680  -0.51615  -0.51594  -0.51391
 Alpha  occ. eigenvalues --   -0.51018  -0.50791  -0.50561  -0.50525  -0.50138
 Alpha  occ. eigenvalues --   -0.49870  -0.49789  -0.49686  -0.49608  -0.49513
 Alpha  occ. eigenvalues --   -0.49379  -0.49287  -0.49109  -0.49084  -0.48900
 Alpha  occ. eigenvalues --   -0.48569  -0.48383  -0.48290  -0.48146  -0.48129
 Alpha  occ. eigenvalues --   -0.47935  -0.47656  -0.47598  -0.47499  -0.47252
 Alpha  occ. eigenvalues --   -0.47216  -0.47142  -0.46933  -0.46911  -0.46709
 Alpha  occ. eigenvalues --   -0.46576  -0.46441  -0.46230  -0.46152  -0.45773
 Alpha  occ. eigenvalues --   -0.45567  -0.45172  -0.45073  -0.45050  -0.44689
 Alpha  occ. eigenvalues --   -0.44672  -0.44536  -0.44333  -0.44256  -0.44246
 Alpha  occ. eigenvalues --   -0.44091  -0.43963  -0.43894  -0.43881  -0.43675
 Alpha  occ. eigenvalues --   -0.43374  -0.43125  -0.43019  -0.42885  -0.42655
 Alpha  occ. eigenvalues --   -0.42615  -0.42476  -0.42307  -0.41999  -0.41839
 Alpha  occ. eigenvalues --   -0.41731  -0.41614  -0.41496  -0.41303  -0.41280
 Alpha  occ. eigenvalues --   -0.41118  -0.41036  -0.40818  -0.40795  -0.40264
 Alpha  occ. eigenvalues --   -0.40191  -0.39865  -0.39706  -0.39429  -0.39391
 Alpha  occ. eigenvalues --   -0.38624  -0.38403  -0.37779  -0.37769  -0.37520
 Alpha  occ. eigenvalues --   -0.37232  -0.36986  -0.36742  -0.36563  -0.36162
 Alpha  occ. eigenvalues --   -0.36058  -0.35781  -0.34474  -0.34375  -0.34215
 Alpha  occ. eigenvalues --   -0.33852  -0.33512  -0.33138  -0.31660  -0.31233
 Alpha  occ. eigenvalues --   -0.31083  -0.31075  -0.31004  -0.30510  -0.30158
 Alpha  occ. eigenvalues --   -0.30032  -0.29775  -0.29483  -0.24188  -0.23816
 Alpha  occ. eigenvalues --   -0.21546  -0.21115
 Alpha virt. eigenvalues --   -0.09057  -0.08498  -0.01684  -0.01654   0.00014
 Alpha virt. eigenvalues --    0.00211   0.02324   0.02398   0.02808   0.03743
 Alpha virt. eigenvalues --    0.04685   0.04710   0.05209   0.05350   0.06129

 Mulliken charges:
               1
     1  Mg  11.998352
     2  C    6.032339
     3  C    5.991457
     4  C    5.973609
     5  C    6.002861
     6  N    7.016092
     7  C    5.961745
     8  C    6.012476
     9  C    5.986977
    10  C    6.028606
    11  C    5.995129
    12  C    6.002204
    13  C    6.000395
    14  H    0.995328
    15  N    6.986157
    16  C    6.042794
    17  C    6.018853
    18  C    6.019720
    19  C    6.034585
    20  C    5.994114
    21  C    6.008968
    22  O    8.030639
    23  C    5.997440
    24  N    6.991321
    25  C    6.031898
    26  C    5.997541
    27  C    6.004177
    28  C    5.977773
    29  C    5.997487
    30  C    6.004061
    31  C    5.999093
    32  N    7.001954
    33  C    5.962450
    34  C    5.975010
    35  C    5.991534
    36  C    5.967595
    37  C    6.001701
    38  C    5.987068
    39  O    7.966977
    40  C    5.990617
    41  C    5.995940
    42  O    7.996520
    43  O    7.997797
    44  C    6.002011
    45  H    1.014315
    46  H    1.001450
    47  H    0.986975
    48  H    1.002674
    49  H    1.003608
    50  H    1.015910
    51  H    0.998011
    52  H    1.003964
    53  H    0.989355
    54  H    1.008253
    55  H    0.996452
    56  H    1.004495
    57  H    1.019578
    58  H    1.018251
    59  H    1.017734
    60  H    1.008545
    61  H    1.014741
    62  H    1.004575
    63  H    0.996656
    64  H    1.000600
    65  H    1.008636
    66  H    0.999686
    67  H    0.994074
    68  H    1.006487
    69  H    0.989277
    70  H    1.002169
    71  H    0.994953
    72  H    0.993651
    73  H    0.983725
    74  H    0.981784
    75  H    0.985484
    76  H    0.993614
    77  H    0.999645
    78  H    0.993442
    79  H    0.995865
    80  Mg  11.999994
    81  C    6.000010
    82  C    6.000040
    83  C    6.000027
    84  C    5.999964
    85  N    7.000061
    86  C    6.000048
    87  C    5.999956
    88  C    6.000045
    89  C    5.999881
    90  C    6.000007
    91  C    5.999990
    92  C    6.000007
    93  H    1.000034
    94  N    7.000018
    95  C    5.999860
    96  C    5.999983
    97  C    5.999914
    98  C    5.999930
    99  C    6.000001
   100  C    5.999961
   101  O    7.999908
   102  C    6.000004
   103  N    6.999961
   104  C    5.999942
   105  C    6.000030
   106  C    5.999978
   107  C    6.000100
   108  C    6.000005
   109  C    5.999977
   110  C    6.000004
   111  N    7.000003
   112  C    6.000115
   113  C    6.000090
   114  C    6.000007
   115  C    6.000067
   116  C    5.999995
   117  C    6.000037
   118  O    8.000092
   119  C    5.999981
   120  C    6.000020
   121  O    8.000040
   122  O    7.999989
   123  C    5.999989
   124  H    0.999970
   125  H    0.999979
   126  H    1.000036
   127  H    1.000030
   128  H    0.999971
   129  H    0.999997
   130  H    0.999965
   131  H    1.000028
   132  H    1.000019
   133  H    0.999963
   134  H    0.999986
   135  H    0.999980
   136  H    0.999941
   137  H    0.999963
   138  H    0.999926
   139  H    0.999954
   140  H    1.000000
   141  H    0.999955
   142  H    0.999981
   143  H    1.000032
   144  H    0.999991
   145  H    0.999988
   146  H    1.000038
   147  H    0.999976
   148  H    1.000024
   149  H    0.999973
   150  H    1.000003
   151  H    1.000023
   152  H    1.000054
   153  H    1.000095
   154  H    1.000032
   155  H    1.000005
   156  H    1.000047
   157  H    1.000017
   158  H    0.999995
 Sum of Mulliken charges = 624.00000

 Dipole moment (field-independent basis, Debye):
    X=             -8.4394    Y=             -1.1264    Z=             -6.5040  Tot=             10.7142
 Quadrupole moment (field-independent basis, Debye-Ang):
   XX=            453.6498   YY=             -3.9082   ZZ=             -0.0388
   XY=             26.7347   XZ=            174.2949   YZ=             -2.8979

 Normal termination of Gaussian 16 at Thu Sep 23 06:28:44 2021.
