 Gaussian 16, Revision A.03,
 Gaussian 16:  ES64L-G16RevA.03 25-Dec-2016

 -----------------------------------
 #p cam-b3lyp/Def2SVP td=(nstates=5)
 -----------------------------------

 --------------------------------
 TDDFT excited states in gaussian
 --------------------------------
 Symbolic Z-matrix:
 Charge =  0 Multiplicity = 1

                         Standard orientation:
 ---------------------------------------------------------------------
 Center     Atomic      Atomic             Coordinates (Angstroms)
 Number     Number       Type             X           Y           Z
 ---------------------------------------------------------------------
      1         12           0       20.539654   -0.536383    0.047336
      2          6           0       19.489338    2.826101    0.713298
      3          6           0       20.681584    0.298308   -3.295519
      4          6           0       20.876632   -3.725323   -0.579012
      5          6           0       20.108453   -1.166463    3.427794
      6          7           0       19.845452    1.335987   -1.216628
      7          6           0       19.586644    2.558418   -0.658238
      8          6           0       19.650481    3.653174   -1.756798
      9          6           0       19.976845    2.836502   -3.076587
     10          6           0       20.171825    1.367026   -2.552575
     11          6           0       18.907616    2.862484   -4.248453
     12          6           0       20.692713    4.776425   -1.510081
     13          6           0       20.268592    6.181481   -1.750907
     14          1           0       19.019116    6.575320   -2.627771
     15          7           0       20.748674   -1.633813   -1.732400
     16          6           0       20.924351   -1.121480   -3.017565
     17          6           0       21.062708   -2.245795   -3.963012
     18          6           0       21.235016   -3.423766   -3.139173
     19          6           0       20.946509   -2.966984   -1.759829
     20          6           0       21.101991   -2.142026   -5.457637
     21          6           0       21.591475   -4.881700   -3.513615
     22          8           0       22.011005   -5.744320   -2.713507
     23          6           0       21.597761   -5.233371   -4.946920
     24          7           0       20.435773   -2.142981    1.228528
     25          6           0       20.551978   -3.400671    0.678561
     26          6           0       20.695614   -4.484677    1.782524
     27          6           0       20.816592   -3.571459    3.081866
     28          6           0       20.446674   -2.193347    2.561389
     29          6           0       19.572540   -5.595127    1.891507
     30          6           0       22.164037   -3.545280    3.785821
     31          6           0       22.186226   -4.144810    5.207489
     32          7           0       20.116408    0.603948    1.776313
     33          6           0       19.946412    0.195538    3.078020
     34          6           0       19.527859    1.331389    3.909843
     35          6           0       19.402311    2.375875    3.011143
     36          6           0       19.764660    1.895384    1.732969
     37          6           0       19.218587    1.366787    5.370119
     38          6           0       19.082312    3.757061    2.959856
     39          8           0       18.845847    4.607075    3.864888
     40          6           0       19.114667    4.102147    1.531347
     41          6           0       17.824834    4.764058    1.128100
     42          8           0       16.776202    4.223187    1.036103
     43          8           0       18.047365    6.041433    0.819456
     44          6           0       16.946068    6.936786    0.709950
     45          1           0       20.740823    0.472906   -4.371988
     46          1           0       21.020009   -4.807480   -0.629953
     47          1           0       19.900256   -1.393357    4.474694
     48          1           0       18.654053    4.095095   -1.792990
     49          1           0       20.925490    3.171733   -3.494785
     50          1           0       18.088960    3.569609   -4.117711
     51          1           0       18.429231    1.882019   -4.256277
     52          1           0       19.399574    3.014848   -5.209590
     53          1           0       21.580723    4.674991   -2.135073
     54          1           0       21.048400    4.802491   -0.480479
     55          1           0       21.055577    6.716278   -2.283509
     56          1           0       20.131856    6.647961   -0.775697
     57          1           0       20.341091   -2.794525   -5.885311
     58          1           0       22.084527   -2.502488   -5.762268
     59          1           0       21.104749   -1.102764   -5.787936
     60          1           0       20.579833   -5.113031   -5.317784
     61          1           0       21.825149   -6.298597   -4.980129
     62          1           0       22.394005   -4.725538   -5.490485
     63          1           0       21.663459   -4.953362    1.601606
     64          1           0       20.077586   -3.940627    3.792912
     65          1           0       18.815906   -5.439417    1.123340
     66          1           0       19.159278   -5.689538    2.896431
     67          1           0       20.059940   -6.558268    1.739335
     68          1           0       22.699827   -2.595963    3.780821
     69          1           0       22.827709   -4.189216    3.209732
     70          1           0       22.733076   -3.589907    5.969551
     71          1           0       22.815616   -5.033794    5.158503
     72          1           0       21.210291   -4.350866    5.644949
     73          1           0       19.623703    0.507672    5.905588
     74          1           0       18.148176    1.235573    5.527897
     75          1           0       19.494341    2.361909    5.718888
     76          1           0       19.941476    4.802248    1.414485
     77          1           0       16.611024    7.131235    1.729767
     78          1           0       16.095699    6.452397    0.229784
     79          1           0       17.253921    7.889372    0.277962
     80         12           0      -19.545012   -0.743704    0.326356
     81          6           0      -21.809383    1.909677    0.308518
     82          6           0      -17.276636    1.176975   -1.171087
     83          6           0      -18.037749   -3.604581   -0.782085
     84          6           0      -21.970248   -2.728639    1.847715
     85          7           0      -19.490985    1.387297   -0.210618
     86          6           0      -20.501642    2.241856   -0.108184
     87          6           0      -19.994008    3.680049   -0.487203
     88          6           0      -18.585497    3.387984   -1.057746
     89          6           0      -18.422092    1.887792   -0.832773
     90          6           0      -18.457726    3.631611   -2.642945
     91          6           0      -19.939445    4.722555    0.720080
     92          6           0      -20.417955    6.076274    0.320858
     93          1           0      -19.557852    7.294005    0.621848
     94          7           0      -17.872521   -1.137286   -0.798392
     95          6           0      -17.032814   -0.190181   -1.321920
     96          6           0      -15.796016   -0.851652   -1.760471
     97          6           0      -16.032591   -2.249670   -1.641748
     98          6           0      -17.394760   -2.366244   -1.095206
     99          6           0      -14.577221   -0.076295   -2.354944
    100          6           0      -15.110604   -3.432820   -2.064712
    101          8           0      -15.397826   -4.615595   -1.918432
    102          6           0      -13.791720   -3.108003   -2.657411
    103          7           0      -19.936232   -2.797226    0.465008
    104          6           0      -19.215433   -3.838928   -0.126627
    105          6           0      -19.995710   -5.169195    0.039138
    106          6           0      -20.835812   -4.923205    1.368253
    107          6           0      -20.893235   -3.377847    1.204898
    108          6           0      -20.803775   -5.561974   -1.216290
    109          6           0      -20.192755   -5.310988    2.669442
    110          6           0      -19.152601   -4.440229    3.309342
    111          7           0      -21.419386   -0.490022    1.155814
    112          6           0      -22.315037   -1.377598    1.705964
    113          6           0      -23.561979   -0.721692    2.106304
    114          6           0      -23.463584    0.599067    1.474796
    115          6           0      -22.130775    0.653169    0.908246
    116          6           0      -24.702618   -1.348414    2.727758
    117          6           0      -24.158792    1.849972    1.196883
    118          8           0      -25.258696    2.207749    1.396482
    119          6           0      -23.053723    2.789811    0.482980
    120          6           0      -23.537886    3.477730   -0.768384
    121          8           0      -23.418572    3.039640   -1.908785
    122          8           0      -24.049702    4.726714   -0.418050
    123          6           0      -24.553190    5.586807   -1.504256
    124          1           0      -16.362348    1.682601   -1.489831
    125          1           0      -17.511406   -4.473675   -1.183146
    126          1           0      -22.644566   -3.380721    2.406114
    127          1           0      -20.574468    4.120299   -1.298357
    128          1           0      -17.764001    3.968637   -0.638157
    129          1           0      -18.111360    4.656789   -2.775433
    130          1           0      -19.392848    3.578900   -3.199906
    131          1           0      -17.703507    2.943260   -3.026092
    132          1           0      -18.926537    4.840992    1.105265
    133          1           0      -20.496957    4.437906    1.612524
    134          1           0      -21.300472    6.216718    0.944390
    135          1           0      -20.740435    6.221118   -0.709842
    136          1           0      -14.752325   -0.034161   -3.429596
    137          1           0      -13.630667   -0.538720   -2.074087
    138          1           0      -14.592470    0.995758   -2.155686
    139          1           0      -13.670342   -2.294706   -3.372721
    140          1           0      -13.389438   -3.987918   -3.158814
    141          1           0      -13.042858   -3.075877   -1.865519
    142          1           0      -19.210669   -5.896323    0.244743
    143          1           0      -21.812836   -5.405025    1.335713
    144          1           0      -21.865569   -5.761195   -1.071230
    145          1           0      -20.316491   -6.319644   -1.830371
    146          1           0      -20.810551   -4.734132   -1.925108
    147          1           0      -19.705836   -6.285332    2.655165
    148          1           0      -20.986163   -5.417835    3.409304
    149          1           0      -19.744729   -3.855300    4.012921
    150          1           0      -18.654811   -3.728876    2.649978
    151          1           0      -18.424095   -5.068909    3.822359
    152          1           0      -25.116658   -0.601425    3.405260
    153          1           0      -24.327578   -2.189806    3.309901
    154          1           0      -25.441238   -1.618512    1.973692
    155          1           0      -22.795606    3.571835    1.197076
    156          1           0      -25.267317    4.991497   -2.073868
    157          1           0      -23.747809    5.865800   -2.183179
    158          1           0      -25.033983    6.534681   -1.261876
 ---------------------------------------------------------------------

 SCF Done:  E(RCAM-B3LYP) =  -4069.81498151     A.U. after   17 cycles

 Excitation energies and oscillator strengths:

 Excited State   1:      Singlet-A      1.6811 eV  737.52 nm  f=0.3785  <S**2>=0.000
     310 -> 316       -0.17703
     312 -> 314        0.68654
     310 <- 316       -0.10856
 This state for optimization and/or second-order correction.
 Total Energy, E(TD-HF/TD-DFT) =  -4069.75320255
 Copying the excited state density for this state as the 1-particle RhoCI density.

 Excited State   2:      Singlet-A      1.7200 eV  720.86 nm  f=0.4223  <S**2>=0.000
     309 -> 315        0.17639
     311 -> 313        0.68704
     309 <- 315        0.10599

 Excited State   3:      Singlet-A      2.2103 eV  560.94 nm  f=0.1284  <S**2>=0.000
     309 -> 313        0.65015
     311 -> 315       -0.26633

 Excited State   4:      Singlet-A      2.2559 eV  549.59 nm  f=0.1054  <S**2>=0.000
     310 -> 314        0.63272
     312 -> 316        0.30598

 Excited State   5:      Singlet-A      2.9777 eV  416.37 nm  f=0.0000  <S**2>=0.000
     312 -> 313        0.70710

 The electronic state is 1-A.
 Alpha  occ. eigenvalues --  -46.88939 -46.87909 -19.25032 -19.25011 -19.20091
 Alpha  occ. eigenvalues --  -19.19684 -19.19677 -19.19171 -19.19054 -19.18574
 Alpha  occ. eigenvalues --  -14.42183 -14.42084 -14.41647 -14.41413 -14.39723
 Alpha  occ. eigenvalues --  -14.39586 -14.39274 -14.39215 -10.39683 -10.39078
 Alpha  occ. eigenvalues --  -10.35636 -10.35512 -10.34986 -10.34737 -10.31791
 Alpha  occ. eigenvalues --  -10.31728 -10.31538 -10.31323 -10.31055 -10.30984
 Alpha  occ. eigenvalues --  -10.30581 -10.30576 -10.30576 -10.30186 -10.29992
 Alpha  occ. eigenvalues --  -10.29875 -10.29739 -10.29727 -10.29577 -10.29465
 Alpha  occ. eigenvalues --  -10.29377 -10.29325 -10.28785 -10.28778 -10.28770
 Alpha  occ. eigenvalues --  -10.28654 -10.28412 -10.28397 -10.28370 -10.28294
 Alpha  occ. eigenvalues --  -10.28288 -10.28281 -10.28226 -10.28208 -10.28126
 Alpha  occ. eigenvalues --  -10.27899 -10.27657 -10.27593 -10.27550 -10.27541
 Alpha  occ. eigenvalues --  -10.27526 -10.27214 -10.27082 -10.27069 -10.27023
 Alpha  occ. eigenvalues --  -10.26880 -10.26794 -10.26759 -10.26694 -10.26499
 Alpha  occ. eigenvalues --  -10.26232 -10.26111 -10.26076 -10.26043 -10.25945
 Alpha  occ. eigenvalues --  -10.25921 -10.25921 -10.25799 -10.25606 -10.25558
 Alpha  occ. eigenvalues --  -10.25530 -10.25473 -10.25365 -10.25220 -10.25210
 Alpha  occ. eigenvalues --  -10.24538  -3.17516  -3.16612  -1.92399  -1.91986
 Alpha  occ. eigenvalues --   -1.91815  -1.91516  -1.91043  -1.90939  -1.18651
 Alpha  occ. eigenvalues --   -1.15146  -1.12936  -1.10148  -1.09740  -1.08334
 Alpha  occ. eigenvalues --   -1.08112  -1.07443  -1.05170  -1.04859  -1.03798
 Alpha  occ. eigenvalues --   -1.03569  -1.02859  -1.02559  -1.02127  -1.01813
 Alpha  occ. eigenvalues --   -0.93600  -0.91860  -0.89156  -0.89022  -0.88622
 Alpha  occ. eigenvalues --   -0.88573  -0.88398  -0.88010  -0.87768  -0.87173
 Alpha  occ. eigenvalues --   -0.86910  -0.86888  -0.86315  -0.86295  -0.84584
 Alpha  occ. eigenvalues --   -0.84168  -0.83586  -0.83555  -0.82652  -0.82531
 Alpha  occ. eigenvalues --   -0.82088  -0.81854  -0.81745  -0.80989  -0.80536
 Alpha  occ. eigenvalues --   -0.80354  -0.78330  -0.78234  -0.77740  -0.77261
 Alpha  occ. eigenvalues --   -0.77187  -0.76723  -0.76387  -0.75839  -0.75229
 Alpha  occ. eigenvalues --   -0.74854  -0.73204  -0.72236  -0.71521  -0.71458
 Alpha  occ. eigenvalues --   -0.69429  -0.69217  -0.69002  -0.68486  -0.67741
 Alpha  occ. eigenvalues --   -0.67522  -0.66747  -0.66280  -0.65949  -0.65697
 Alpha  occ. eigenvalues --   -0.64947  -0.64878  -0.64605  -0.64503  -0.64228
 Alpha  occ. eigenvalues --   -0.64087  -0.63062  -0.61793  -0.60363  -0.60137
 Alpha  occ. eigenvalues --   -0.59891  -0.59583  -0.59365  -0.59169  -0.58865
 Alpha  occ. eigenvalues --   -0.58240  -0.58092  -0.57785  -0.57756  -0.57222
 Alpha  occ. eigenvalues --   -0.56524  -0.56138  -0.55796  -0.55515  -0.55338
 Alpha  occ. eigenvalues --   -0.55209  -0.54943  -0.54827  -0.54089  -0.53782
 Alpha  occ. eigenvalues --   -0.53558  -0.53459  -0.53368  -0.53280  -0.53046
 Alpha  occ. eigenvalues --   -0.52955  -0.52824  -0.52501  -0.52435  -0.52157
 Alpha  occ. eigenvalues --   -0.51762  -0.51682  -0.51613  -0.51608  -0.51516
 Alpha  occ. eigenvalues --   -0.51372  -0.51228  -0.51144  -0.50395  -0.50165
 Alpha  occ. eigenvalues --   -0.50107  -0.50065  -0.50061  -0.49910  -0.49607
 Alpha  occ. eigenvalues --   -0.49514  -0.49283  -0.49138  -0.49118  -0.48783
 Alpha  occ. eigenvalues --   -0.48607  -0.48595  -0.48361  -0.48306  -0.48265
 Alpha  occ. eigenvalues --   -0.47980  -0.47790  -0.47736  -0.47443  -0.46952
 Alpha  occ. eigenvalues --   -0.46940  -0.46806  -0.46783  -0.46583  -0.46268
 Alpha  occ. eigenvalues --   -0.46242  -0.46142  -0.46086  -0.46080  -0.45835
 Alpha  occ. eigenvalues --   -0.45738  -0.45495  -0.45310  -0.45187  -0.44940
 Alpha  occ. eigenvalues --   -0.44815  -0.44624  -0.44569  -0.44478  -0.44379
 Alpha  occ. eigenvalues --   -0.44155  -0.43719  -0.43671  -0.43469  -0.43315
 Alpha  occ. eigenvalues --   -0.43240  -0.43061  -0.42791  -0.42713  -0.42653
 Alpha  occ. eigenvalues --   -0.42638  -0.42182  -0.41889  -0.41872  -0.41654
 Alpha  occ. eigenvalues --   -0.41565  -0.41519  -0.41461  -0.41354  -0.41199
 Alpha  occ. eigenvalues --   -0.41176  -0.40994  -0.40488  -0.40296  -0.40224
 Alpha  occ. eigenvalues --   -0.40111  -0.39711  -0.39152  -0.39121  -0.38653
 Alpha  occ. eigenvalues --   -0.38212  -0.38057  -0.37938  -0.37668  -0.36977
 Alpha  occ. eigenvalues --   -0.36968  -0.36579  -0.36560  -0.36521  -0.36293
 Alpha  occ. eigenvalues --   -0.35901  -0.35877  -0.34710  -0.34453  -0.34274
 Alpha  occ. eigenvalues --   -0.34154  -0.32934  -0.32797  -0.31626  -0.31469
 Alpha  occ. eigenvalues --   -0.31397  -0.31211  -0.31004  -0.30788  -0.30627
 Alpha  occ. eigenvalues --   -0.30014  -0.29546  -0.29510  -0.24142  -0.23974
 Alpha  occ. eigenvalues --   -0.21334  -0.20769
 Alpha virt. eigenvalues --   -0.08965  -0.08454  -0.01500  -0.01371  -0.00218
 Alpha virt. eigenvalues --    0.00412   0.01902   0.02336   0.02429   0.02802
 Alpha virt. eigenvalues --    0.04573   0.05243   0.05591   0.06073   0.06088

 Mulliken charges:
               1
     1  Mg   0.831069
     2  C   -0.003466
     3  C   -0.022637
     4  C   -0.061390
     5  C   -0.094153
     6  N   -0.252764
     7  C   -0.054209
     8  C    0.021050
     9  C   -0.061025
    10  C    0.018211
    11  C    0.057382
    12  C    0.048948
    13  C   -0.081504
    14  H    0.000595
    15  N   -0.364197
    16  C    0.090972
    17  C   -0.170507
    18  C   -0.041463
    19  C    0.129272
    20  C    0.140602
    21  C    0.009640
    22  O   -0.229716
    23  C    0.054888
    24  N   -0.351647
    25  C    0.076908
    26  C   -0.074943
    27  C   -0.035808
    28  C    0.084594
    29  C    0.075264
    30  C    0.058335
    31  C   -0.010540
    32  N   -0.321547
    33  C    0.100462
    34  C   -0.161317
    35  C   -0.007621
    36  C    0.104557
    37  C    0.130294
    38  C    0.044978
    39  O   -0.216267
    40  C    0.039324
    41  C    0.154786
    42  O   -0.173667
    43  O   -0.300059
    44  C    0.179718
    45  H   -0.038454
    46  H   -0.005578
    47  H   -0.029186
    48  H    0.021566
    49  H    0.016327
    50  H    0.019291
    51  H    0.019350
    52  H    0.018332
    53  H    0.008927
    54  H    0.007785
    55  H    0.022229
    56  H    0.037178
    57  H    0.036384
    58  H    0.019960
    59  H    0.011630
    60  H    0.032296
    61  H    0.020499
    62  H    0.045045
    63  H    0.021404
    64  H    0.000778
    65  H    0.029687
    66  H    0.014097
    67  H    0.016477
    68  H    0.016415
    69  H   -0.002360
    70  H    0.007291
    71  H    0.010597
    72  H    0.017250
    73  H    0.008827
    74  H    0.034133
    75  H    0.049479
    76  H    0.040263
    77  H    0.029047
    78  H    0.038711
    79  H    0.042921
    80  Mg   0.845357
    81  C    0.027390
    82  C   -0.076841
    83  C   -0.074864
    84  C   -0.103112
    85  N   -0.243957
    86  C   -0.032132
    87  C    0.000712
    88  C   -0.076728
    89  C    0.082379
    90  C    0.038842
    91  C    0.070143
    92  C   -0.093375
    93  H    0.009706
    94  N   -0.370817
    95  C    0.094386
    96  C   -0.139751
    97  C   -0.061982
    98  C    0.101672
    99  C    0.093655
   100  C    0.039040
   101  O   -0.200709
   102  C    0.041858
   103  N   -0.293934
   104  C    0.034438
   105  C    0.001869
   106  C   -0.010257
   107  C    0.025369
   108  C    0.092693
   109  C    0.017544
   110  C    0.022129
   111  N   -0.363044
   112  C    0.153948
   113  C   -0.162541
   114  C   -0.040002
   115  C    0.088735
   116  C    0.123002
   117  C    0.056380
   118  O   -0.102396
   119  C   -0.071455
   120  C    0.218757
   121  O   -0.220145
   122  O   -0.352119
   123  C    0.187117
   124  H   -0.036712
   125  H   -0.006451
   126  H   -0.034627
   127  H    0.020327
   128  H    0.017651
   129  H    0.008623
   130  H    0.029579
   131  H    0.017110
   132  H    0.013847
   133  H    0.012996
   134  H    0.031502
   135  H    0.030107
   136  H    0.034915
   137  H    0.042292
   138  H    0.009192
   139  H    0.038125
   140  H    0.012072
   141  H    0.038826
   142  H   -0.003737
   143  H   -0.004003
   144  H    0.017227
   145  H    0.021800
   146  H    0.010543
   147  H    0.001287
   148  H   -0.002074
   149  H    0.005378
   150  H    0.031877
   151  H    0.016207
   152  H    0.033341
   153  H    0.015304
   154  H    0.051192
   155  H    0.046723
   156  H    0.036660
   157  H    0.023054
   158  H    0.042888
 Sum of Mulliken charges =  -0.00000

 Dipole moment (field-independent basis, Debye):
    X=              5.0759    Y=              1.7565    Z=             -1.4085  Tot=              5.5529
 Quadrupole moment (field-independent basis, Debye-Ang):
   XX=           -565.8899   YY=           -504.1048   ZZ=           -490.3897
   XY=              5.6007   XZ=            -53.1594   YZ=            -42.0967

 Normal termination of Gaussian 16 at Thu Sep  2 16:35:17 2021.
