 Gaussian 16, Revision A.03,
 Gaussian 16:  ES64L-G16RevA.03 25-Dec-2016

 -----------------------------------
 #p cam-b3lyp/Def2SVP td=(nstates=5)
 -----------------------------------

 --------------------------------
 TDDFT excited states in gaussian
 --------------------------------
 Symbolic Z-matrix:
 Charge =  0 Multiplicity = 1

                         Standard orientation:
 ---------------------------------------------------------------------
 Center     Atomic      Atomic             Coordinates (Angstroms)
 Number     Number       Type             X           Y           Z
 ---------------------------------------------------------------------
      1         12           0       -9.600650   -0.963542    0.465948
      2          6           0       -9.494340    2.595543    0.048118
      3          6           0       -7.953025   -0.539424    3.465446
      4          6           0       -9.162072   -4.200974    0.509381
      5          6           0      -11.054761   -1.124420   -2.675726
      6          7           0       -8.541611    0.866143    1.522347
      7          6           0       -8.780223    2.168248    1.174923
      8          6           0       -8.347395    3.101651    2.337170
      9          6           0       -7.787322    2.098440    3.430421
     10          6           0       -8.070175    0.685311    2.801911
     11          6           0       -6.258349    2.221177    3.835849
     12          6           0       -9.471592    4.002771    2.914209
     13          6           0       -9.150400    5.431346    3.175103
     14          1           0       -7.679673    5.980842    3.317249
     15          7           0       -8.655707   -2.264455    1.818800
     16          6           0       -8.143969   -1.940544    3.075065
     17          6           0       -7.602127   -3.163578    3.697714
     18          6           0       -8.066768   -4.256506    2.869683
     19          6           0       -8.649690   -3.604684    1.673938
     20          6           0       -6.814538   -3.230841    4.971054
     21          6           0       -7.983760   -5.788228    3.069129
     22          8           0       -8.674919   -6.628659    2.455723
     23          6           0       -7.150703   -6.284808    4.181557
     24          7           0       -9.987579   -2.377345   -0.890005
     25          6           0       -9.632263   -3.683101   -0.632117
     26          6           0      -10.240042   -4.648724   -1.686921
     27          6           0      -11.167918   -3.647095   -2.507092
     28          6           0      -10.732576   -2.285940   -1.992637
     29          6           0       -9.248776   -5.482480   -2.597146
     30          6           0      -12.671384   -3.827195   -2.369266
     31          6           0      -13.411855   -4.262513   -3.651167
     32          7           0      -10.346023    0.418302   -0.949602
     33          6           0      -10.883609    0.196007   -2.195284
     34          6           0      -11.133000    1.476505   -2.870117
     35          6           0      -10.649796    2.421905   -1.982927
     36          6           0      -10.181207    1.742469   -0.836328
     37          6           0      -11.695356    1.731665   -4.229514
     38          6           0      -10.517016    3.825854   -1.828007
     39          8           0      -10.924055    4.798352   -2.525210
     40          6           0       -9.788315    4.001712   -0.563556
     41          6           0       -8.578853    4.870914   -0.778246
     42          8           0       -7.602569    4.553852   -1.367291
     43          8           0       -8.737267    6.033306   -0.145618
     44          6           0       -7.873300    7.121587   -0.454989
     45          1           0       -7.422744   -0.497239    4.419281
     46          1           0       -9.127069   -5.288342    0.406320
     47          1           0      -11.440002   -1.189559   -3.694633
     48          1           0       -7.558299    3.735108    1.930314
     49          1           0       -8.373700    2.181831    4.344973
     50          1           0       -5.738972    3.093262    3.439577
     51          1           0       -5.747479    1.366895    3.389263
     52          1           0       -6.145732    2.163887    4.918927
     53          1           0       -9.842699    3.652162    3.877962
     54          1           0      -10.340290    4.064152    2.259328
     55          1           0       -9.563075    5.730203    4.139159
     56          1           0       -9.634385    6.017709    2.394544
     57          1           0       -5.875313   -3.752326    4.787923
     58          1           0       -7.411893   -3.818685    5.667987
     59          1           0       -6.752653   -2.256436    5.456725
     60          1           0       -6.120617   -5.995314    3.973437
     61          1           0       -7.196641   -7.371332    4.111765
     62          1           0       -7.561789   -6.015269    5.154038
     63          1           0      -10.881702   -5.325476   -1.121766
     64          1           0      -10.913109   -3.775838   -3.558995
     65          1           0       -8.216625   -5.255587   -2.332561
     66          1           0       -9.457187   -5.380570   -3.662862
     67          1           0       -9.454191   -6.536694   -2.410615
     68          1           0      -13.218763   -3.016532   -1.888117
     69          1           0      -12.822655   -4.653203   -1.675133
     70          1           0      -14.349835   -3.755500   -3.876628
     71          1           0      -13.800068   -5.263190   -3.459438
     72          1           0      -12.828620   -4.212575   -4.569656
     73          1           0      -12.227768    0.869325   -4.631796
     74          1           0      -10.887344    1.844125   -4.952259
     75          1           0      -12.230951    2.678923   -4.167976
     76          1           0      -10.484180    4.497459    0.112770
     77          1           0       -8.187621    7.489604   -1.432668
     78          1           0       -6.850604    6.776563   -0.607871
     79          1           0       -7.995863    7.937246    0.258092
     80         12           0        9.498652   -0.554238   -0.186874
     81          6           0        7.466905    2.213672   -0.307287
     82          6           0       12.006996    1.483609    1.301418
     83          6           0       11.791965   -3.020347   -0.484679
     84          6           0        7.259299   -2.382040   -1.888367
     85          7           0        9.703215    1.614667    0.421527
     86          6           0        8.710196    2.540123    0.243188
     87          6           0        9.098767    3.888424    0.853956
     88          6           0       10.644307    3.635529    1.172879
     89          6           0       10.809130    2.160013    0.954138
     90          6           0       11.628920    4.550756    0.356426
     91          6           0        8.261617    4.265729    2.160325
     92          6           0        7.711744    5.650657    2.403231
     93          1           0        8.609306    6.816704    2.185799
     94          7           0       11.619796   -0.792983    0.378571
     95          6           0       12.373002    0.057845    1.109641
     96          6           0       13.605550   -0.540669    1.499587
     97          6           0       13.562760   -1.886220    1.015539
     98          6           0       12.307912   -1.907808    0.206078
     99          6           0       14.608745    0.294985    2.227118
    100          6           0       14.638758   -2.956503    1.083761
    101          8           0       14.599329   -3.979109    0.392529
    102          6           0       15.830140   -2.785625    2.009848
    103          7           0        9.586242   -2.419581   -1.210988
    104          6           0       10.605650   -3.306563   -1.065763
    105          6           0       10.232446   -4.661078   -1.665796
    106          6           0        8.693476   -4.482863   -1.954907
    107          6           0        8.485565   -3.009784   -1.663410
    108          6           0       11.047120   -5.275689   -2.842127
    109          6           0        7.705967   -5.461639   -1.192520
    110          6           0        7.092022   -5.054446    0.130208
    111          7           0        7.783469   -0.180069   -1.035812
    112          6           0        6.856365   -1.023358   -1.593682
    113          6           0        5.679393   -0.361203   -2.024396
    114          6           0        5.844474    0.915516   -1.496565
    115          6           0        7.124984    0.966300   -0.888037
    116          6           0        4.426727   -0.829141   -2.753644
    117          6           0        5.281842    2.187173   -1.360672
    118          8           0        4.224783    2.594073   -1.806552
    119          6           0        6.320010    3.170836   -0.577507
    120          6           0        6.642924    4.278959   -1.467809
    121          8           0        7.256137    4.193098   -2.550206
    122          8           0        6.160411    5.475400   -1.039367
    123          6           0        6.132703    6.604642   -1.975743
    124          1           0       12.661557    2.181024    1.827608
    125          1           0       12.398297   -3.917453   -0.344666
    126          1           0        6.393880   -3.013252   -2.097198
    127          1           0        8.873353    4.671302    0.128682
    128          1           0       10.882642    3.884666    2.207052
    129          1           0       12.212352    5.128613    1.072397
    130          1           0       10.982758    5.114585   -0.316606
    131          1           0       12.410428    4.022942   -0.191004
    132          1           0        8.980829    4.029134    2.944650
    133          1           0        7.504582    3.510835    2.370133
    134          1           0        7.233597    5.695046    3.381727
    135          1           0        6.954220    5.798273    1.634359
    136          1           0       14.957094   -0.337764    3.042625
    137          1           0       14.130377    1.157875    2.691126
    138          1           0       15.455889    0.652623    1.640853
    139          1           0       15.574220   -2.394792    2.995104
    140          1           0       16.641729   -2.290583    1.474835
    141          1           0       16.170708   -3.805247    2.192609
    142          1           0       10.463375   -5.356534   -0.858595
    143          1           0        8.421938   -4.753379   -2.974603
    144          1           0       10.458891   -5.256015   -3.759457
    145          1           0       11.238882   -6.313138   -2.568725
    146          1           0       11.957244   -4.680928   -2.911604
    147          1           0        8.257863   -6.385774   -1.026275
    148          1           0        6.854393   -5.695935   -1.831690
    149          1           0        7.247935   -5.810780    0.899823
    150          1           0        6.022567   -4.848190    0.070257
    151          1           0        7.605630   -4.132019    0.401261
    152          1           0        4.497378   -1.903337   -2.928806
    153          1           0        4.333017   -0.280492   -3.691162
    154          1           0        3.561584   -0.609397   -2.128703
    155          1           0        5.672812    3.530940    0.222744
    156          1           0        5.395881    7.368970   -1.728383
    157          1           0        6.091781    6.339099   -3.031685
    158          1           0        7.056259    7.149803   -1.780337
 ---------------------------------------------------------------------

 SCF Done:  E(RCAM-B3LYP) =  -4069.83014467     A.U. after   19 cycles

 Excitation energies and oscillator strengths:

 Excited State   1:      Singlet-A      1.7194 eV  721.09 nm  f=0.6674  <S**2>=0.000
     310 -> 316        0.15299
     311 -> 313        0.59007
     312 -> 314        0.35129
 This state for optimization and/or second-order correction.
 Total Energy, E(TD-HF/TD-DFT) =  -4069.76695792
 Copying the excited state density for this state as the 1-particle RhoCI density.

 Excited State   2:      Singlet-A      1.7209 eV  720.48 nm  f=0.1723  <S**2>=0.000
     309 -> 315       -0.15160
     311 -> 313       -0.35097
     312 -> 314        0.59044

 Excited State   3:      Singlet-A      2.1906 eV  565.98 nm  f=0.1484  <S**2>=0.000
     310 -> 313        0.66001
     311 -> 316       -0.23661

 Excited State   4:      Singlet-A      2.2103 eV  560.93 nm  f=0.1492  <S**2>=0.000
     309 -> 314        0.64777
     312 -> 315        0.26529

 Excited State   5:      Singlet-A      2.8224 eV  439.29 nm  f=0.0000  <S**2>=0.000
     312 -> 313        0.70697

 The electronic state is 1-A.
 Alpha  occ. eigenvalues --  -46.89084 -46.88851 -19.25044 -19.24903 -19.19549
 Alpha  occ. eigenvalues --  -19.18958 -19.18854 -19.18559 -19.18512 -19.18497
 Alpha  occ. eigenvalues --  -14.42112 -14.41992 -14.41561 -14.41520 -14.39634
 Alpha  occ. eigenvalues --  -14.39556 -14.39502 -14.39475 -10.38948 -10.38909
 Alpha  occ. eigenvalues --  -10.35344 -10.34925 -10.34639 -10.34487 -10.31639
 Alpha  occ. eigenvalues --  -10.31588 -10.31399 -10.31054 -10.30975 -10.30891
 Alpha  occ. eigenvalues --  -10.30851 -10.30493 -10.30406 -10.30102 -10.30097
 Alpha  occ. eigenvalues --  -10.30047 -10.30024 -10.29858 -10.29641 -10.29491
 Alpha  occ. eigenvalues --  -10.29236 -10.28985 -10.28698 -10.28696 -10.28575
 Alpha  occ. eigenvalues --  -10.28440 -10.28333 -10.28318 -10.28304 -10.28243
 Alpha  occ. eigenvalues --  -10.28197 -10.28122 -10.28027 -10.27984 -10.27977
 Alpha  occ. eigenvalues --  -10.27951 -10.27659 -10.27504 -10.27478 -10.27466
 Alpha  occ. eigenvalues --  -10.27434 -10.27293 -10.27138 -10.27002 -10.26962
 Alpha  occ. eigenvalues --  -10.26897 -10.26859 -10.26703 -10.26673 -10.26583
 Alpha  occ. eigenvalues --  -10.26406 -10.26361 -10.26212 -10.26166 -10.26163
 Alpha  occ. eigenvalues --  -10.26049 -10.25848 -10.25837 -10.25690 -10.25562
 Alpha  occ. eigenvalues --  -10.25407 -10.25184 -10.25130 -10.25127 -10.25025
 Alpha  occ. eigenvalues --  -10.24592  -3.17693  -3.17428  -1.92576  -1.92311
 Alpha  occ. eigenvalues --   -1.92109  -1.92042  -1.91898  -1.91728  -1.18520
 Alpha  occ. eigenvalues --   -1.15827  -1.09850  -1.09608  -1.09440  -1.08273
 Alpha  occ. eigenvalues --   -1.08014  -1.05821  -1.05350  -1.04772  -1.04617
 Alpha  occ. eigenvalues --   -1.04132  -1.03713  -1.03458  -1.02469  -1.01725
 Alpha  occ. eigenvalues --   -0.93504  -0.92587  -0.89075  -0.88999  -0.88479
 Alpha  occ. eigenvalues --   -0.88320  -0.88239  -0.88184  -0.87754  -0.87678
 Alpha  occ. eigenvalues --   -0.87396  -0.86833  -0.86398  -0.86229  -0.84486
 Alpha  occ. eigenvalues --   -0.84263  -0.83743  -0.83467  -0.82665  -0.82564
 Alpha  occ. eigenvalues --   -0.82019  -0.81826  -0.81654  -0.81141  -0.80451
 Alpha  occ. eigenvalues --   -0.80300  -0.78364  -0.78248  -0.77648  -0.77454
 Alpha  occ. eigenvalues --   -0.77100  -0.77076  -0.76297  -0.76229  -0.75472
 Alpha  occ. eigenvalues --   -0.75142  -0.73514  -0.73115  -0.71524  -0.71431
 Alpha  occ. eigenvalues --   -0.69614  -0.69347  -0.69192  -0.68919  -0.68113
 Alpha  occ. eigenvalues --   -0.67430  -0.67113  -0.66201  -0.65870  -0.65617
 Alpha  occ. eigenvalues --   -0.65100  -0.64850  -0.64790  -0.64748  -0.64407
 Alpha  occ. eigenvalues --   -0.64187  -0.62951  -0.62215  -0.60266  -0.60159
 Alpha  occ. eigenvalues --   -0.59808  -0.59806  -0.59280  -0.59066  -0.59044
 Alpha  occ. eigenvalues --   -0.58269  -0.58155  -0.57889  -0.57699  -0.57271
 Alpha  occ. eigenvalues --   -0.56414  -0.56221  -0.56054  -0.55378  -0.55087
 Alpha  occ. eigenvalues --   -0.54961  -0.54864  -0.54857  -0.54045  -0.53699
 Alpha  occ. eigenvalues --   -0.53365  -0.53283  -0.53178  -0.53107  -0.52972
 Alpha  occ. eigenvalues --   -0.52773  -0.52756  -0.52576  -0.52342  -0.52207
 Alpha  occ. eigenvalues --   -0.52061  -0.51582  -0.51533  -0.51422  -0.51404
 Alpha  occ. eigenvalues --   -0.51066  -0.50730  -0.50550  -0.50260  -0.50032
 Alpha  occ. eigenvalues --   -0.49971  -0.49833  -0.49820  -0.49518  -0.49211
 Alpha  occ. eigenvalues --   -0.49193  -0.49072  -0.49027  -0.48770  -0.48740
 Alpha  occ. eigenvalues --   -0.48690  -0.48533  -0.48527  -0.48281  -0.48195
 Alpha  occ. eigenvalues --   -0.48183  -0.47800  -0.47657  -0.47528  -0.47365
 Alpha  occ. eigenvalues --   -0.47109  -0.46848  -0.46831  -0.46726  -0.46500
 Alpha  occ. eigenvalues --   -0.46147  -0.46136  -0.46053  -0.45990  -0.45937
 Alpha  occ. eigenvalues --   -0.45864  -0.45730  -0.45290  -0.45229  -0.44970
 Alpha  occ. eigenvalues --   -0.44721  -0.44478  -0.44457  -0.44383  -0.43915
 Alpha  occ. eigenvalues --   -0.43906  -0.43607  -0.43581  -0.43394  -0.43352
 Alpha  occ. eigenvalues --   -0.43190  -0.42981  -0.42937  -0.42647  -0.42541
 Alpha  occ. eigenvalues --   -0.42207  -0.42081  -0.41864  -0.41807  -0.41773
 Alpha  occ. eigenvalues --   -0.41582  -0.41498  -0.41373  -0.41295  -0.41126
 Alpha  occ. eigenvalues --   -0.41095  -0.40909  -0.40603  -0.40217  -0.40025
 Alpha  occ. eigenvalues --   -0.39971  -0.39818  -0.39631  -0.39511  -0.39058
 Alpha  occ. eigenvalues --   -0.38494  -0.38211  -0.38134  -0.37854  -0.37330
 Alpha  occ. eigenvalues --   -0.36881  -0.36592  -0.36437  -0.36195  -0.36010
 Alpha  occ. eigenvalues --   -0.35794  -0.35637  -0.34582  -0.34534  -0.34063
 Alpha  occ. eigenvalues --   -0.33408  -0.32858  -0.32845  -0.31530  -0.31379
 Alpha  occ. eigenvalues --   -0.31315  -0.31201  -0.30858  -0.30724  -0.30539
 Alpha  occ. eigenvalues --   -0.30382  -0.30071  -0.29431  -0.24054  -0.23812
 Alpha  occ. eigenvalues --   -0.21443  -0.21248
 Alpha virt. eigenvalues --   -0.09061  -0.08876  -0.01412  -0.01171  -0.00131
 Alpha virt. eigenvalues --    0.00250   0.01857   0.01981   0.02414   0.02501
 Alpha virt. eigenvalues --    0.04791   0.05343   0.06171   0.06182   0.06371

 Mulliken charges:
               1
     1  Mg   0.831195
     2  C   -0.003325
     3  C   -0.022679
     4  C   -0.061496
     5  C   -0.094179
     6  N   -0.252732
     7  C   -0.053800
     8  C    0.020984
     9  C   -0.061107
    10  C    0.018382
    11  C    0.057343
    12  C    0.048975
    13  C   -0.081531
    14  H    0.000901
    15  N   -0.364094
    16  C    0.090892
    17  C   -0.170572
    18  C   -0.041647
    19  C    0.129283
    20  C    0.140685
    21  C    0.009515
    22  O   -0.229919
    23  C    0.055009
    24  N   -0.351659
    25  C    0.077010
    26  C   -0.074957
    27  C   -0.035857
    28  C    0.084734
    29  C    0.075324
    30  C    0.058404
    31  C   -0.010505
    32  N   -0.321594
    33  C    0.100589
    34  C   -0.161249
    35  C   -0.007436
    36  C    0.104541
    37  C    0.130283
    38  C    0.045142
    39  O   -0.216128
    40  C    0.039226
    41  C    0.154783
    42  O   -0.172976
    43  O   -0.300261
    44  C    0.179525
    45  H   -0.038632
    46  H   -0.005801
    47  H   -0.029159
    48  H    0.022089
    49  H    0.016066
    50  H    0.019819
    51  H    0.019657
    52  H    0.017909
    53  H    0.008699
    54  H    0.007688
    55  H    0.021952
    56  H    0.037202
    57  H    0.036110
    58  H    0.019678
    59  H    0.011549
    60  H    0.032108
    61  H    0.020190
    62  H    0.044911
    63  H    0.021234
    64  H    0.000859
    65  H    0.029746
    66  H    0.014111
    67  H    0.016229
    68  H    0.016376
    69  H   -0.002491
    70  H    0.007231
    71  H    0.010447
    72  H    0.017320
    73  H    0.008710
    74  H    0.034484
    75  H    0.049434
    76  H    0.040120
    77  H    0.029064
    78  H    0.039439
    79  H    0.042632
    80  Mg   0.838377
    81  C    0.011560
    82  C   -0.053613
    83  C   -0.054103
    84  C   -0.074605
    85  N   -0.258991
    86  C   -0.044646
    87  C   -0.039910
    88  C   -0.067735
    89  C    0.025000
    90  C    0.071367
    91  C    0.050866
    92  C   -0.046892
    93  H    0.016611
    94  N   -0.276093
    95  C    0.108725
    96  C   -0.140254
    97  C   -0.038965
    98  C    0.073719
    99  C    0.126668
   100  C   -0.001580
   101  O   -0.216532
   102  C    0.046205
   103  N   -0.278450
   104  C    0.028170
   105  C   -0.031807
   106  C    0.005472
   107  C    0.043823
   108  C    0.083018
   109  C   -0.011487
   110  C    0.012515
   111  N   -0.385133
   112  C    0.091321
   113  C   -0.180209
   114  C    0.092866
   115  C    0.102445
   116  C    0.138738
   117  C   -0.042502
   118  O   -0.170946
   119  C    0.015987
   120  C    0.193167
   121  O   -0.252850
   122  O   -0.327483
   123  C    0.186399
   124  H   -0.035571
   125  H   -0.008417
   126  H   -0.023848
   127  H    0.024653
   128  H    0.017952
   129  H    0.009927
   130  H    0.028643
   131  H    0.019057
   132  H   -0.011702
   133  H    0.007711
   134  H    0.031986
   135  H    0.033472
   136  H    0.009033
   137  H    0.014583
   138  H    0.039546
   139  H    0.033123
   140  H    0.047601
   141  H    0.024754
   142  H    0.009724
   143  H    0.010017
   144  H    0.015216
   145  H    0.018471
   146  H    0.029833
   147  H    0.004360
   148  H    0.004937
   149  H    0.014647
   150  H    0.015441
   151  H    0.016018
   152  H    0.004416
   153  H    0.044203
   154  H    0.038990
   155  H    0.030491
   156  H    0.035102
   157  H    0.058486
   158  H    0.018914
 Sum of Mulliken charges =  -0.00000

 Dipole moment (field-independent basis, Debye):
    X=              0.8792    Y=             -0.2320    Z=              6.8641  Tot=              6.9241
 Quadrupole moment (field-independent basis, Debye-Ang):
   XX=           -481.2613   YY=           -507.0031   ZZ=           -492.8291
   XY=             31.0249   XZ=             30.1541   YZ=             33.5557

 Normal termination of Gaussian 16 at Thu Sep  2 19:39:24 2021.
