 Gaussian 16, Revision A.03,
 Gaussian 16:  ES64L-G16RevA.03 25-Dec-2016

 ----------------------------------------------------------
 #p cam-b3lyp/Def2SVP td=(nstates=5) density=(transition=1)
 ----------------------------------------------------------

 --------------------------------
 TDDFT excited states in gaussian
 --------------------------------
 Symbolic Z-matrix:
 Charge =  0 Multiplicity = 1

                         Standard orientation:
 ---------------------------------------------------------------------
 Center     Atomic      Atomic             Coordinates (Angstroms)
 Number     Number       Type             X           Y           Z
 ---------------------------------------------------------------------
      1         12           0        9.300230   -0.406699   -0.096320
      2          6           0        7.523356    2.493105   -1.259246
      3          6           0       11.635618    1.862130    1.306984
      4          6           0       11.254583   -3.080362    1.011986
      5          6           0        7.260002   -2.440243   -1.788204
      6          7           0        9.612571    1.991689   -0.199116
      7          6           0        8.701313    2.895860   -0.617911
      8          6           0        9.261931    4.350459   -0.422892
      9          6           0       10.665968    4.033063    0.205269
     10          6           0       10.635095    2.525505    0.546226
     11          6           0       11.848644    4.440421   -0.741254
     12          6           0        8.390632    5.220151    0.483057
     13          6           0        8.149308    6.619822    0.021228
     14          1           0        7.201762    7.513460    0.834533
     15          7           0       11.027087   -0.619987    1.151327
     16          6           0       11.820104    0.432402    1.596563
     17          6           0       12.889273   -0.120562    2.404088
     18          6           0       12.763273   -1.499593    2.431802
     19          6           0       11.681941   -1.807008    1.436008
     20          6           0       14.026980    0.674446    2.977406
     21          6           0       13.647351   -2.613845    3.127688
     22          8           0       13.478364   -3.808471    3.107070
     23          6           0       14.747366   -2.178488    4.071445
     24          7           0        9.383422   -2.399716   -0.444212
     25          6           0       10.226387   -3.345599    0.078382
     26          6           0       10.021860   -4.733944   -0.571633
     27          6           0        8.602575   -4.583649   -1.267631
     28          6           0        8.385593   -3.028598   -1.128378
     29          6           0       11.195071   -5.144345   -1.518049
     30          6           0        7.463674   -5.414295   -0.601629
     31          6           0        7.045617   -4.962985    0.795997
     32          7           0        7.755875   -0.125815   -1.293405
     33          6           0        6.911137   -1.090245   -1.910321
     34          6           0        5.849685   -0.432575   -2.669276
     35          6           0        6.028591    0.934884   -2.393321
     36          6           0        7.167213    1.088850   -1.558841
     37          6           0        4.818403   -1.096481   -3.457754
     38          6           0        5.449491    2.239984   -2.695075
     39          8           0        4.440895    2.514669   -3.323378
     40          6           0        6.450336    3.337326   -2.041849
     41          6           0        5.444326    4.136548   -1.210056
     42          8           0        4.866607    3.798174   -0.161309
     43          8           0        5.204245    5.283747   -1.820868
     44          6           0        4.467387    6.382876   -1.074625
     45          1           0       12.306482    2.570218    1.797289
     46          1           0       11.805777   -3.976870    1.306375
     47          1           0        6.589969   -3.165074   -2.254614
     48          1           0        9.219448    4.787475   -1.419979
     49          1           0       10.803629    4.540595    1.160969
     50          1           0       12.591797    5.113982   -0.314479
     51          1           0       11.533349    4.754621   -1.736405
     52          1           0       12.555512    3.649704   -0.993662
     53          1           0        9.097458    5.462960    1.276691
     54          1           0        7.518319    4.695074    0.873805
     55          1           0        7.853487    6.809401   -1.011864
     56          1           0        9.132744    7.079722    0.119043
     57          1           0       13.858517    1.745395    2.867269
     58          1           0       15.007048    0.457078    2.549923
     59          1           0       14.186778    0.562464    4.049924
     60          1           0       14.368069   -1.595698    4.910773
     61          1           0       15.407238   -1.634105    3.395858
     62          1           0       15.260852   -3.112594    4.299287
     63          1           0       10.094103   -5.423604    0.270086
     64          1           0        8.571686   -4.618954   -2.356846
     65          1           0       11.783814   -5.972179   -1.122948
     66          1           0       11.869522   -4.364517   -1.869985
     67          1           0       10.642937   -5.447187   -2.407916
     68          1           0        7.684983   -6.467508   -0.775014
     69          1           0        6.567230   -5.273660   -1.205302
     70          1           0        7.652480   -4.177132    1.244249
     71          1           0        7.150995   -5.844023    1.428571
     72          1           0        6.070809   -4.481844    0.866923
     73          1           0        4.118305   -0.427407   -3.958465
     74          1           0        4.290230   -1.734181   -2.749011
     75          1           0        5.322400   -1.741726   -4.178700
     76          1           0        6.816892    4.053314   -2.777420
     77          1           0        4.670252    7.300075   -1.627959
     78          1           0        4.861979    6.554114   -0.073549
     79          1           0        3.401845    6.185801   -0.951207
     80         12           0       -8.589986   -0.941991    0.258454
     81          6           0      -11.010422    1.533244    0.587265
     82          6           0       -6.164636    1.473098    0.425466
     83          6           0       -6.287465   -3.370071   -0.387345
     84          6           0      -11.278847   -3.231535   -0.143216
     85          7           0       -8.587078    1.242889    0.444591
     86          6           0       -9.703034    2.000049    0.685693
     87          6           0       -9.212970    3.430739    0.922238
     88          6           0       -7.736480    3.424903    0.568383
     89          6           0       -7.468537    1.925322    0.509747
     90          6           0       -7.253675    4.169613   -0.647261
     91          6           0       -9.548689    4.046078    2.363382
     92          6           0       -8.868797    5.412993    2.696458
     93          1           0       -9.627348    6.721828    2.353505
     94          7           0       -6.515527   -0.943768    0.199777
     95          6           0       -5.702867    0.140586    0.257279
     96          6           0       -4.358294   -0.342083    0.077773
     97          6           0       -4.405690   -1.746662   -0.163308
     98          6           0       -5.757544   -2.085356   -0.152100
     99          6           0       -3.198693    0.603414    0.142101
    100          6           0       -3.201424   -2.659316   -0.536763
    101          8           0       -3.359330   -3.748936   -1.057688
    102          6           0       -1.812174   -2.249036   -0.412152
    103          7           0       -8.772408   -2.882868   -0.167047
    104          6           0       -7.685767   -3.735731   -0.358264
    105          6           0       -8.115290   -5.195187   -0.587857
    106          6           0       -9.637607   -5.136678   -0.222706
    107          6           0       -9.900278   -3.642784   -0.127058
    108          6           0       -7.675897   -5.823712   -1.845154
    109          6           0      -10.184577   -5.979789    1.057963
    110          6           0      -11.264978   -7.051134    0.882452
    111          7           0      -10.783359   -0.889296    0.166945
    112          6           0      -11.686344   -1.898747   -0.015975
    113          6           0      -13.022724   -1.407824    0.019463
    114          6           0      -12.819839   -0.011425    0.340974
    115          6           0      -11.421459    0.252260    0.327989
    116          6           0      -14.228435   -2.255543   -0.127838
    117          6           0      -13.512765    1.204268    0.700915
    118          8           0      -14.677400    1.484790    0.905957
    119          6           0      -12.298050    2.293322    0.868934
    120          6           0      -12.558657    3.525489    0.081756
    121          8           0      -12.580986    3.558060   -1.129099
    122          8           0      -12.752931    4.603549    0.861425
    123          6           0      -12.771797    5.955277    0.181256
    124          1           0       -5.385616    2.231293    0.531647
    125          1           0       -5.529748   -4.127203   -0.598822
    126          1           0      -11.951338   -4.083984   -0.261136
    127          1           0       -9.803646    3.954973    0.171112
    128          1           0       -7.171870    3.893284    1.374182
    129          1           0       -7.050696    3.320488   -1.299138
    130          1           0       -6.398182    4.811029   -0.435064
    131          1           0       -8.053483    4.720753   -1.142352
    132          1           0       -9.169654    3.266875    3.024990
    133          1           0      -10.626339    4.160762    2.473981
    134          1           0       -7.921019    5.529221    2.172305
    135          1           0       -8.641131    5.420042    3.762385
    136          1           0       -3.393023    1.642081    0.411322
    137          1           0       -2.811246    0.657895   -0.874719
    138          1           0       -2.373848    0.227987    0.748053
    139          1           0       -1.490904   -1.283741   -0.802070
    140          1           0       -1.076194   -2.973801   -0.759974
    141          1           0       -1.669214   -2.272387    0.667977
    142          1           0       -7.572615   -5.634123    0.249809
    143          1           0      -10.051229   -5.447632   -1.181908
    144          1           0       -6.990859   -6.668037   -1.763501
    145          1           0       -7.188057   -5.052566   -2.441922
    146          1           0       -8.486797   -6.245153   -2.439099
    147          1           0      -10.584004   -5.260346    1.772524
    148          1           0       -9.449142   -6.521937    1.653574
    149          1           0      -12.263264   -6.753808    1.204637
    150          1           0      -10.993388   -8.040157    1.250378
    151          1           0      -11.422968   -7.177156   -0.188738
    152          1           0      -14.073402   -2.932458   -0.967655
    153          1           0      -15.143404   -1.672129   -0.227042
    154          1           0      -14.221084   -2.971716    0.694463
    155          1           0      -12.318931    2.586313    1.918111
    156          1           0      -13.290746    6.569544    0.916755
    157          1           0      -13.316677    5.864647   -0.758204
    158          1           0      -11.732677    6.271520    0.088852
 ---------------------------------------------------------------------

 SCF Done:  E(RCAM-B3LYP) =  -4069.79947101     A.U. after   16 cycles

 Excitation energies and oscillator strengths:

 Excited State   1:      Singlet-A      1.6478 eV  752.43 nm  f=0.5262  <S**2>=0.000
     309 -> 315       -0.17867
     311 -> 313        0.66882
     312 -> 314       -0.15057
     309 <- 315       -0.10967
 This state for optimization and/or second-order correction.
 Total Energy, E(TD-HF/TD-DFT) =  -4069.73891648
 Copying the excited state density for this state as the 1-particle RhoCI density.

 Excited State   2:      Singlet-A      1.7014 eV  728.70 nm  f=0.2776  <S**2>=0.000
     310 -> 316       -0.17544
     311 -> 313        0.14908
     312 -> 314        0.66906
     310 <- 316       -0.10581

 Excited State   3:      Singlet-A      2.2171 eV  559.22 nm  f=0.0512  <S**2>=0.000
     309 -> 313        0.61108
     310 -> 314        0.13845
     311 -> 315        0.31203

 Excited State   4:      Singlet-A      2.2236 eV  557.57 nm  f=0.1269  <S**2>=0.000
     309 -> 313       -0.13572
     310 -> 314        0.61664
     312 -> 316        0.29503

 Excited State   5:      Singlet-A      2.7511 eV  450.68 nm  f=0.0000  <S**2>=0.000
     312 -> 313        0.70687

 The electronic state is 1-A.
 Alpha  occ. eigenvalues --  -46.88466 -46.87672 -19.25195 -19.24257 -19.19663
 Alpha  occ. eigenvalues --  -19.19576 -19.18832 -19.18469 -19.18259 -19.18089
 Alpha  occ. eigenvalues --  -14.42623 -14.42511 -14.41839 -14.41723 -14.40274
 Alpha  occ. eigenvalues --  -14.39857 -14.38835 -14.38235 -10.38716 -10.37796
 Alpha  occ. eigenvalues --  -10.35737 -10.35604 -10.35330 -10.34458 -10.32472
 Alpha  occ. eigenvalues --  -10.31957 -10.31582 -10.31527 -10.31417 -10.31411
 Alpha  occ. eigenvalues --  -10.31258 -10.31220 -10.30919 -10.30897 -10.30804
 Alpha  occ. eigenvalues --  -10.30240 -10.30167 -10.30090 -10.29609 -10.29487
 Alpha  occ. eigenvalues --  -10.29432 -10.29078 -10.28964 -10.28921 -10.28775
 Alpha  occ. eigenvalues --  -10.28765 -10.28590 -10.28553 -10.28529 -10.28510
 Alpha  occ. eigenvalues --  -10.28465 -10.28308 -10.28070 -10.27941 -10.27923
 Alpha  occ. eigenvalues --  -10.27855 -10.27701 -10.27449 -10.27337 -10.27334
 Alpha  occ. eigenvalues --  -10.27331 -10.27076 -10.27049 -10.27038 -10.26971
 Alpha  occ. eigenvalues --  -10.26934 -10.26904 -10.26796 -10.26781 -10.26732
 Alpha  occ. eigenvalues --  -10.26662 -10.26642 -10.26572 -10.26373 -10.26283
 Alpha  occ. eigenvalues --  -10.26218 -10.26196 -10.26076 -10.25842 -10.25836
 Alpha  occ. eigenvalues --  -10.25604 -10.25557 -10.25524 -10.25457 -10.25340
 Alpha  occ. eigenvalues --  -10.25032  -3.17157  -3.16332  -1.92042  -1.91629
 Alpha  occ. eigenvalues --   -1.91462  -1.91248  -1.90789  -1.90634  -1.16198
 Alpha  occ. eigenvalues --   -1.15682  -1.11600  -1.10735  -1.10253  -1.09303
 Alpha  occ. eigenvalues --   -1.06566  -1.05544  -1.05034  -1.03954  -1.03904
 Alpha  occ. eigenvalues --   -1.03299  -1.03115  -1.02391  -1.02143  -1.01876
 Alpha  occ. eigenvalues --   -0.92233  -0.91052  -0.89432  -0.89009  -0.88899
 Alpha  occ. eigenvalues --   -0.88543  -0.88159  -0.88128  -0.87537  -0.87364
 Alpha  occ. eigenvalues --   -0.87116  -0.86737  -0.86622  -0.86478  -0.84451
 Alpha  occ. eigenvalues --   -0.84295  -0.83749  -0.83529  -0.82547  -0.82355
 Alpha  occ. eigenvalues --   -0.82278  -0.81656  -0.81229  -0.81219  -0.80548
 Alpha  occ. eigenvalues --   -0.80342  -0.78562  -0.78301  -0.77603  -0.77471
 Alpha  occ. eigenvalues --   -0.77136  -0.77075  -0.76163  -0.75713  -0.75287
 Alpha  occ. eigenvalues --   -0.74936  -0.72769  -0.72569  -0.71814  -0.71613
 Alpha  occ. eigenvalues --   -0.70220  -0.69194  -0.68925  -0.68784  -0.68025
 Alpha  occ. eigenvalues --   -0.67719  -0.66687  -0.66448  -0.65652  -0.65355
 Alpha  occ. eigenvalues --   -0.65276  -0.65235  -0.64748  -0.64474  -0.64241
 Alpha  occ. eigenvalues --   -0.64000  -0.62001  -0.61253  -0.60285  -0.59756
 Alpha  occ. eigenvalues --   -0.59553  -0.59456  -0.59120  -0.58744  -0.58633
 Alpha  occ. eigenvalues --   -0.57878  -0.57750  -0.57536  -0.57113  -0.56459
 Alpha  occ. eigenvalues --   -0.56153  -0.55814  -0.55693  -0.55499  -0.55232
 Alpha  occ. eigenvalues --   -0.55196  -0.54822  -0.54603  -0.54390  -0.54162
 Alpha  occ. eigenvalues --   -0.53622  -0.53486  -0.53387  -0.53095  -0.52938
 Alpha  occ. eigenvalues --   -0.52916  -0.52698  -0.52592  -0.52386  -0.52275
 Alpha  occ. eigenvalues --   -0.52176  -0.51879  -0.51706  -0.51163  -0.51112
 Alpha  occ. eigenvalues --   -0.51084  -0.50793  -0.50660  -0.50274  -0.50247
 Alpha  occ. eigenvalues --   -0.50034  -0.49950  -0.49775  -0.49750  -0.49457
 Alpha  occ. eigenvalues --   -0.49405  -0.49219  -0.49141  -0.49138  -0.48960
 Alpha  occ. eigenvalues --   -0.48866  -0.48771  -0.48608  -0.48426  -0.48287
 Alpha  occ. eigenvalues --   -0.47990  -0.47697  -0.47608  -0.47534  -0.47262
 Alpha  occ. eigenvalues --   -0.46892  -0.46890  -0.46819  -0.46597  -0.46529
 Alpha  occ. eigenvalues --   -0.46387  -0.46367  -0.46326  -0.46056  -0.45999
 Alpha  occ. eigenvalues --   -0.45855  -0.45677  -0.45454  -0.45094  -0.44960
 Alpha  occ. eigenvalues --   -0.44908  -0.44614  -0.44577  -0.44317  -0.44212
 Alpha  occ. eigenvalues --   -0.44145  -0.44047  -0.43815  -0.43811  -0.43702
 Alpha  occ. eigenvalues --   -0.43495  -0.43329  -0.43183  -0.43142  -0.43088
 Alpha  occ. eigenvalues --   -0.42643  -0.42613  -0.42491  -0.42308  -0.41975
 Alpha  occ. eigenvalues --   -0.41721  -0.41630  -0.41603  -0.41334  -0.41118
 Alpha  occ. eigenvalues --   -0.41090  -0.40783  -0.40511  -0.40353  -0.40177
 Alpha  occ. eigenvalues --   -0.40037  -0.39745  -0.39378  -0.39313  -0.39102
 Alpha  occ. eigenvalues --   -0.38787  -0.38599  -0.38222  -0.37703  -0.37594
 Alpha  occ. eigenvalues --   -0.37072  -0.36796  -0.36678  -0.36267  -0.36090
 Alpha  occ. eigenvalues --   -0.35888  -0.35844  -0.34081  -0.33863  -0.33784
 Alpha  occ. eigenvalues --   -0.33324  -0.32955  -0.32804  -0.31610  -0.31155
 Alpha  occ. eigenvalues --   -0.31060  -0.30994  -0.30762  -0.30531  -0.30161
 Alpha  occ. eigenvalues --   -0.30020  -0.29486  -0.28846  -0.24282  -0.24001
 Alpha  occ. eigenvalues --   -0.21128  -0.20919
 Alpha virt. eigenvalues --   -0.08873  -0.08582  -0.02200  -0.01671   0.00472
 Alpha virt. eigenvalues --    0.00832   0.02219   0.02951   0.03223   0.03574
 Alpha virt. eigenvalues --    0.04877   0.04976   0.05078   0.05438   0.06085

 Mulliken charges:
               1
     1  Mg  12.000716
     2  C    5.978786
     3  C    6.022878
     4  C    6.027475
     5  C    5.993306
     6  N    6.991115
     7  C    6.028352
     8  C    5.995303
     9  C    6.006119
    10  C    5.967432
    11  C    6.002584
    12  C    5.994468
    13  C    5.998237
    14  H    1.000458
    15  N    7.009623
    16  C    5.949422
    17  C    5.985871
    18  C    5.981865
    19  C    5.957388
    20  C    6.006831
    21  C    5.988137
    22  O    7.974090
    23  C    6.003582
    24  N    7.012028
    25  C    5.958487
    26  C    6.007133
    27  C    5.995983
    28  C    6.032494
    29  C    6.005328
    30  C    5.994575
    31  C    5.993200
    32  N    6.994363
    33  C    6.039663
    34  C    6.028324
    35  C    6.004072
    36  C    6.035199
    37  C    5.997915
    38  C    6.014249
    39  O    8.028092
    40  C    6.002648
    41  C    6.003413
    42  O    8.005275
    43  O    8.000009
    44  C    5.997665
    45  H    0.989869
    46  H    0.993888
    47  H    1.012705
    48  H    0.996359
    49  H    1.001045
    50  H    0.996991
    51  H    0.987247
    52  H    1.002189
    53  H    1.009343
    54  H    0.996564
    55  H    0.996709
    56  H    1.005544
    57  H    0.981991
    58  H    0.979722
    59  H    0.980797
    60  H    0.992401
    61  H    0.995072
    62  H    0.985744
    63  H    1.002297
    64  H    0.997499
    65  H    0.999883
    66  H    1.001052
    67  H    0.986382
    68  H    1.010092
    69  H    0.996221
    70  H    1.011403
    71  H    1.008351
    72  H    0.996327
    73  H    1.015419
    74  H    1.018988
    75  H    1.018036
    76  H    1.008471
    77  H    1.004234
    78  H    1.005072
    79  H    1.001942
    80  Mg  11.999771
    81  C    5.995117
    82  C    6.004259
    83  C    6.004917
    84  C    5.996953
    85  N    6.998774
    86  C    6.008289
    87  C    5.998173
    88  C    6.001677
    89  C    5.993760
    90  C    6.000254
    91  C    5.998877
    92  C    6.000072
    93  H    1.000422
    94  N    7.001998
    95  C    5.990979
    96  C    5.993427
    97  C    5.998171
    98  C    5.991095
    99  C    6.001954
   100  C    5.997194
   101  O    7.995426
   102  C    6.002580
   103  N    7.000916
   104  C    5.990275
   105  C    6.002243
   106  C    5.996613
   107  C    6.008202
   108  C    6.000518
   109  C    5.999089
   110  C    5.999840
   111  N    6.998566
   112  C    6.008282
   113  C    6.007238
   114  C    6.000985
   115  C    6.007853
   116  C    5.999400
   117  C    6.003809
   118  O    8.007553
   119  C    6.000645
   120  C    6.000833
   121  O    8.001055
   122  O    8.000312
   123  C    5.999613
   124  H    0.997587
   125  H    0.997847
   126  H    1.003146
   127  H    1.000139
   128  H    1.000170
   129  H    1.000561
   130  H    0.999487
   131  H    0.997545
   132  H    1.001563
   133  H    0.999161
   134  H    1.001237
   135  H    1.000950
   136  H    0.995324
   137  H    0.992753
   138  H    0.994083
   139  H    0.995875
   140  H    0.994310
   141  H    0.999195
   142  H    1.000305
   143  H    1.000756
   144  H    0.999546
   145  H    1.000146
   146  H    0.997544
   147  H    0.999502
   148  H    1.003005
   149  H    0.999352
   150  H    1.001715
   151  H    1.000504
   152  H    1.004526
   153  H    1.003733
   154  H    1.005286
   155  H    1.002039
   156  H    1.001236
   157  H    1.000596
   158  H    1.001298
 Sum of Mulliken charges = 624.00000

 Dipole moment (field-independent basis, Debye):
    X=            -11.6785    Y=              0.9020    Z=             -5.5878  Tot=             12.9778
 Quadrupole moment (field-independent basis, Debye-Ang):
   XX=           -121.2518   YY=              2.5474   ZZ=              0.1793
   XY=             10.8664   XZ=            -56.2275   YZ=              2.6212

 Normal termination of Gaussian 16 at Wed Sep 22 12:22:54 2021.
