 Gaussian 16, Revision A.03,
 Gaussian 16:  ES64L-G16RevA.03 25-Dec-2016

 -----------------------------------
 #p cam-b3lyp/Def2SVP td=(nstates=5)
 -----------------------------------

 --------------------------------
 TDDFT excited states in gaussian
 --------------------------------
 Symbolic Z-matrix:
 Charge =  0 Multiplicity = 1

                         Standard orientation:
 ---------------------------------------------------------------------
 Center     Atomic      Atomic             Coordinates (Angstroms)
 Number     Number       Type             X           Y           Z
 ---------------------------------------------------------------------
      1         12           0       21.817933   -0.581764    0.330924
      2          6           0       21.872726    2.533340   -1.208712
      3          6           0       23.093321    0.796813    3.127783
      4          6           0       22.486239   -3.677422    1.518108
      5          6           0       21.286427   -2.055355   -2.847092
      6          7           0       22.293579    1.433049    0.824581
      7          6           0       22.119319    2.622750    0.151697
      8          6           0       22.599466    3.816010    1.022949
      9          6           0       23.449880    3.079716    2.103616
     10          6           0       22.833333    1.688602    2.099532
     11          6           0       24.985737    3.002855    1.790830
     12          6           0       21.362469    4.651559    1.400168
     13          6           0       21.567378    6.116120    1.314000
     14          1           0       20.341500    6.905571    1.213473
     15          7           0       22.457951   -1.295417    2.156103
     16          6           0       22.881432   -0.542925    3.204392
     17          6           0       22.922702   -1.379085    4.377682
     18          6           0       22.735670   -2.723995    3.893562
     19          6           0       22.630792   -2.611602    2.435810
     20          6           0       23.245290   -0.875190    5.738727
     21          6           0       22.800677   -4.102470    4.628482
     22          8           0       22.604910   -5.175938    4.055046
     23          6           0       22.966299   -4.183412    6.120322
     24          7           0       22.204341   -2.551097   -0.661992
     25          6           0       22.334561   -3.718179    0.139227
     26          6           0       22.219177   -4.987915   -0.637470
     27          6           0       21.621552   -4.395301   -1.954888
     28          6           0       21.640717   -2.877731   -1.791951
     29          6           0       23.569829   -5.762414   -0.808164
     30          6           0       20.156040   -4.882207   -2.251104
     31          6           0       19.144440   -4.714522   -1.088812
     32          7           0       21.510291    0.061781   -1.619074
     33          6           0       21.256117   -0.648288   -2.802676
     34          6           0       21.095575    0.316712   -3.825039
     35          6           0       21.301515    1.554352   -3.228323
     36          6           0       21.556646    1.338124   -1.914291
     37          6           0       20.721473    0.024665   -5.243281
     38          6           0       21.412582    2.909537   -3.504430
     39          8           0       21.293873    3.508046   -4.589115
     40          6           0       21.783348    3.696463   -2.211332
     41          6           0       20.584088    4.678474   -2.029686
     42          8           0       19.423559    4.351665   -1.723643
     43          8           0       21.043768    5.967934   -2.274575
     44          6           0       20.036349    7.067190   -2.413498
     45          1           0       23.591173    1.340256    3.933649
     46          1           0       22.522148   -4.744265    1.751426
     47          1           0       20.915346   -2.438226   -3.800128
     48          1           0       23.192867    4.506454    0.424509
     49          1           0       23.253509    3.527509    3.077343
     50          1           0       25.322068    3.533046    0.899372
     51          1           0       25.278507    1.978815    1.562583
     52          1           0       25.532782    3.455676    2.617495
     53          1           0       21.194518    4.460322    2.459114
     54          1           0       20.535373    4.318211    0.772774
     55          1           0       22.113897    6.280809    0.385255
     56          1           0       22.215916    6.422842    2.134386
     57          1           0       23.103617    0.203127    5.808729
     58          1           0       24.205888   -1.296149    6.037519
     59          1           0       22.524110   -1.278353    6.449769
     60          1           0       23.409084   -5.165257    6.289262
     61          1           0       21.997551   -4.163065    6.620066
     62          1           0       23.652999   -3.425306    6.498187
     63          1           0       21.497025   -5.694208   -0.225507
     64          1           0       22.269251   -4.672423   -2.787252
     65          1           0       24.396520   -5.069376   -0.649702
     66          1           0       23.747554   -6.232118   -1.775708
     67          1           0       23.737603   -6.587702   -0.115575
     68          1           0       20.251349   -5.910391   -2.600598
     69          1           0       19.877284   -4.310147   -3.135993
     70          1           0       18.297717   -4.082348   -1.356985
     71          1           0       19.699631   -4.290778   -0.251507
     72          1           0       18.720991   -5.663112   -0.760067
     73          1           0       21.508612    0.468615   -5.852658
     74          1           0       19.734302    0.451753   -5.419822
     75          1           0       20.711933   -1.030212   -5.517868
     76          1           0       22.684956    4.274246   -2.412988
     77          1           0       19.403044    6.790151   -3.255972
     78          1           0       20.407832    8.075299   -2.597129
     79          1           0       19.568930    6.938371   -1.437228
     80         12           0      -21.705871   -0.749613   -0.291929
     81          6           0      -23.242648    1.755712    1.656361
     82          6           0      -19.945839    1.711351   -1.922067
     83          6           0      -20.255826   -3.067701   -2.242405
     84          6           0      -23.923477   -3.136293    0.984461
     85          7           0      -21.572396    1.412442    0.006378
     86          6           0      -22.212018    2.269929    0.796560
     87          6           0      -21.813440    3.754947    0.668396
     88          6           0      -20.982703    3.614062   -0.697708
     89          6           0      -20.859428    2.126087   -0.917679
     90          6           0      -21.627863    4.304328   -1.874839
     91          6           0      -20.909943    4.315469    1.900903
     92          6           0      -21.051845    5.825762    2.111444
     93          1           0      -21.614485    6.222325    3.500703
     94          7           0      -20.148849   -0.731458   -1.785006
     95          6           0      -19.592274    0.444687   -2.345809
     96          6           0      -18.460514    0.028992   -3.143334
     97          6           0      -18.506939   -1.358924   -3.238886
     98          6           0      -19.655592   -1.807465   -2.390829
     99          6           0      -17.571478    0.986842   -3.913776
    100          6           0      -17.607594   -2.346515   -3.946419
    101          8           0      -17.799699   -3.520642   -3.820537
    102          6           0      -16.423705   -1.909462   -4.750118
    103          7           0      -22.151983   -2.754349   -0.747010
    104          6           0      -21.357309   -3.532952   -1.536942
    105          6           0      -21.916005   -4.978885   -1.427879
    106          6           0      -22.609959   -5.062452   -0.080152
    107          6           0      -22.966692   -3.568242    0.101097
    108          6           0      -22.939586   -5.210463   -2.538508
    109          6           0      -21.782285   -5.634743    1.010466
    110          6           0      -20.366116   -5.146621    1.190162
    111          7           0      -23.254621   -0.764255    1.065971
    112          6           0      -24.083827   -1.783830    1.494184
    113          6           0      -25.018578   -1.245696    2.494566
    114          6           0      -24.694038    0.118582    2.592016
    115          6           0      -23.652952    0.350614    1.735116
    116          6           0      -26.083530   -1.987011    3.180331
    117          6           0      -24.917777    1.333575    3.328651
    118          8           0      -25.697906    1.585729    4.293423
    119          6           0      -23.924197    2.439495    2.733008
    120          6           0      -24.794152    3.543127    2.189409
    121          8           0      -25.738244    3.338745    1.485407
    122          8           0      -24.385491    4.864063    2.518121
    123          6           0      -25.041713    5.947523    1.724831
    124          1           0      -19.416503    2.481036   -2.486586
    125          1           0      -19.882574   -3.832003   -2.927757
    126          1           0      -24.524051   -3.853272    1.548588
    127          1           0      -22.706660    4.380480    0.645506
    128          1           0      -20.024547    4.081688   -0.467729
    129          1           0      -21.131136    5.269972   -1.967768
    130          1           0      -22.714139    4.351528   -1.795308
    131          1           0      -21.267212    3.740846   -2.735311
    132          1           0      -19.856131    4.110440    1.709838
    133          1           0      -21.141873    3.779334    2.821380
    134          1           0      -21.691278    6.100683    1.272356
    135          1           0      -20.119370    6.356531    1.920368
    136          1           0      -17.738416    1.950114   -3.433251
    137          1           0      -18.045648    1.017267   -4.894350
    138          1           0      -16.517335    0.714785   -3.856486
    139          1           0      -15.768788   -1.589108   -3.939655
    140          1           0      -16.609603   -1.061917   -5.409269
    141          1           0      -16.015664   -2.750192   -5.312216
    142          1           0      -21.180439   -5.772459   -1.554700
    143          1           0      -23.501230   -5.688446   -0.052473
    144          1           0      -24.004648   -5.172958   -2.309505
    145          1           0      -22.728106   -6.186760   -2.974530
    146          1           0      -22.748501   -4.481541   -3.326896
    147          1           0      -21.755399   -6.723985    0.971889
    148          1           0      -22.332061   -5.377210    1.915550
    149          1           0      -20.363231   -4.595447    2.130973
    150          1           0      -19.853049   -4.502080    0.475802
    151          1           0      -19.727946   -6.015847    1.348383
    152          1           0      -26.860281   -2.215659    2.450697
    153          1           0      -26.390598   -1.314703    3.981384
    154          1           0      -25.726895   -2.949919    3.548474
    155          1           0      -23.278548    2.703643    3.570746
    156          1           0      -26.049424    6.131290    2.097321
    157          1           0      -25.095847    5.726397    0.657896
    158          1           0      -24.594826    6.937754    1.808595
 ---------------------------------------------------------------------

 SCF Done:  E(RCAM-B3LYP) =  -4069.80993953     A.U. after   19 cycles

 Excitation energies and oscillator strengths:

 Excited State   1:      Singlet-A      1.6607 eV  746.57 nm  f=0.3733  <S**2>=0.000
     309 -> 316       -0.16223
     312 -> 313        0.68888
     309 <- 316       -0.10409
 This state for optimization and/or second-order correction.
 Total Energy, E(TD-HF/TD-DFT) =  -4069.74890949
 Copying the excited state density for this state as the 1-particle RhoCI density.

 Excited State   2:      Singlet-A      1.6959 eV  731.10 nm  f=0.3740  <S**2>=0.000
     310 -> 315        0.17409
     311 -> 314        0.68764
     310 <- 315        0.10609

 Excited State   3:      Singlet-A      2.1842 eV  567.64 nm  f=0.1176  <S**2>=0.000
     310 -> 314        0.64719
     311 -> 315       -0.27033

 Excited State   4:      Singlet-A      2.2190 eV  558.74 nm  f=0.1287  <S**2>=0.000
     309 -> 313        0.64341
     312 -> 316        0.27226

 Excited State   5:      Singlet-A      3.1237 eV  396.91 nm  f=0.0000  <S**2>=0.000
     312 -> 314        0.70710

 The electronic state is 1-A.
 Alpha  occ. eigenvalues --  -46.88622 -46.88356 -19.24781 -19.24498 -19.20047
 Alpha  occ. eigenvalues --  -19.20043 -19.19080 -19.18769 -19.18240 -19.17689
 Alpha  occ. eigenvalues --  -14.43413 -14.41977 -14.41516 -14.41339 -14.39705
 Alpha  occ. eigenvalues --  -14.39381 -14.39055 -14.38540 -10.40066 -10.39397
 Alpha  occ. eigenvalues --  -10.35318 -10.35184 -10.34740 -10.33672 -10.32014
 Alpha  occ. eigenvalues --  -10.31849 -10.31682 -10.31271 -10.31119 -10.30991
 Alpha  occ. eigenvalues --  -10.30947 -10.30607 -10.30591 -10.30517 -10.30357
 Alpha  occ. eigenvalues --  -10.30275 -10.30260 -10.29435 -10.29387 -10.29344
 Alpha  occ. eigenvalues --  -10.29240 -10.28855 -10.28803 -10.28385 -10.28366
 Alpha  occ. eigenvalues --  -10.28360 -10.28341 -10.28309 -10.28280 -10.28250
 Alpha  occ. eigenvalues --  -10.28240 -10.28198 -10.28126 -10.27944 -10.27918
 Alpha  occ. eigenvalues --  -10.27707 -10.27588 -10.27527 -10.27490 -10.27224
 Alpha  occ. eigenvalues --  -10.27208 -10.27125 -10.27118 -10.27049 -10.27046
 Alpha  occ. eigenvalues --  -10.26766 -10.26692 -10.26649 -10.26585 -10.26564
 Alpha  occ. eigenvalues --  -10.26434 -10.26415 -10.26412 -10.25976 -10.25973
 Alpha  occ. eigenvalues --  -10.25863 -10.25784 -10.25776 -10.25619 -10.25606
 Alpha  occ. eigenvalues --  -10.25396 -10.25116 -10.25104 -10.24461 -10.24425
 Alpha  occ. eigenvalues --  -10.23818  -3.17117  -3.16952  -1.92039  -1.91832
 Alpha  occ. eigenvalues --   -1.91548  -1.91433  -1.91411  -1.91254  -1.15613
 Alpha  occ. eigenvalues --   -1.14454  -1.12114  -1.09508  -1.07982  -1.07380
 Alpha  occ. eigenvalues --   -1.06686  -1.06654  -1.05296  -1.04845  -1.03937
 Alpha  occ. eigenvalues --   -1.03553  -1.03537  -1.02934  -1.02262  -1.01767
 Alpha  occ. eigenvalues --   -0.92950  -0.92568  -0.90047  -0.89438  -0.89128
 Alpha  occ. eigenvalues --   -0.89086  -0.88832  -0.88621  -0.87847  -0.87833
 Alpha  occ. eigenvalues --   -0.87164  -0.86934  -0.86570  -0.86220  -0.84706
 Alpha  occ. eigenvalues --   -0.84634  -0.83572  -0.83542  -0.82627  -0.82473
 Alpha  occ. eigenvalues --   -0.82202  -0.81658  -0.81112  -0.81025  -0.80427
 Alpha  occ. eigenvalues --   -0.79922  -0.78910  -0.78242  -0.77347  -0.77108
 Alpha  occ. eigenvalues --   -0.77106  -0.76970  -0.76284  -0.76069  -0.75504
 Alpha  occ. eigenvalues --   -0.74989  -0.73285  -0.72457  -0.72084  -0.71332
 Alpha  occ. eigenvalues --   -0.69827  -0.69704  -0.68849  -0.68802  -0.67842
 Alpha  occ. eigenvalues --   -0.67571  -0.67123  -0.66567  -0.65829  -0.65373
 Alpha  occ. eigenvalues --   -0.64939  -0.64695  -0.64489  -0.64203  -0.64102
 Alpha  occ. eigenvalues --   -0.63409  -0.61768  -0.61600  -0.60383  -0.59939
 Alpha  occ. eigenvalues --   -0.59921  -0.59819  -0.59175  -0.59146  -0.58982
 Alpha  occ. eigenvalues --   -0.58609  -0.58470  -0.57601  -0.57594  -0.57036
 Alpha  occ. eigenvalues --   -0.56395  -0.56016  -0.55761  -0.55653  -0.55363
 Alpha  occ. eigenvalues --   -0.55115  -0.54801  -0.54786  -0.54541  -0.54090
 Alpha  occ. eigenvalues --   -0.53980  -0.53717  -0.53615  -0.53583  -0.53081
 Alpha  occ. eigenvalues --   -0.53045  -0.52968  -0.52844  -0.52499  -0.52436
 Alpha  occ. eigenvalues --   -0.51968  -0.51882  -0.51706  -0.51631  -0.51528
 Alpha  occ. eigenvalues --   -0.51494  -0.50842  -0.50733  -0.50526  -0.50382
 Alpha  occ. eigenvalues --   -0.50202  -0.50010  -0.49692  -0.49670  -0.49585
 Alpha  occ. eigenvalues --   -0.49421  -0.49230  -0.49209  -0.49075  -0.48948
 Alpha  occ. eigenvalues --   -0.48796  -0.48554  -0.48301  -0.48222  -0.48119
 Alpha  occ. eigenvalues --   -0.48010  -0.47734  -0.47720  -0.47650  -0.47399
 Alpha  occ. eigenvalues --   -0.47176  -0.47068  -0.46709  -0.46648  -0.46355
 Alpha  occ. eigenvalues --   -0.46332  -0.46026  -0.45878  -0.45736  -0.45558
 Alpha  occ. eigenvalues --   -0.45503  -0.45405  -0.45220  -0.44956  -0.44643
 Alpha  occ. eigenvalues --   -0.44523  -0.44320  -0.44216  -0.44170  -0.43786
 Alpha  occ. eigenvalues --   -0.43732  -0.43503  -0.43500  -0.43477  -0.43225
 Alpha  occ. eigenvalues --   -0.43156  -0.43106  -0.43090  -0.42851  -0.42729
 Alpha  occ. eigenvalues --   -0.42525  -0.42466  -0.42401  -0.41998  -0.41823
 Alpha  occ. eigenvalues --   -0.41776  -0.41624  -0.41559  -0.41100  -0.41043
 Alpha  occ. eigenvalues --   -0.40931  -0.40880  -0.40685  -0.40380  -0.40331
 Alpha  occ. eigenvalues --   -0.40273  -0.39990  -0.39747  -0.39524  -0.39196
 Alpha  occ. eigenvalues --   -0.38344  -0.38239  -0.38069  -0.37716  -0.37401
 Alpha  occ. eigenvalues --   -0.37285  -0.37129  -0.36865  -0.36633  -0.36431
 Alpha  occ. eigenvalues --   -0.36194  -0.36113  -0.34684  -0.34519  -0.34222
 Alpha  occ. eigenvalues --   -0.34124  -0.33261  -0.33206  -0.31713  -0.31368
 Alpha  occ. eigenvalues --   -0.31351  -0.30858  -0.30315  -0.30091  -0.30010
 Alpha  occ. eigenvalues --   -0.29757  -0.29436  -0.29330  -0.24276  -0.24143
 Alpha  occ. eigenvalues --   -0.21387  -0.21227
 Alpha virt. eigenvalues --   -0.09039  -0.08961  -0.01739  -0.01547   0.00437
 Alpha virt. eigenvalues --    0.00498   0.02159   0.02173   0.02389   0.03262
 Alpha virt. eigenvalues --    0.04652   0.04925   0.05035   0.05299   0.05617

 Mulliken charges:
               1
     1  Mg   0.820665
     2  C   -0.060272
     3  C   -0.109645
     4  C   -0.010543
     5  C   -0.097848
     6  N   -0.339995
     7  C   -0.020868
     8  C   -0.061543
     9  C   -0.031299
    10  C    0.010377
    11  C    0.081256
    12  C    0.079412
    13  C   -0.068957
    14  H    0.035412
    15  N   -0.383352
    16  C    0.220959
    17  C   -0.158629
    18  C   -0.039994
    19  C    0.171602
    20  C    0.117514
    21  C    0.010819
    22  O   -0.218667
    23  C    0.055150
    24  N   -0.251756
    25  C   -0.074996
    26  C   -0.004106
    27  C   -0.051248
    28  C    0.088325
    29  C    0.063728
    30  C    0.024270
    31  C    0.002177
    32  N   -0.340225
    33  C    0.098561
    34  C   -0.182219
    35  C    0.104010
    36  C    0.159772
    37  C    0.133468
    38  C   -0.059265
    39  O   -0.207765
    40  C    0.035651
    41  C    0.229290
    42  O   -0.241957
    43  O   -0.360263
    44  C    0.180283
    45  H   -0.026145
    46  H   -0.008818
    47  H   -0.021107
    48  H   -0.002233
    49  H   -0.007334
    50  H    0.013770
    51  H    0.031718
    52  H    0.021242
    53  H   -0.004191
    54  H    0.042583
    55  H    0.020627
    56  H    0.016858
    57  H    0.018558
    58  H    0.045582
    59  H    0.019806
    60  H    0.029536
    61  H    0.051898
    62  H    0.006390
    63  H    0.019264
    64  H    0.003043
    65  H    0.017821
    66  H    0.011253
    67  H    0.020609
    68  H    0.005235
    69  H   -0.001547
    70  H    0.023041
    71  H    0.027962
    72  H    0.019143
    73  H    0.034982
    74  H    0.045084
    75  H   -0.002637
    76  H    0.036122
    77  H    0.050349
    78  H    0.051191
    79  H    0.043054
    80  Mg   0.813752
    81  C   -0.040355
    82  C   -0.100313
    83  C   -0.056104
    84  C   -0.065197
    85  N   -0.248686
    86  C   -0.044809
    87  C   -0.042228
    88  C   -0.088373
    89  C    0.097214
    90  C    0.104627
    91  C    0.047557
    92  C   -0.047313
    93  H    0.044999
    94  N   -0.365833
    95  C    0.130085
    96  C   -0.165497
    97  C   -0.010023
    98  C    0.115985
    99  C    0.118463
   100  C   -0.027538
   101  O   -0.177937
   102  C    0.053333
   103  N   -0.336426
   104  C    0.059174
   105  C   -0.036033
   106  C    0.001084
   107  C    0.092575
   108  C    0.078989
   109  C    0.053803
   110  C   -0.013973
   111  N   -0.352951
   112  C    0.068129
   113  C   -0.192122
   114  C    0.046557
   115  C    0.100703
   116  C    0.125868
   117  C    0.023004
   118  O   -0.217243
   119  C    0.037703
   120  C    0.193547
   121  O   -0.181819
   122  O   -0.372703
   123  C    0.178956
   124  H   -0.015763
   125  H   -0.006733
   126  H   -0.026823
   127  H    0.020212
   128  H    0.010245
   129  H    0.008619
   130  H    0.034970
   131  H    0.001638
   132  H    0.003184
   133  H    0.019041
   134  H    0.008185
   135  H    0.020942
   136  H    0.008454
   137  H    0.052503
   138  H    0.037149
   139  H    0.038123
   140  H    0.030896
   141  H    0.035340
   142  H   -0.003202
   143  H   -0.009964
   144  H    0.023915
   145  H    0.009692
   146  H    0.009339
   147  H    0.006466
   148  H   -0.008914
   149  H    0.008033
   150  H    0.038129
   151  H    0.006340
   152  H    0.030648
   153  H    0.042253
   154  H    0.013569
   155  H    0.046801
   156  H    0.037686
   157  H    0.033001
   158  H    0.033397
 Sum of Mulliken charges =  -0.00000

 Dipole moment (field-independent basis, Debye):
    X=              6.9101    Y=              1.4890    Z=             -0.7460  Tot=              7.1080
 Quadrupole moment (field-independent basis, Debye-Ang):
   XX=           -700.6159   YY=           -474.1016   ZZ=           -518.7612
   XY=             -1.3346   XZ=            177.1914   YZ=              6.0262

 Normal termination of Gaussian 16 at Wed Sep 15 08:31:54 2021.
