 Gaussian 16, Revision A.03,
 Gaussian 16:  ES64L-G16RevA.03 25-Dec-2016

 ----------------------------------------------------------
 #p cam-b3lyp/Def2SVP td=(nstates=5) density=(transition=1)
 ----------------------------------------------------------

 --------------------------------
 TDDFT excited states in gaussian
 --------------------------------
 Symbolic Z-matrix:
 Charge =  0 Multiplicity = 1

                         Standard orientation:
 ---------------------------------------------------------------------
 Center     Atomic      Atomic             Coordinates (Angstroms)
 Number     Number       Type             X           Y           Z
 ---------------------------------------------------------------------
      1         12           0       32.276169   -0.038102   -0.436415
      2          6           0       29.470015   -0.688367    1.912238
      3          6           0       32.954140    2.562541    1.613200
      4          6           0       34.451122    0.590823   -2.654896
      5          6           0       30.656468   -2.329736   -2.627055
      6          7           0       31.275439    0.829879    1.484426
      7          6           0       30.303160    0.294286    2.312065
      8          6           0       30.192916    0.966253    3.685501
      9          6           0       30.991375    2.269592    3.373869
     10          6           0       31.806628    1.907976    2.072482
     11          6           0       30.157834    3.496756    3.178460
     12          6           0       30.681668    0.144978    4.925475
     13          6           0       30.015489    0.390968    6.237884
     14          1           0       30.932382    0.334004    7.455618
     15          7           0       33.609296    1.390579   -0.509404
     16          6           0       33.804604    2.382251    0.474598
     17          6           0       35.005901    3.093075    0.143719
     18          6           0       35.515646    2.389049   -1.032365
     19          6           0       34.529846    1.441159   -1.408571
     20          6           0       35.656277    4.227424    1.018996
     21          6           0       36.832595    2.654940   -1.695137
     22          8           0       37.184673    2.057216   -2.741163
     23          6           0       37.842288    3.597770   -1.149988
     24          7           0       32.473556   -0.608546   -2.417743
     25          6           0       33.508946   -0.220545   -3.164985
     26          6           0       33.541295   -0.866200   -4.587360
     27          6           0       32.587435   -2.088497   -4.315136
     28          6           0       31.805321   -1.641399   -3.049857
     29          6           0       32.961000    0.085783   -5.682251
     30          6           0       33.389426   -3.423977   -4.015113
     31          6           0       34.460318   -3.906424   -5.016028
     32          7           0       30.477095   -1.299508   -0.385318
     33          6           0       30.024889   -2.206273   -1.337168
     34          6           0       28.796992   -2.815154   -0.881918
     35          6           0       28.567625   -2.281064    0.392500
     36          6           0       29.562761   -1.294210    0.632921
     37          6           0       28.031048   -3.901250   -1.559456
     38          6           0       27.667571   -2.331130    1.537182
     39          8           0       26.684585   -3.004678    1.816513
     40          6           0       28.344784   -1.316121    2.596681
     41          6           0       27.278349   -0.424797    3.019727
     42          8           0       26.645069    0.370241    2.307581
     43          8           0       26.784326   -0.900409    4.200511
     44          6           0       25.674573   -0.241786    4.811352
     45          1           0       33.202858    3.287434    2.391326
     46          1           0       35.183118    0.772396   -3.444386
     47          1           0       30.215394   -3.034266   -3.335796
     48          1           0       29.143478    1.222541    3.832308
     49          1           0       31.769244    2.429053    4.120004
     50          1           0       30.164569    3.717972    2.111145
     51          1           0       30.630227    4.344107    3.675183
     52          1           0       29.116915    3.450553    3.497939
     53          1           0       31.728096    0.405590    5.081551
     54          1           0       30.650636   -0.908251    4.647758
     55          1           0       29.284354   -0.414383    6.305328
     56          1           0       29.346634    1.251400    6.213837
     57          1           0       36.553486    3.941894    1.567370
     58          1           0       34.926158    4.679526    1.689752
     59          1           0       35.889595    4.972885    0.257750
     60          1           0       37.504765    4.614275   -1.353830
     61          1           0       38.764162    3.384547   -1.691770
     62          1           0       37.965444    3.343374   -0.097794
     63          1           0       34.587467   -1.106375   -4.779912
     64          1           0       31.856153   -2.299729   -5.094745
     65          1           0       33.797638    0.359078   -6.325733
     66          1           0       32.426456    0.962106   -5.317051
     67          1           0       32.289236   -0.586146   -6.218311
     68          1           0       32.679828   -4.250334   -3.981371
     69          1           0       33.776735   -3.319907   -3.001729
     70          1           0       35.379917   -3.952529   -4.432858
     71          1           0       34.527630   -3.095770   -5.742135
     72          1           0       34.234377   -4.888307   -5.431637
     73          1           0       28.711293   -4.269902   -2.327565
     74          1           0       27.161977   -3.420211   -2.008162
     75          1           0       27.662634   -4.674048   -0.884827
     76          1           0       28.737783   -1.880941    3.441844
     77          1           0       25.358948    0.632330    4.241363
     78          1           0       26.049025    0.105952    5.774223
     79          1           0       24.874899   -0.944440    5.041292
     80         12           0      -32.037234    0.597249    0.400780
     81          6           0      -29.562989   -1.899788   -0.206353
     82          6           0      -30.027783    2.688647   -1.211718
     83          6           0      -34.645938    2.710987    0.015718
     84          6           0      -34.218819   -2.116384    1.160439
     85          7           0      -30.051834    0.448404   -0.452261
     86          6           0      -29.157110   -0.641019   -0.527352
     87          6           0      -27.803755   -0.277250   -1.215432
     88          6           0      -27.994595    1.244793   -1.470319
     89          6           0      -29.415311    1.522169   -0.934978
     90          6           0      -26.832974    1.977459   -0.778544
     91          6           0      -27.414795   -1.064582   -2.540446
     92          6           0      -26.193627   -1.973700   -2.464453
     93          1           0      -25.060431   -1.727190   -3.481296
     94          7           0      -32.305173    2.442750   -0.366376
     95          6           0      -31.305138    3.161116   -1.021467
     96          6           0      -31.748717    4.461873   -1.322990
     97          6           0      -33.043945    4.591664   -0.856786
     98          6           0      -33.414573    3.270325   -0.391957
     99          6           0      -30.964156    5.634683   -2.020029
    100          6           0      -33.818197    5.887061   -0.925870
    101          8           0      -33.352267    6.930905   -1.274372
    102          6           0      -35.319372    5.825599   -0.354571
    103          7           0      -34.144328    0.335954    0.490231
    104          6           0      -34.997284    1.393419    0.328071
    105          6           0      -36.468583    0.809630    0.370148
    106          6           0      -36.371147   -0.649085    0.847095
    107          6           0      -34.808181   -0.851784    0.821674
    108          6           0      -37.470809    1.670707    1.085044
    109          6           0      -37.015037   -1.565351   -0.186013
    110          6           0      -37.492701   -2.912374    0.287639
    111          7           0      -31.883165   -1.556807    0.714631
    112          6           0      -32.839368   -2.488913    1.040313
    113          6           0      -32.247948   -3.769694    1.181478
    114          6           0      -30.899300   -3.639167    0.773643
    115          6           0      -30.789004   -2.273431    0.387668
    116          6           0      -32.921583   -5.040482    1.513243
    117          6           0      -29.596617   -4.267085    0.514523
    118          8           0      -29.245705   -5.434726    0.731306
    119          6           0      -28.650796   -3.171149   -0.110776
    120          6           0      -27.614112   -2.848654    0.833125
    121          8           0      -27.852863   -2.144204    1.842442
    122          8           0      -26.490654   -3.469365    0.422762
    123          6           0      -25.209150   -3.150456    1.109831
    124          1           0      -29.376589    3.414358   -1.704100
    125          1           0      -35.453144    3.442824   -0.058572
    126          1           0      -34.811077   -2.965754    1.506274
    127          1           0      -26.983795   -0.421627   -0.511993
    128          1           0      -28.004032    1.511497   -2.526709
    129          1           0      -27.063302    3.041590   -0.821445
    130          1           0      -25.846619    1.828719   -1.217749
    131          1           0      -26.729068    1.694454    0.269538
    132          1           0      -27.098569   -0.277862   -3.225442
    133          1           0      -28.285591   -1.589680   -2.933134
    134          1           0      -26.549360   -3.000471   -2.556484
    135          1           0      -25.720635   -1.855534   -1.488921
    136          1           0      -31.594595    5.955514   -2.849567
    137          1           0      -29.998606    5.307434   -2.405359
    138          1           0      -30.663368    6.457467   -1.371502
    139          1           0      -35.680800    6.853349   -0.372053
    140          1           0      -35.182777    5.404609    0.641810
    141          1           0      -35.798672    5.146465   -1.059595
    142          1           0      -36.767423    0.820433   -0.678624
    143          1           0      -36.805571   -0.879182    1.819893
    144          1           0      -38.237504    1.022452    1.508484
    145          1           0      -37.877558    2.343155    0.329487
    146          1           0      -37.039757    2.348912    1.820553
    147          1           0      -36.381272   -1.742081   -1.055525
    148          1           0      -37.865345   -1.094787   -0.679578
    149          1           0      -37.497335   -3.003542    1.373657
    150          1           0      -36.821246   -3.665932   -0.124447
    151          1           0      -38.440365   -3.173223   -0.183420
    152          1           0      -33.806796   -4.878767    2.129160
    153          1           0      -32.181353   -5.628060    2.056842
    154          1           0      -33.231462   -5.460970    0.556274
    155          1           0      -28.282547   -3.401901   -1.110411
    156          1           0      -24.713570   -4.120113    1.043548
    157          1           0      -25.331002   -2.780637    2.127486
    158          1           0      -24.564480   -2.530799    0.485601
 ---------------------------------------------------------------------

 SCF Done:  E(RCAM-B3LYP) =  -4069.80706284     A.U. after   18 cycles

 Excitation energies and oscillator strengths:

 Excited State   1:      Singlet-A      1.6590 eV  747.36 nm  f=0.3879  <S**2>=0.000
     309 -> 316       -0.15615
     311 -> 313        0.69165
     309 <- 316       -0.10434
 This state for optimization and/or second-order correction.
 Total Energy, E(TD-HF/TD-DFT) =  -4069.74609694
 Copying the excited state density for this state as the 1-particle RhoCI density.

 Excited State   2:      Singlet-A      1.7225 eV  719.79 nm  f=0.3873  <S**2>=0.000
     310 -> 315        0.17110
     312 -> 314        0.68747
     310 <- 315        0.10386

 Excited State   3:      Singlet-A      2.1782 eV  569.22 nm  f=0.2162  <S**2>=0.000
     309 -> 313        0.66760
     311 -> 316        0.21706

 Excited State   4:      Singlet-A      2.2584 eV  549.00 nm  f=0.1172  <S**2>=0.000
     310 -> 314        0.63725
     312 -> 315       -0.28974

 Excited State   5:      Singlet-A      3.0043 eV  412.69 nm  f=0.0000  <S**2>=0.000
     312 -> 313        0.70711

 The electronic state is 1-A.
 Alpha  occ. eigenvalues --  -46.88907 -46.88508 -19.26503 -19.24820 -19.19902
 Alpha  occ. eigenvalues --  -19.19662 -19.19636 -19.19428 -19.18731 -19.17445
 Alpha  occ. eigenvalues --  -14.42530 -14.42318 -14.42179 -14.41441 -14.39715
 Alpha  occ. eigenvalues --  -14.39581 -14.39503 -14.38466 -10.39504 -10.39153
 Alpha  occ. eigenvalues --  -10.35988 -10.35475 -10.35387 -10.34002 -10.32837
 Alpha  occ. eigenvalues --  -10.31634 -10.31492 -10.31418 -10.31132 -10.30987
 Alpha  occ. eigenvalues --  -10.30813 -10.30743 -10.30709 -10.30597 -10.30474
 Alpha  occ. eigenvalues --  -10.30462 -10.30374 -10.29861 -10.29614 -10.29083
 Alpha  occ. eigenvalues --  -10.29068 -10.29005 -10.28966 -10.28684 -10.28335
 Alpha  occ. eigenvalues --  -10.28321 -10.28210 -10.28134 -10.28131 -10.28125
 Alpha  occ. eigenvalues --  -10.28121 -10.28025 -10.28021 -10.28011 -10.27952
 Alpha  occ. eigenvalues --  -10.27935 -10.27778 -10.27775 -10.27618 -10.27433
 Alpha  occ. eigenvalues --  -10.27395 -10.27310 -10.27182 -10.27105 -10.27086
 Alpha  occ. eigenvalues --  -10.27061 -10.26919 -10.26835 -10.26725 -10.26437
 Alpha  occ. eigenvalues --  -10.26399 -10.26357 -10.26254 -10.26203 -10.25996
 Alpha  occ. eigenvalues --  -10.25953 -10.25842 -10.25752 -10.25742 -10.25629
 Alpha  occ. eigenvalues --  -10.25607 -10.25551 -10.25545 -10.25434 -10.25164
 Alpha  occ. eigenvalues --  -10.24833  -3.17569  -3.17106  -1.92438  -1.92021
 Alpha  occ. eigenvalues --   -1.91983  -1.91891  -1.91541  -1.91432  -1.16640
 Alpha  occ. eigenvalues --   -1.16547  -1.11979  -1.10236  -1.08662  -1.07477
 Alpha  occ. eigenvalues --   -1.07393  -1.07029  -1.04924  -1.04115  -1.04045
 Alpha  occ. eigenvalues --   -1.03671  -1.03177  -1.02833  -1.02544  -1.01743
 Alpha  occ. eigenvalues --   -0.93714  -0.92209  -0.89664  -0.89564  -0.89343
 Alpha  occ. eigenvalues --   -0.88808  -0.88707  -0.88058  -0.87473  -0.87330
 Alpha  occ. eigenvalues --   -0.86849  -0.86642  -0.86503  -0.86252  -0.84814
 Alpha  occ. eigenvalues --   -0.84754  -0.84235  -0.84051  -0.83293  -0.83156
 Alpha  occ. eigenvalues --   -0.82085  -0.81908  -0.81132  -0.81076  -0.80863
 Alpha  occ. eigenvalues --   -0.80310  -0.78578  -0.77726  -0.77499  -0.77375
 Alpha  occ. eigenvalues --   -0.77298  -0.76681  -0.76254  -0.76238  -0.75456
 Alpha  occ. eigenvalues --   -0.75127  -0.73369  -0.72750  -0.71720  -0.70956
 Alpha  occ. eigenvalues --   -0.69302  -0.69255  -0.68657  -0.68615  -0.68185
 Alpha  occ. eigenvalues --   -0.67752  -0.67240  -0.66953  -0.65712  -0.65695
 Alpha  occ. eigenvalues --   -0.65600  -0.65146  -0.64995  -0.64915  -0.64557
 Alpha  occ. eigenvalues --   -0.64491  -0.62236  -0.62068  -0.60763  -0.60144
 Alpha  occ. eigenvalues --   -0.59792  -0.59630  -0.59535  -0.59428  -0.58874
 Alpha  occ. eigenvalues --   -0.58516  -0.58410  -0.58210  -0.57693  -0.57143
 Alpha  occ. eigenvalues --   -0.56408  -0.56042  -0.55919  -0.55644  -0.54972
 Alpha  occ. eigenvalues --   -0.54898  -0.54688  -0.54637  -0.54276  -0.54209
 Alpha  occ. eigenvalues --   -0.53811  -0.53711  -0.53244  -0.53164  -0.52886
 Alpha  occ. eigenvalues --   -0.52873  -0.52573  -0.52474  -0.52428  -0.52402
 Alpha  occ. eigenvalues --   -0.51771  -0.51679  -0.51474  -0.51432  -0.51238
 Alpha  occ. eigenvalues --   -0.51233  -0.51034  -0.50576  -0.50346  -0.50312
 Alpha  occ. eigenvalues --   -0.50154  -0.49962  -0.49918  -0.49861  -0.49860
 Alpha  occ. eigenvalues --   -0.49730  -0.49509  -0.49222  -0.49172  -0.48918
 Alpha  occ. eigenvalues --   -0.48746  -0.48425  -0.48342  -0.48255  -0.48164
 Alpha  occ. eigenvalues --   -0.48058  -0.47872  -0.47583  -0.47516  -0.47480
 Alpha  occ. eigenvalues --   -0.47275  -0.46955  -0.46540  -0.46415  -0.46397
 Alpha  occ. eigenvalues --   -0.46292  -0.46210  -0.46084  -0.45962  -0.45610
 Alpha  occ. eigenvalues --   -0.45408  -0.45302  -0.45148  -0.45129  -0.44991
 Alpha  occ. eigenvalues --   -0.44920  -0.44852  -0.44730  -0.44375  -0.44313
 Alpha  occ. eigenvalues --   -0.44121  -0.43963  -0.43718  -0.43711  -0.43462
 Alpha  occ. eigenvalues --   -0.43285  -0.43283  -0.43103  -0.43080  -0.42857
 Alpha  occ. eigenvalues --   -0.42793  -0.42696  -0.42556  -0.42303  -0.42124
 Alpha  occ. eigenvalues --   -0.42024  -0.41931  -0.41655  -0.41646  -0.41635
 Alpha  occ. eigenvalues --   -0.41351  -0.40697  -0.40646  -0.40582  -0.40210
 Alpha  occ. eigenvalues --   -0.40109  -0.39825  -0.39499  -0.39280  -0.39154
 Alpha  occ. eigenvalues --   -0.38590  -0.38382  -0.38253  -0.38222  -0.37776
 Alpha  occ. eigenvalues --   -0.37602  -0.37212  -0.37195  -0.36699  -0.36415
 Alpha  occ. eigenvalues --   -0.35996  -0.35836  -0.34626  -0.34335  -0.34325
 Alpha  occ. eigenvalues --   -0.34162  -0.33148  -0.32929  -0.31787  -0.31579
 Alpha  occ. eigenvalues --   -0.31409  -0.30891  -0.30753  -0.30550  -0.30143
 Alpha  occ. eigenvalues --   -0.29903  -0.29819  -0.28926  -0.24282  -0.24268
 Alpha  occ. eigenvalues --   -0.21740  -0.21249
 Alpha virt. eigenvalues --   -0.09669  -0.08750  -0.01695  -0.00788   0.00279
 Alpha virt. eigenvalues --    0.00572   0.01731   0.02186   0.02244   0.02740
 Alpha virt. eigenvalues --    0.03916   0.04560   0.04753   0.04964   0.05642

 Mulliken charges:
               1
     1  Mg  12.002537
     2  C    6.036870
     3  C    6.015627
     4  C    5.962385
     5  C    5.995546
     6  N    7.029213
     7  C    5.963615
     8  C    6.014554
     9  C    5.998964
    10  C    6.012118
    11  C    5.995772
    12  C    6.002063
    13  C    5.998870
    14  H    0.995509
    15  N    6.993847
    16  C    6.036200
    17  C    6.020761
    18  C    6.014090
    19  C    6.032950
    20  C    5.999150
    21  C    6.011924
    22  O    8.035794
    23  C    5.994588
    24  N    6.974298
    25  C    6.038051
    26  C    5.994874
    27  C    6.004613
    28  C    5.981478
    29  C    5.999676
    30  C    6.004895
    31  C    5.999622
    32  N    7.004237
    33  C    5.965701
    34  C    5.966692
    35  C    6.001689
    36  C    5.954343
    37  C    6.003940
    38  C    5.987247
    39  O    7.974034
    40  C    5.991720
    41  C    5.994093
    42  O    7.996775
    43  O    7.999587
    44  C    6.003424
    45  H    1.022925
    46  H    0.997375
    47  H    0.982271
    48  H    1.000370
    49  H    1.000218
    50  H    0.999669
    51  H    1.001464
    52  H    1.016540
    53  H    0.987993
    54  H    1.006614
    55  H    1.005461
    56  H    0.997861
    57  H    1.020507
    58  H    1.014622
    59  H    1.016636
    60  H    1.008599
    61  H    1.015559
    62  H    1.004759
    63  H    0.994208
    64  H    0.997862
    65  H    0.995268
    66  H    0.996820
    67  H    1.008173
    68  H    1.001863
    69  H    0.993017
    70  H    0.991946
    71  H    0.994017
    72  H    0.997529
    73  H    0.985241
    74  H    0.977295
    75  H    0.979394
    76  H    0.994827
    77  H    0.996309
    78  H    0.993883
    79  H    0.998967
    80  Mg  11.999998
    81  C    5.999941
    82  C    5.999993
    83  C    6.000021
    84  C    6.000025
    85  N    6.999957
    86  C    6.000057
    87  C    5.999994
    88  C    6.000020
    89  C    5.999977
    90  C    6.000005
    91  C    5.999989
    92  C    5.999984
    93  H    1.000052
    94  N    7.000009
    95  C    5.999954
    96  C    5.999959
    97  C    6.000004
    98  C    5.999937
    99  C    6.000007
   100  C    5.999965
   101  O    7.999962
   102  C    5.999999
   103  N    7.000026
   104  C    5.999940
   105  C    6.000016
   106  C    5.999981
   107  C    6.000017
   108  C    6.000006
   109  C    5.999992
   110  C    5.999997
   111  N    7.000000
   112  C    6.000029
   113  C    6.000045
   114  C    5.999987
   115  C    6.000072
   116  C    5.999988
   117  C    6.000053
   118  O    8.000067
   119  C    6.000018
   120  C    6.000014
   121  O    8.000002
   122  O    8.000004
   123  C    5.999983
   124  H    0.999993
   125  H    0.999967
   126  H    0.999993
   127  H    1.000021
   128  H    0.999999
   129  H    1.000002
   130  H    1.000005
   131  H    0.999986
   132  H    1.000024
   133  H    0.999989
   134  H    0.999996
   135  H    1.000008
   136  H    0.999962
   137  H    0.999979
   138  H    0.999960
   139  H    0.999955
   140  H    0.999987
   141  H    0.999983
   142  H    0.999990
   143  H    0.999993
   144  H    0.999969
   145  H    0.999994
   146  H    0.999999
   147  H    1.000010
   148  H    1.000005
   149  H    0.999997
   150  H    1.000001
   151  H    0.999995
   152  H    1.000024
   153  H    1.000036
   154  H    1.000038
   155  H    1.000028
   156  H    1.000031
   157  H    1.000004
   158  H    1.000032
 Sum of Mulliken charges = 624.00000

 Dipole moment (field-independent basis, Debye):
    X=              7.6836    Y=              7.8350    Z=              1.7014  Tot=             11.1049
 Quadrupole moment (field-independent basis, Debye-Ang):
   XX=            491.1883   YY=              2.1591   ZZ=             -5.0823
   XY=            253.8562   XZ=             52.4016   YZ=             -3.2998

 Normal termination of Gaussian 16 at Tue Sep 21 22:14:19 2021.
