 Gaussian 16, Revision A.03,
 Gaussian 16:  ES64L-G16RevA.03 25-Dec-2016

 ----------------------------------------------------------
 #p cam-b3lyp/Def2SVP td=(nstates=5) density=(transition=1)
 ----------------------------------------------------------

 --------------------------------
 TDDFT excited states in gaussian
 --------------------------------
 Symbolic Z-matrix:
 Charge =  0 Multiplicity = 1

                         Standard orientation:
 ---------------------------------------------------------------------
 Center     Atomic      Atomic             Coordinates (Angstroms)
 Number     Number       Type             X           Y           Z
 ---------------------------------------------------------------------
      1         12           0      -21.726122    0.458789   -0.240437
      2          6           0      -18.297593    0.383663    0.309645
      3          6           0      -21.191862   -1.188295   -3.332401
      4          6           0      -24.923654   -0.509748   -0.283756
      5          6           0      -22.115028    1.454801    3.118935
      6          7           0      -19.902200   -0.649568   -1.238909
      7          6           0      -18.623490   -0.272972   -0.905127
      8          6           0      -17.622730   -0.799055   -1.885581
      9          6           0      -18.540627   -1.068452   -3.165139
     10          6           0      -19.995338   -1.004188   -2.579076
     11          6           0      -18.338884   -0.057115   -4.403353
     12          6           0      -16.805407   -2.040418   -1.254358
     13          6           0      -15.488883   -2.244766   -1.812230
     14          1           0      -15.265990   -3.667969   -2.366232
     15          7           0      -22.946064   -0.517665   -1.666683
     16          6           0      -22.535616   -1.121511   -2.888127
     17          6           0      -23.727595   -1.627090   -3.547876
     18          6           0      -24.843460   -1.428210   -2.698949
     19          6           0      -24.274974   -0.708894   -1.509781
     20          6           0      -23.660702   -2.380161   -4.824010
     21          6           0      -26.309992   -1.942857   -3.014797
     22          8           0      -26.473850   -2.535171   -4.080303
     23          6           0      -27.522449   -1.466490   -2.222271
     24          7           0      -23.215677    0.399201    1.258996
     25          6           0      -24.482437    0.060444    0.909107
     26          6           0      -25.526178    0.079426    2.190385
     27          6           0      -24.654098    0.927277    3.235479
     28          6           0      -23.253530    0.981534    2.547267
     29          6           0      -26.916711    0.774464    1.933546
     30          6           0      -24.574323    0.277831    4.618332
     31          6           0      -25.065596    1.030680    5.877976
     32          7           0      -20.490555    1.112272    1.279487
     33          6           0      -20.793356    1.511063    2.549003
     34          6           0      -19.598455    1.986928    3.189790
     35          6           0      -18.565288    1.483903    2.312628
     36          6           0      -19.200719    0.924774    1.190783
     37          6           0      -19.493267    2.555055    4.575582
     38          6           0      -17.133758    1.296109    2.201822
     39          8           0      -16.246876    1.754533    2.855793
     40          6           0      -16.837624    0.595588    0.818763
     41          6           0      -16.058754    1.465623   -0.192293
     42          8           0      -16.352668    2.602653   -0.492862
     43          8           0      -14.909848    0.772274   -0.625698
     44          6           0      -13.981910    1.503725   -1.434323
     45          1           0      -20.957717   -1.628497   -4.303116
     46          1           0      -25.887524   -1.004353   -0.147985
     47          1           0      -22.285085    1.777609    4.147688
     48          1           0      -16.977010   -0.014586   -2.281597
     49          1           0      -18.343257   -2.083294   -3.512332
     50          1           0      -18.033236   -0.687986   -5.237930
     51          1           0      -17.600025    0.717950   -4.202087
     52          1           0      -19.319272    0.375584   -4.604724
     53          1           0      -17.429010   -2.899911   -1.499735
     54          1           0      -16.890078   -1.822523   -0.189378
     55          1           0      -14.786192   -2.046306   -1.003835
     56          1           0      -15.331835   -1.572766   -2.655899
     57          1           0      -22.686645   -2.276385   -5.301744
     58          1           0      -24.356856   -1.951561   -5.545396
     59          1           0      -23.829644   -3.445401   -4.664719
     60          1           0      -27.528170   -1.800808   -1.184344
     61          1           0      -28.412198   -1.819756   -2.744506
     62          1           0      -27.533104   -0.377664   -2.273014
     63          1           0      -25.568459   -0.967423    2.489836
     64          1           0      -24.921859    1.981570    3.308599
     65          1           0      -27.711961    0.030660    1.973360
     66          1           0      -26.914781    1.235525    0.945134
     67          1           0      -27.042245    1.518460    2.720926
     68          1           0      -23.577685   -0.113383    4.821436
     69          1           0      -25.077949   -0.685363    4.698711
     70          1           0      -24.312352    1.357039    6.595579
     71          1           0      -25.676676    0.305037    6.415292
     72          1           0      -25.641194    1.917343    5.609528
     73          1           0      -18.543491    3.087783    4.628874
     74          1           0      -19.248975    1.832851    5.353947
     75          1           0      -20.359640    3.126851    4.907022
     76          1           0      -16.208059   -0.247218    1.105489
     77          1           0      -13.534971    0.685355   -1.999718
     78          1           0      -13.154374    1.902544   -0.847875
     79          1           0      -14.486757    2.294132   -1.988296
     80         12           0       20.710687   -0.894303   -0.122478
     81          6           0       21.829715    2.426811   -0.957205
     82          6           0       17.726824    0.357290    0.705696
     83          6           0       20.090308   -3.799541    1.428481
     84          6           0       24.028743   -1.932209   -0.588860
     85          7           0       19.926000    1.134098   -0.081693
     86          6           0       20.460351    2.310058   -0.635296
     87          6           0       19.377745    3.453280   -0.709888
     88          6           0       18.116780    2.760578   -0.110140
     89          6           0       18.591663    1.304762    0.141815
     90          6           0       17.509223    3.377462    1.124092
     91          6           0       19.201887    4.054719   -2.205407
     92          6           0       19.321319    5.579805   -2.314937
     93          1           0       18.048576    6.278960   -2.922113
     94          7           0       19.062303   -1.670594    0.808166
     95          6           0       17.924696   -1.019428    1.070885
     96          6           0       16.971693   -1.867545    1.788924
     97          6           0       17.724495   -3.058189    2.076320
     98          6           0       19.037082   -2.885837    1.445056
     99          6           0       15.603805   -1.448009    2.119228
    100          6           0       17.204620   -4.214203    2.987463
    101          8           0       17.842979   -5.239341    3.158138
    102          6           0       15.886097   -4.160076    3.690984
    103          7           0       21.867950   -2.554921    0.324224
    104          6           0       21.329213   -3.711243    0.878179
    105          6           0       22.394290   -4.855235    0.933609
    106          6           0       23.519130   -4.329734   -0.034334
    107          6           0       23.106133   -2.863982   -0.166121
    108          6           0       22.849377   -5.361624    2.341046
    109          6           0       23.549784   -5.036383   -1.417224
    110          6           0       24.886434   -5.349273   -2.041071
    111          7           0       22.580527    0.033153   -0.610735
    112          6           0       23.819598   -0.522719   -0.757957
    113          6           0       24.768804    0.542389   -1.305112
    114          6           0       24.021181    1.686718   -1.444036
    115          6           0       22.716764    1.349732   -0.943835
    116          6           0       26.198158    0.240855   -1.694304
    117          6           0       24.005090    3.088486   -1.822569
    118          8           0       24.996076    3.704325   -2.267754
    119          6           0       22.532372    3.695445   -1.419299
    120          6           0       22.550970    4.715974   -0.300496
    121          8           0       23.084664    4.453013    0.795349
    122          8           0       22.088778    5.967393   -0.710058
    123          6           0       22.490087    7.031247    0.203027
    124          1           0       16.699012    0.674777    0.892353
    125          1           0       19.781035   -4.736201    1.896246
    126          1           0       25.006527   -2.356787   -0.827735
    127          1           0       19.806541    4.222285   -0.067643
    128          1           0       17.329541    2.945632   -0.842262
    129          1           0       18.067041    4.238175    1.493271
    130          1           0       17.725571    2.585261    1.840027
    131          1           0       16.476362    3.697349    0.983088
    132          1           0       18.213040    3.696977   -2.490938
    133          1           0       19.885599    3.536631   -2.877358
    134          1           0       20.235076    5.779993   -2.874466
    135          1           0       19.448158    6.000731   -1.316703
    136          1           0       15.259941   -1.466685    3.152927
    137          1           0       14.976926   -2.254147    1.739793
    138          1           0       15.231776   -0.583699    1.568644
    139          1           0       15.145080   -4.082042    2.894526
    140          1           0       15.866477   -3.218019    4.239645
    141          1           0       15.845251   -5.057373    4.307200
    142          1           0       21.892759   -5.693957    0.450732
    143          1           0       24.504799   -4.312708    0.430114
    144          1           0       22.181401   -4.851822    3.034945
    145          1           0       23.907864   -5.210730    2.551096
    146          1           0       22.576827   -6.404094    2.510178
    147          1           0       23.018511   -4.269830   -1.981030
    148          1           0       22.951694   -5.945694   -1.480140
    149          1           0       24.788112   -6.354368   -2.451381
    150          1           0       25.701064   -5.379173   -1.316761
    151          1           0       24.965934   -4.700690   -2.913842
    152          1           0       26.376871   -0.810030   -1.467429
    153          1           0       26.854653    0.805550   -1.032687
    154          1           0       26.364014    0.532648   -2.731145
    155          1           0       22.064372    4.084020   -2.323785
    156          1           0       23.227308    7.729678   -0.190516
    157          1           0       22.859646    6.676887    1.165399
    158          1           0       21.585259    7.597963    0.421111
 ---------------------------------------------------------------------

 SCF Done:  E(RCAM-B3LYP) =  -4069.76969859     A.U. after   18 cycles

 Excitation energies and oscillator strengths:

 Excited State   1:      Singlet-A      1.6846 eV  735.99 nm  f=0.4052  <S**2>=0.000
     309 -> 315       -0.17392
     311 -> 313        0.68746
     309 <- 315       -0.10823
 This state for optimization and/or second-order correction.
 Total Energy, E(TD-HF/TD-DFT) =  -4069.70779100
 Copying the excited state density for this state as the 1-particle RhoCI density.

 Excited State   2:      Singlet-A      1.6980 eV  730.18 nm  f=0.4026  <S**2>=0.000
     310 -> 316       -0.17290
     312 -> 314        0.68768
     310 <- 316       -0.10774

 Excited State   3:      Singlet-A      2.2457 eV  552.10 nm  f=0.1077  <S**2>=0.000
     309 -> 313        0.63690
     311 -> 315        0.29189

 Excited State   4:      Singlet-A      2.2865 eV  542.24 nm  f=0.0917  <S**2>=0.000
     310 -> 314        0.63010
     312 -> 316        0.31286

 Excited State   5:      Singlet-A      3.0305 eV  409.13 nm  f=0.0000  <S**2>=0.000
     312 -> 313        0.70710

 The electronic state is 1-A.
 Alpha  occ. eigenvalues --  -46.89832 -46.88370 -19.26688 -19.25170 -19.20842
 Alpha  occ. eigenvalues --  -19.20781 -19.19916 -19.19726 -19.18535 -19.18292
 Alpha  occ. eigenvalues --  -14.42555 -14.42344 -14.42043 -14.41639 -14.40229
 Alpha  occ. eigenvalues --  -14.39673 -14.39356 -14.39113 -10.40824 -10.40120
 Alpha  occ. eigenvalues --  -10.36494 -10.36409 -10.34915 -10.34054 -10.31844
 Alpha  occ. eigenvalues --  -10.31733 -10.31651 -10.31580 -10.31499 -10.31220
 Alpha  occ. eigenvalues --  -10.31001 -10.30948 -10.30638 -10.30593 -10.30506
 Alpha  occ. eigenvalues --  -10.30324 -10.30110 -10.29943 -10.29771 -10.29685
 Alpha  occ. eigenvalues --  -10.29491 -10.29310 -10.29124 -10.28991 -10.28852
 Alpha  occ. eigenvalues --  -10.28678 -10.28550 -10.28543 -10.28540 -10.28514
 Alpha  occ. eigenvalues --  -10.28254 -10.28226 -10.28202 -10.28166 -10.28149
 Alpha  occ. eigenvalues --  -10.28036 -10.27842 -10.27704 -10.27683 -10.27654
 Alpha  occ. eigenvalues --  -10.27456 -10.27353 -10.27279 -10.27210 -10.27069
 Alpha  occ. eigenvalues --  -10.27065 -10.26932 -10.26893 -10.26730 -10.26496
 Alpha  occ. eigenvalues --  -10.26470 -10.26459 -10.26428 -10.26327 -10.26133
 Alpha  occ. eigenvalues --  -10.26132 -10.25911 -10.25887 -10.25728 -10.25709
 Alpha  occ. eigenvalues --  -10.25522 -10.25490 -10.25485 -10.25420 -10.25207
 Alpha  occ. eigenvalues --  -10.24664  -3.18250  -3.17022  -1.93100  -1.92760
 Alpha  occ. eigenvalues --   -1.92517  -1.91903  -1.91461  -1.91350  -1.16332
 Alpha  occ. eigenvalues --   -1.16119  -1.10830  -1.10321  -1.10099  -1.09031
 Alpha  occ. eigenvalues --   -1.08774  -1.07948  -1.04945  -1.03908  -1.03286
 Alpha  occ. eigenvalues --   -1.02947  -1.02633  -1.02417  -1.01873  -1.01628
 Alpha  occ. eigenvalues --   -0.92623  -0.92278  -0.89247  -0.89106  -0.88733
 Alpha  occ. eigenvalues --   -0.88406  -0.88217  -0.88023  -0.87318  -0.87218
 Alpha  occ. eigenvalues --   -0.86906  -0.86461  -0.86111  -0.85846  -0.84277
 Alpha  occ. eigenvalues --   -0.84125  -0.83653  -0.83401  -0.82733  -0.82708
 Alpha  occ. eigenvalues --   -0.82264  -0.81923  -0.81195  -0.81183  -0.80288
 Alpha  occ. eigenvalues --   -0.80222  -0.78421  -0.77868  -0.77599  -0.77364
 Alpha  occ. eigenvalues --   -0.76919  -0.76798  -0.76214  -0.76160  -0.74968
 Alpha  occ. eigenvalues --   -0.74695  -0.72695  -0.72439  -0.71378  -0.70961
 Alpha  occ. eigenvalues --   -0.69271  -0.68992  -0.68471  -0.68395  -0.67903
 Alpha  occ. eigenvalues --   -0.67490  -0.66707  -0.66541  -0.65951  -0.65330
 Alpha  occ. eigenvalues --   -0.64981  -0.64886  -0.64848  -0.64539  -0.64344
 Alpha  occ. eigenvalues --   -0.64129  -0.62860  -0.62583  -0.60279  -0.59763
 Alpha  occ. eigenvalues --   -0.59684  -0.59513  -0.59027  -0.58909  -0.58602
 Alpha  occ. eigenvalues --   -0.58514  -0.58323  -0.58042  -0.57499  -0.57310
 Alpha  occ. eigenvalues --   -0.56363  -0.56247  -0.55419  -0.55369  -0.55106
 Alpha  occ. eigenvalues --   -0.55001  -0.54915  -0.54872  -0.54039  -0.53762
 Alpha  occ. eigenvalues --   -0.53506  -0.53280  -0.53124  -0.52755  -0.52635
 Alpha  occ. eigenvalues --   -0.52590  -0.52481  -0.52446  -0.52125  -0.51822
 Alpha  occ. eigenvalues --   -0.51770  -0.51676  -0.51610  -0.51477  -0.51265
 Alpha  occ. eigenvalues --   -0.51124  -0.51072  -0.50834  -0.50816  -0.50238
 Alpha  occ. eigenvalues --   -0.50233  -0.50117  -0.49737  -0.49648  -0.49599
 Alpha  occ. eigenvalues --   -0.49363  -0.49251  -0.49181  -0.49146  -0.48796
 Alpha  occ. eigenvalues --   -0.48781  -0.48615  -0.48486  -0.48311  -0.48136
 Alpha  occ. eigenvalues --   -0.48048  -0.47945  -0.47923  -0.47341  -0.47227
 Alpha  occ. eigenvalues --   -0.47059  -0.47014  -0.46984  -0.46745  -0.46475
 Alpha  occ. eigenvalues --   -0.46456  -0.46205  -0.46011  -0.45956  -0.45938
 Alpha  occ. eigenvalues --   -0.45709  -0.45666  -0.45359  -0.45273  -0.44992
 Alpha  occ. eigenvalues --   -0.44797  -0.44560  -0.44545  -0.44319  -0.44132
 Alpha  occ. eigenvalues --   -0.44108  -0.44023  -0.44000  -0.43805  -0.43605
 Alpha  occ. eigenvalues --   -0.43565  -0.43415  -0.43190  -0.43143  -0.42988
 Alpha  occ. eigenvalues --   -0.42840  -0.42744  -0.42714  -0.42658  -0.42531
 Alpha  occ. eigenvalues --   -0.42227  -0.41715  -0.41695  -0.41459  -0.41111
 Alpha  occ. eigenvalues --   -0.41108  -0.41010  -0.40778  -0.40552  -0.40497
 Alpha  occ. eigenvalues --   -0.40167  -0.39834  -0.39491  -0.39124  -0.38684
 Alpha  occ. eigenvalues --   -0.38283  -0.38219  -0.37801  -0.37762  -0.37417
 Alpha  occ. eigenvalues --   -0.37405  -0.37101  -0.36732  -0.36408  -0.36264
 Alpha  occ. eigenvalues --   -0.36098  -0.35641  -0.35143  -0.34824  -0.34427
 Alpha  occ. eigenvalues --   -0.34295  -0.33313  -0.32875  -0.31614  -0.31542
 Alpha  occ. eigenvalues --   -0.31379  -0.31285  -0.30684  -0.30378  -0.30251
 Alpha  occ. eigenvalues --   -0.30003  -0.29770  -0.29206  -0.24349  -0.24160
 Alpha  occ. eigenvalues --   -0.21202  -0.20766
 Alpha virt. eigenvalues --   -0.08816  -0.08416  -0.01681  -0.01306  -0.00033
 Alpha virt. eigenvalues --    0.00359   0.01300   0.01797   0.02130   0.02339
 Alpha virt. eigenvalues --    0.02815   0.04534   0.04546   0.04634   0.05555

 Mulliken charges:
               1
     1  Mg  11.998774
     2  C    6.012387
     3  C    5.971413
     4  C    5.986180
     5  C    6.028745
     6  N    6.990925
     7  C    5.971178
     8  C    6.013967
     9  C    5.987602
    10  C    6.042821
    11  C    5.998547
    12  C    6.001645
    13  C    6.004335
    14  H    0.988520
    15  N    6.989772
    16  C    6.058491
    17  C    6.008818
    18  C    6.022439
    19  C    6.035138
    20  C    5.992684
    21  C    6.012415
    22  O    8.020869
    23  C    5.996074
    24  N    7.014867
    25  C    6.025734
    26  C    5.991171
    27  C    6.008645
    28  C    5.960785
    29  C    5.998620
    30  C    6.002319
    31  C    6.000952
    32  N    7.002780
    33  C    5.950645
    34  C    5.980074
    35  C    5.987825
    36  C    5.972133
    37  C    6.002751
    38  C    5.982760
    39  O    7.968865
    40  C    5.997430
    41  C    5.994482
    42  O    7.994897
    43  O    7.996802
    44  C    6.003208
    45  H    1.008565
    46  H    1.007837
    47  H    0.993234
    48  H    0.997245
    49  H    1.004033
    50  H    1.003224
    51  H    1.014333
    52  H    0.995596
    53  H    0.987548
    54  H    1.009322
    55  H    1.003326
    56  H    0.995846
    57  H    1.019333
    58  H    1.016811
    59  H    1.018985
    60  H    1.012085
    61  H    1.013250
    62  H    1.008387
    63  H    1.002415
    64  H    0.999097
    65  H    0.999856
    66  H    0.996003
    67  H    1.010873
    68  H    1.005127
    69  H    0.990947
    70  H    1.003630
    71  H    0.995744
    72  H    0.996627
    73  H    0.986243
    74  H    0.976953
    75  H    0.981113
    76  H    0.989556
    77  H    0.993553
    78  H    0.996922
    79  H    0.994894
    80  Mg  12.000111
    81  C    6.001354
    82  C    5.999085
    83  C    5.999111
    84  C    6.001069
    85  N    7.000345
    86  C    5.998113
    87  C    6.000520
    88  C    5.999343
    89  C    6.001568
    90  C    5.999948
    91  C    6.000216
    92  C    6.000112
    93  H    0.999580
    94  N    6.999638
    95  C    6.001996
    96  C    6.001039
    97  C    6.000503
    98  C    6.002014
    99  C    5.999623
   100  C    6.000602
   101  O    8.001045
   102  C    5.999903
   103  N    7.000043
   104  C    6.001461
   105  C    5.999599
   106  C    6.000458
   107  C    5.998461
   108  C    6.000060
   109  C    6.000081
   110  C    6.000115
   111  N    7.000148
   112  C    5.997801
   113  C    5.998622
   114  C    5.999894
   115  C    5.998188
   116  C    6.000234
   117  C    5.999192
   118  O    7.998627
   119  C    5.999690
   120  C    5.999749
   121  O    7.999838
   122  O    7.999874
   123  C    6.000174
   124  H    1.000462
   125  H    1.000346
   126  H    0.999521
   127  H    0.999913
   128  H    1.000312
   129  H    1.000590
   130  H    0.999692
   131  H    1.000198
   132  H    0.999486
   133  H    1.000160
   134  H    1.000124
   135  H    0.999932
   136  H    1.001202
   137  H    1.000985
   138  H    1.000989
   139  H    1.000300
   140  H    1.000276
   141  H    1.000701
   142  H    0.999987
   143  H    0.999998
   144  H    0.999785
   145  H    1.000524
   146  H    1.000064
   147  H    1.000045
   148  H    0.999398
   149  H    0.999719
   150  H    0.999922
   151  H    1.000166
   152  H    0.999041
   153  H    0.998998
   154  H    0.999040
   155  H    0.999591
   156  H    0.999823
   157  H    0.999845
   158  H    0.999718
 Sum of Mulliken charges = 624.00000

 Dipole moment (field-independent basis, Debye):
    X=             -7.7999    Y=             -4.0800    Z=             -7.0256  Tot=             11.2625
 Quadrupole moment (field-independent basis, Debye-Ang):
   XX=            297.2138   YY=             -1.1663   ZZ=              2.9280
   XY=             79.1069   XZ=            162.9819   YZ=             -0.1942

 Normal termination of Gaussian 16 at Wed Sep 22 06:34:28 2021.
