 Gaussian 16, Revision A.03,
 Gaussian 16:  ES64L-G16RevA.03 25-Dec-2016

 -----------------------------------
 #p cam-b3lyp/Def2SVP td=(nstates=5)
 -----------------------------------

 --------------------------------
 TDDFT excited states in gaussian
 --------------------------------
 Symbolic Z-matrix:
 Charge =  0 Multiplicity = 1

                         Standard orientation:
 ---------------------------------------------------------------------
 Center     Atomic      Atomic             Coordinates (Angstroms)
 Number     Number       Type             X           Y           Z
 ---------------------------------------------------------------------
      1         12           0       26.459080    0.279393    0.188099
      2          6           0       23.688137   -1.800133   -0.380871
      3          6           0       27.727827   -0.748961   -2.791012
      4          6           0       28.742891    2.575298    0.645724
      5          6           0       24.456569    1.749660    2.794758
      6          7           0       25.801520   -1.148998   -1.328375
      7          6           0       24.641046   -1.868639   -1.375801
      8          6           0       24.495738   -2.452203   -2.789196
      9          6           0       25.949940   -2.556511   -3.235411
     10          6           0       26.500988   -1.341681   -2.464390
     11          6           0       26.624231   -3.873612   -2.786844
     12          6           0       23.650556   -1.504297   -3.718182
     13          6           0       22.216639   -2.017561   -4.231636
     14          1           0       20.956747   -1.224109   -3.845403
     15          7           0       27.988372    0.879040   -0.943485
     16          6           0       28.371946    0.316147   -2.139033
     17          6           0       29.618552    0.899040   -2.525877
     18          6           0       30.051909    1.806117   -1.503041
     19          6           0       28.923842    1.807535   -0.527058
     20          6           0       30.366886    0.528870   -3.852103
     21          6           0       31.432064    2.558231   -1.493786
     22          8           0       32.247053    2.321916   -2.331667
     23          6           0       31.795131    3.319966   -0.304983
     24          7           0       26.436739    2.132943    1.332193
     25          6           0       27.677286    2.624003    1.564335
     26          6           0       27.806197    3.313040    2.912496
     27          6           0       26.370128    3.371535    3.410396
     28          6           0       25.678059    2.347289    2.445304
     29          6           0       28.749734    2.542142    3.908148
     30          6           0       25.606129    4.777735    3.455805
     31          6           0       25.304297    5.479833    4.752542
     32          7           0       24.606239   -0.064592    1.180350
     33          6           0       23.925797    0.599507    2.209055
     34          6           0       22.622744    0.018280    2.449571
     35          6           0       22.510852   -0.940211    1.472558
     36          6           0       23.710368   -0.968944    0.687614
     37          6           0       21.659649    0.468488    3.467744
     38          6           0       21.622895   -1.956268    0.928631
     39          8           0       20.523781   -2.345811    1.342084
     40          6           0       22.379420   -2.617938   -0.203921
     41          6           0       22.562488   -4.084643    0.170655
     42          8           0       23.147732   -4.403428    1.203151
     43          8           0       21.882815   -4.933628   -0.716595
     44          6           0       21.985011   -6.333565   -0.401875
     45          1           0       28.178571   -1.214746   -3.669476
     46          1           0       29.666165    3.083854    0.927526
     47          1           0       23.904421    2.128477    3.657600
     48          1           0       23.901499   -3.361174   -2.692353
     49          1           0       25.977838   -2.455383   -4.319635
     50          1           0       27.046195   -4.173409   -3.745463
     51          1           0       25.800487   -4.503463   -2.449765
     52          1           0       27.379558   -3.798987   -2.004439
     53          1           0       24.232650   -1.340209   -4.624931
     54          1           0       23.584147   -0.534287   -3.226102
     55          1           0       22.075845   -2.989897   -3.758969
     56          1           0       22.155879   -2.198433   -5.304142
     57          1           0       30.705114    1.342577   -4.492906
     58          1           0       29.666236   -0.082910   -4.421292
     59          1           0       31.250233   -0.086037   -3.678868
     60          1           0       31.094279    4.114529   -0.047980
     61          1           0       32.780430    3.757366   -0.465904
     62          1           0       32.028773    2.644024    0.516439
     63          1           0       28.267892    4.298127    2.837273
     64          1           0       26.296525    2.928135    4.403426
     65          1           0       29.758693    2.951977    3.951114
     66          1           0       28.699493    1.472787    3.703129
     67          1           0       28.328772    2.668419    4.906651
     68          1           0       24.735425    4.908882    2.814232
     69          1           0       26.401941    5.338848    2.965249
     70          1           0       25.850416    6.414184    4.878415
     71          1           0       25.576009    4.834546    5.588283
     72          1           0       24.228104    5.648575    4.722385
     73          1           0       21.867199    1.517828    3.679042
     74          1           0       21.895641   -0.105152    4.364489
     75          1           0       20.634247    0.257336    3.167787
     76          1           0       21.679427   -2.532004   -1.033918
     77          1           0       22.938374   -6.790511   -0.668549
     78          1           0       21.210931   -6.914205   -0.902841
     79          1           0       21.834412   -6.569728    0.651174
     80         12           0      -26.360129    0.619770    0.017329
     81          6           0      -23.457037   -1.302021    0.528938
     82          6           0      -28.212628   -2.217705    0.796801
     83          6           0      -29.058145    2.378475   -0.792139
     84          6           0      -24.347253    3.132666   -1.571435
     85          7           0      -25.895558   -1.490645    0.564286
     86          6           0      -24.614277   -1.993464    0.830683
     87          6           0      -24.738911   -3.257832    1.660514
     88          6           0      -26.223457   -3.695293    1.507349
     89          6           0      -26.822333   -2.380859    0.922154
     90          6           0      -26.482013   -4.999396    0.689301
     91          6           0      -24.258716   -3.115446    3.146425
     92          6           0      -23.653391   -4.451013    3.766560
     93          1           0      -23.654644   -5.708957    2.893872
     94          7           0      -28.295168    0.193634    0.126126
     95          6           0      -28.870555   -0.995003    0.541123
     96          6           0      -30.298226   -0.872395    0.607819
     97          6           0      -30.589052    0.405771    0.032231
     98          6           0      -29.304638    1.044605   -0.192668
     99          6           0      -31.245463   -2.028693    1.051574
    100          6           0      -31.918437    1.008278   -0.285684
    101          8           0      -32.015357    2.076892   -0.935029
    102          6           0      -33.343889    0.454867    0.008189
    103          7           0      -26.702679    2.355057   -1.268537
    104          6           0      -27.913320    2.939326   -1.345106
    105          6           0      -27.788538    4.371910   -1.921991
    106          6           0      -26.299332    4.612535   -2.194261
    107          6           0      -25.722873    3.261614   -1.579602
    108          6           0      -28.754282    4.608893   -3.042767
    109          6           0      -25.669480    5.885717   -1.589587
    110          6           0      -25.756769    5.999470   -0.047633
    111          7           0      -24.309284    0.899066   -0.518917
    112          6           0      -23.674671    1.998485   -0.988305
    113          6           0      -22.242263    1.760280   -0.817521
    114          6           0      -22.053786    0.491850   -0.200666
    115          6           0      -23.362038   -0.035741   -0.076035
    116          6           0      -21.131236    2.764380   -1.112988
    117          6           0      -21.092603   -0.441564    0.293606
    118          8           0      -19.877825   -0.401681    0.469927
    119          6           0      -22.010246   -1.750204    0.759248
    120          6           0      -21.488749   -2.995711    0.067588
    121          8           0      -21.758325   -3.290172   -1.080379
    122          8           0      -20.768148   -3.776750    0.942336
    123          6           0      -19.874530   -4.797895    0.405435
    124          1           0      -28.687368   -3.123493    1.179234
    125          1           0      -29.978203    2.945450   -0.946803
    126          1           0      -23.797136    3.997361   -1.947645
    127          1           0      -24.103574   -4.033069    1.232445
    128          1           0      -26.617276   -3.834767    2.513691
    129          1           0      -27.169250   -4.655954   -0.083180
    130          1           0      -27.035736   -5.724796    1.286574
    131          1           0      -25.649718   -5.505177    0.199898
    132          1           0      -25.090065   -2.889666    3.813525
    133          1           0      -23.555213   -2.285941    3.205217
    134          1           0      -24.301729   -4.746895    4.591456
    135          1           0      -22.639643   -4.223009    4.094945
    136          1           0      -32.129855   -1.990294    0.414417
    137          1           0      -31.590888   -1.916576    2.078743
    138          1           0      -30.910560   -3.065847    1.056755
    139          1           0      -33.464522    0.249317    1.072189
    140          1           0      -33.584368   -0.420727   -0.594748
    141          1           0      -34.132013    1.206236   -0.023500
    142          1           0      -28.215635    5.026252   -1.163126
    143          1           0      -26.189329    4.467402   -3.269520
    144          1           0      -29.624948    5.188688   -2.735802
    145          1           0      -29.048331    3.657676   -3.486706
    146          1           0      -28.327775    5.137514   -3.895992
    147          1           0      -26.270198    6.686533   -2.021269
    148          1           0      -24.634106    5.984823   -1.916938
    149          1           0      -24.722823    6.053473    0.292561
    150          1           0      -26.257238    5.097799    0.305492
    151          1           0      -26.383866    6.817121    0.308089
    152          1           0      -20.370225    2.788925   -0.333530
    153          1           0      -21.505238    3.787753   -1.102600
    154          1           0      -20.750921    2.561785   -2.114572
    155          1           0      -21.798667   -1.856959    1.823480
    156          1           0      -20.395922   -5.252416   -0.437391
    157          1           0      -19.620731   -5.596691    1.102380
    158          1           0      -18.950147   -4.274496    0.161036
 ---------------------------------------------------------------------

 SCF Done:  E(RCAM-B3LYP) =  -4069.82189257     A.U. after   17 cycles

 Excitation energies and oscillator strengths:

 Excited State   1:      Singlet-A      1.6591 eV  747.31 nm  f=0.4080  <S**2>=0.000
     310 -> 316        0.16730
     311 -> 313        0.68825
     310 <- 316        0.10534
 This state for optimization and/or second-order correction.
 Total Energy, E(TD-HF/TD-DFT) =  -4069.76092249
 Copying the excited state density for this state as the 1-particle RhoCI density.

 Excited State   2:      Singlet-A      1.7237 eV  719.28 nm  f=0.3587  <S**2>=0.000
     309 -> 315        0.19170
     312 -> 314        0.68302
     309 <- 315        0.11115

 Excited State   3:      Singlet-A      2.1919 eV  565.65 nm  f=0.1544  <S**2>=0.000
     310 -> 313        0.65721
     311 -> 316       -0.24506

 Excited State   4:      Singlet-A      2.2830 eV  543.07 nm  f=0.0523  <S**2>=0.000
     309 -> 314        0.60483
     312 -> 315       -0.35602

 Excited State   5:      Singlet-A      3.0231 eV  410.13 nm  f=0.0000  <S**2>=0.000
     312 -> 313        0.70710

 The electronic state is 1-A.
 Alpha  occ. eigenvalues --  -46.88889 -46.88684 -19.26020 -19.24234 -19.20576
 Alpha  occ. eigenvalues --  -19.19338 -19.19235 -19.19090 -19.18757 -19.18345
 Alpha  occ. eigenvalues --  -14.42531 -14.42134 -14.42075 -14.41413 -14.40254
 Alpha  occ. eigenvalues --  -14.39382 -14.39359 -14.39345 -10.40246 -10.39096
 Alpha  occ. eigenvalues --  -10.35567 -10.35459 -10.35053 -10.34562 -10.31522
 Alpha  occ. eigenvalues --  -10.31502 -10.31390 -10.31132 -10.31125 -10.30917
 Alpha  occ. eigenvalues --  -10.30832 -10.30780 -10.30712 -10.30653 -10.30547
 Alpha  occ. eigenvalues --  -10.30449 -10.30332 -10.29833 -10.29790 -10.29536
 Alpha  occ. eigenvalues --  -10.29497 -10.29287 -10.29271 -10.29018 -10.28611
 Alpha  occ. eigenvalues --  -10.28407 -10.28223 -10.28182 -10.28160 -10.28134
 Alpha  occ. eigenvalues --  -10.28075 -10.27957 -10.27926 -10.27884 -10.27872
 Alpha  occ. eigenvalues --  -10.27834 -10.27815 -10.27813 -10.27540 -10.27504
 Alpha  occ. eigenvalues --  -10.27500 -10.27455 -10.27437 -10.27251 -10.26926
 Alpha  occ. eigenvalues --  -10.26896 -10.26872 -10.26866 -10.26861 -10.26850
 Alpha  occ. eigenvalues --  -10.26707 -10.26572 -10.26433 -10.26315 -10.26239
 Alpha  occ. eigenvalues --  -10.26228 -10.26226 -10.26052 -10.25999 -10.25693
 Alpha  occ. eigenvalues --  -10.25598 -10.25579 -10.25506 -10.25273 -10.25133
 Alpha  occ. eigenvalues --  -10.24889  -3.17460  -3.17294  -1.92330  -1.92168
 Alpha  occ. eigenvalues --   -1.91915  -1.91773  -1.91765  -1.91593  -1.15961
 Alpha  occ. eigenvalues --   -1.15426  -1.11908  -1.09427  -1.09101  -1.08395
 Alpha  occ. eigenvalues --   -1.08218  -1.07433  -1.04780  -1.04310  -1.04273
 Alpha  occ. eigenvalues --   -1.03449  -1.03197  -1.02856  -1.02095  -1.02072
 Alpha  occ. eigenvalues --   -0.93043  -0.92168  -0.89191  -0.89150  -0.88968
 Alpha  occ. eigenvalues --   -0.88531  -0.88505  -0.88129  -0.87611  -0.87350
 Alpha  occ. eigenvalues --   -0.87104  -0.86782  -0.85296  -0.84996  -0.84606
 Alpha  occ. eigenvalues --   -0.84235  -0.83799  -0.83318  -0.82583  -0.82519
 Alpha  occ. eigenvalues --   -0.82167  -0.81047  -0.81034  -0.80853  -0.80608
 Alpha  occ. eigenvalues --   -0.80022  -0.78690  -0.78001  -0.77224  -0.76932
 Alpha  occ. eigenvalues --   -0.76753  -0.76397  -0.76309  -0.75818  -0.75104
 Alpha  occ. eigenvalues --   -0.74968  -0.72885  -0.72523  -0.72121  -0.71066
 Alpha  occ. eigenvalues --   -0.69908  -0.69118  -0.69029  -0.68615  -0.68315
 Alpha  occ. eigenvalues --   -0.68152  -0.67508  -0.66774  -0.65869  -0.65596
 Alpha  occ. eigenvalues --   -0.65199  -0.64895  -0.64864  -0.64453  -0.64134
 Alpha  occ. eigenvalues --   -0.64115  -0.62717  -0.61614  -0.60889  -0.60247
 Alpha  occ. eigenvalues --   -0.60046  -0.59470  -0.59117  -0.58886  -0.58776
 Alpha  occ. eigenvalues --   -0.58496  -0.58054  -0.57678  -0.57400  -0.56934
 Alpha  occ. eigenvalues --   -0.56236  -0.56071  -0.55880  -0.55744  -0.55287
 Alpha  occ. eigenvalues --   -0.54972  -0.54903  -0.54725  -0.53948  -0.53924
 Alpha  occ. eigenvalues --   -0.53538  -0.53456  -0.53195  -0.53031  -0.52995
 Alpha  occ. eigenvalues --   -0.52781  -0.52759  -0.52677  -0.52527  -0.52331
 Alpha  occ. eigenvalues --   -0.52187  -0.51970  -0.51744  -0.51302  -0.51010
 Alpha  occ. eigenvalues --   -0.51007  -0.50890  -0.50702  -0.50457  -0.50137
 Alpha  occ. eigenvalues --   -0.50000  -0.49824  -0.49642  -0.49498  -0.49295
 Alpha  occ. eigenvalues --   -0.49261  -0.49187  -0.49079  -0.49010  -0.48749
 Alpha  occ. eigenvalues --   -0.48678  -0.48587  -0.48334  -0.48170  -0.48087
 Alpha  occ. eigenvalues --   -0.47856  -0.47733  -0.47512  -0.47398  -0.47124
 Alpha  occ. eigenvalues --   -0.46664  -0.46589  -0.46357  -0.46344  -0.46289
 Alpha  occ. eigenvalues --   -0.46276  -0.46133  -0.45965  -0.45813  -0.45444
 Alpha  occ. eigenvalues --   -0.45423  -0.45336  -0.45185  -0.44700  -0.44531
 Alpha  occ. eigenvalues --   -0.44437  -0.44304  -0.44220  -0.44152  -0.44058
 Alpha  occ. eigenvalues --   -0.43980  -0.43853  -0.43557  -0.43384  -0.43292
 Alpha  occ. eigenvalues --   -0.43116  -0.43061  -0.43026  -0.42621  -0.42574
 Alpha  occ. eigenvalues --   -0.42402  -0.42396  -0.42133  -0.41965  -0.41906
 Alpha  occ. eigenvalues --   -0.41829  -0.41725  -0.41590  -0.41584  -0.41514
 Alpha  occ. eigenvalues --   -0.41074  -0.40865  -0.40715  -0.40715  -0.40585
 Alpha  occ. eigenvalues --   -0.40370  -0.40080  -0.40030  -0.39615  -0.39224
 Alpha  occ. eigenvalues --   -0.38964  -0.38662  -0.37986  -0.37784  -0.37616
 Alpha  occ. eigenvalues --   -0.37460  -0.37138  -0.36804  -0.36681  -0.36521
 Alpha  occ. eigenvalues --   -0.36292  -0.35946  -0.34842  -0.34707  -0.33992
 Alpha  occ. eigenvalues --   -0.33724  -0.33478  -0.33040  -0.31450  -0.31402
 Alpha  occ. eigenvalues --   -0.31208  -0.30941  -0.30774  -0.30719  -0.30278
 Alpha  occ. eigenvalues --   -0.30144  -0.29648  -0.29472  -0.24389  -0.24104
 Alpha  occ. eigenvalues --   -0.21365  -0.20990
 Alpha virt. eigenvalues --   -0.09226  -0.08315  -0.02223  -0.01392  -0.00032
 Alpha virt. eigenvalues --    0.00504   0.01377   0.01832   0.02185   0.02745
 Alpha virt. eigenvalues --    0.04206   0.05019   0.05228   0.05406   0.05881

 Mulliken charges:
               1
     1  Mg   0.819035
     2  C   -0.027520
     3  C   -0.090331
     4  C   -0.046288
     5  C   -0.087363
     6  N   -0.261345
     7  C   -0.073416
     8  C   -0.067269
     9  C   -0.064313
    10  C    0.017951
    11  C    0.108031
    12  C    0.065013
    13  C   -0.081536
    14  H    0.029428
    15  N   -0.432457
    16  C    0.196300
    17  C   -0.155245
    18  C   -0.066225
    19  C    0.129220
    20  C    0.128365
    21  C    0.011622
    22  O   -0.165227
    23  C    0.046966
    24  N   -0.260905
    25  C    0.045589
    26  C   -0.043764
    27  C   -0.029947
    28  C    0.049942
    29  C    0.066784
    30  C    0.022702
    31  C    0.021381
    32  N   -0.342426
    33  C    0.111619
    34  C   -0.193847
    35  C    0.033646
    36  C    0.152508
    37  C    0.142368
    38  C    0.016959
    39  O   -0.185130
    40  C    0.043552
    41  C    0.222872
    42  O   -0.216011
    43  O   -0.330686
    44  C    0.180774
    45  H   -0.024264
    46  H   -0.052574
    47  H   -0.027315
    48  H   -0.005471
    49  H   -0.002400
    50  H    0.020553
    51  H    0.016882
    52  H    0.032961
    53  H    0.008335
    54  H    0.031382
    55  H    0.028585
    56  H    0.035484
    57  H    0.032223
    58  H   -0.009167
    59  H    0.027803
    60  H    0.050343
    61  H    0.014666
    62  H    0.046894
    63  H    0.006556
    64  H    0.001273
    65  H    0.023823
    66  H    0.019666
    67  H    0.008305
    68  H    0.019329
    69  H   -0.007800
    70  H    0.021957
    71  H    0.005684
    72  H    0.020202
    73  H    0.016093
    74  H    0.034078
    75  H    0.041600
    76  H    0.030832
    77  H    0.024036
    78  H    0.031521
    79  H    0.036553
    80  Mg   0.835493
    81  C    0.031256
    82  C   -0.057078
    83  C   -0.053492
    84  C   -0.058928
    85  N   -0.269265
    86  C   -0.044982
    87  C    0.001999
    88  C   -0.047178
    89  C   -0.014819
    90  C    0.074623
    91  C    0.034733
    92  C   -0.076607
    93  H    0.020634
    94  N   -0.405717
    95  C    0.178231
    96  C   -0.125156
    97  C   -0.000869
    98  C    0.109737
    99  C    0.101761
   100  C   -0.004294
   101  O   -0.244053
   102  C    0.051040
   103  N   -0.270205
   104  C    0.053246
   105  C   -0.078192
   106  C    0.027886
   107  C   -0.007789
   108  C    0.069552
   109  C    0.031244
   110  C    0.009335
   111  N   -0.344255
   112  C    0.135696
   113  C   -0.189172
   114  C    0.048250
   115  C    0.088869
   116  C    0.113940
   117  C    0.043020
   118  O   -0.170918
   119  C   -0.068846
   120  C    0.209051
   121  O   -0.207542
   122  O   -0.347377
   123  C    0.172010
   124  H   -0.027409
   125  H   -0.004068
   126  H   -0.028296
   127  H    0.008163
   128  H    0.006974
   129  H    0.010110
   130  H    0.012674
   131  H    0.036577
   132  H    0.005602
   133  H    0.014514
   134  H    0.032432
   135  H    0.046735
   136  H    0.016009
   137  H    0.027832
   138  H    0.023618
   139  H    0.009455
   140  H    0.052509
   141  H    0.022980
   142  H    0.010392
   143  H    0.009999
   144  H    0.021264
   145  H    0.019814
   146  H   -0.000309
   147  H    0.007275
   148  H    0.015371
   149  H    0.024413
   150  H    0.019930
   151  H    0.019846
   152  H    0.034830
   153  H   -0.002157
   154  H    0.035983
   155  H    0.036142
   156  H    0.043645
   157  H    0.035906
   158  H    0.046374
 Sum of Mulliken charges =  -0.00000

 Dipole moment (field-independent basis, Debye):
    X=             -1.4060    Y=             -0.1714    Z=              4.8528  Tot=              5.0553
 Quadrupole moment (field-independent basis, Debye-Ang):
   XX=           -311.1670   YY=           -462.4437   ZZ=           -496.2048
   XY=             53.4816   XZ=            -56.1077   YZ=             18.2310

 Normal termination of Gaussian 16 at Fri Sep  3 00:38:58 2021.
