 Gaussian 16, Revision A.03,
 Gaussian 16:  ES64L-G16RevA.03 25-Dec-2016

 -----------------------------------
 #p cam-b3lyp/Def2SVP td=(nstates=5)
 -----------------------------------

 --------------------------------
 TDDFT excited states in gaussian
 --------------------------------
 Symbolic Z-matrix:
 Charge =  0 Multiplicity = 1

                         Standard orientation:
 ---------------------------------------------------------------------
 Center     Atomic      Atomic             Coordinates (Angstroms)
 Number     Number       Type             X           Y           Z
 ---------------------------------------------------------------------
      1         12           0       11.330245   -0.895010   -0.102240
      2          6           0       10.211050    2.405343   -0.528096
      3          6           0       12.685407    0.044156    2.868253
      4          6           0       11.918552   -4.079141    0.357762
      5          6           0        9.090634   -1.697762   -2.805227
      6          7           0       11.475733    1.005570    0.965002
      7          6           0       10.937568    2.215651    0.628970
      8          6           0       11.026236    3.137229    1.854604
      9          6           0       12.231099    2.562595    2.591348
     10          6           0       12.054095    1.088426    2.179722
     11          6           0       13.574872    3.140012    2.089849
     12          6           0        9.711365    3.075062    2.716649
     13          6           0        8.790349    4.389496    2.801425
     14          1           0        7.344000    4.323262    2.282043
     15          7           0       12.131810   -1.892479    1.427904
     16          6           0       12.659271   -1.327954    2.566505
     17          6           0       13.306910   -2.358894    3.315614
     18          6           0       13.232757   -3.590161    2.583997
     19          6           0       12.400179   -3.248016    1.394531
     20          6           0       14.009612   -2.109166    4.693929
     21          6           0       13.927954   -4.933522    3.011396
     22          8           0       14.652222   -4.956614    3.958498
     23          6           0       13.894612   -6.054719    2.080206
     24          7           0       10.353806   -2.674529   -0.892795
     25          6           0       11.104662   -3.793064   -0.754658
     26          6           0       10.936399   -4.773179   -1.903565
     27          6           0        9.777180   -4.185209   -2.693580
     28          6           0        9.712725   -2.737047   -2.095153
     29          6           0       12.236100   -4.923318   -2.777694
     30          6           0        8.353655   -4.917489   -2.671304
     31          6           0        7.822223   -5.664284   -3.865226
     32          7           0       10.106118    0.107200   -1.528073
     33          6           0        9.263786   -0.335583   -2.556023
     34          6           0        8.556044    0.763071   -3.177056
     35          6           0        8.925748    1.851666   -2.426018
     36          6           0        9.849353    1.442491   -1.408505
     37          6           0        7.604824    0.645735   -4.294341
     38          6           0        8.734774    3.285971   -2.274379
     39          8           0        8.099062    4.075886   -2.983351
     40          6           0        9.628402    3.713758   -1.129284
     41          6           0       10.650798    4.693334   -1.695131
     42          8           0       11.402995    4.362032   -2.608707
     43          8           0       10.503118    5.973548   -1.139082
     44          6           0       11.416007    6.958663   -1.654347
     45          1           0       13.240505    0.410591    3.733942
     46          1           0       12.405264   -5.055404    0.380049
     47          1           0        8.501266   -1.936082   -3.693324
     48          1           0       11.070905    4.158368    1.475120
     49          1           0       12.098579    2.754720    3.655338
     50          1           0       14.004302    3.409933    3.054014
     51          1           0       13.294291    3.995938    1.475395
     52          1           0       14.218043    2.468624    1.520802
     53          1           0       10.010435    2.873405    3.745163
     54          1           0        9.146194    2.201376    2.393033
     55          1           0        9.274614    5.119329    2.152191
     56          1           0        8.748039    4.852162    3.786731
     57          1           0       13.761962   -2.772501    5.522060
     58          1           0       13.737623   -1.092627    4.979991
     59          1           0       15.097107   -2.133729    4.622000
     60          1           0       12.891661   -6.386174    1.810392
     61          1           0       14.432847   -6.889350    2.529343
     62          1           0       14.545723   -5.855471    1.230161
     63          1           0       10.742074   -5.790328   -1.561714
     64          1           0       10.060176   -4.054023   -3.738008
     65          1           0       12.827708   -5.802662   -2.523601
     66          1           0       12.788843   -3.983890   -2.772519
     67          1           0       11.910392   -5.065136   -3.809181
     68          1           0        7.511309   -4.387010   -2.228598
     69          1           0        8.637032   -5.662541   -1.927392
     70          1           0        7.743810   -6.739276   -3.706022
     71          1           0        8.488101   -5.513780   -4.715309
     72          1           0        6.845788   -5.216697   -4.049111
     73          1           0        7.192314   -0.363347   -4.273649
     74          1           0        8.206056    0.741615   -5.198904
     75          1           0        6.863008    1.442739   -4.271944
     76          1           0        8.934151    4.239392   -0.475073
     77          1           0       12.430642    6.886863   -1.261697
     78          1           0       11.072471    7.971312   -1.444979
     79          1           0       11.523016    6.948737   -2.738698
     80         12           0      -11.241020   -0.561392    0.370157
     81          6           0       -8.679398    1.812239    0.424555
     82          6           0      -11.136666   -0.331306   -3.127070
     83          6           0      -14.037416   -2.386512    0.150863
     84          6           0      -11.868418    0.129982    3.682509
     85          7           0       -9.949442    0.549451   -1.238344
     86          6           0       -9.032615    1.488062   -0.882161
     87          6           0       -8.385199    2.145212   -2.165054
     88          6           0       -9.390151    1.609184   -3.305170
     89          6           0      -10.246336    0.585702   -2.540545
     90          6           0      -10.318833    2.808634   -3.709976
     91          6           0       -6.951322    1.522105   -2.337615
     92          6           0       -6.152108    1.909440   -3.611602
     93          1           0       -5.352168    1.030519   -4.526450
     94          7           0      -12.267094   -1.399118   -1.248731
     95          6           0      -12.075905   -1.241403   -2.631578
     96          6           0      -13.060575   -1.992737   -3.289487
     97          6           0      -13.786364   -2.739982   -2.371500
     98          6           0      -13.371064   -2.194572   -1.089694
     99          6           0      -13.081103   -2.060474   -4.781460
    100          6           0      -14.932250   -3.784682   -2.578220
    101          8           0      -15.493459   -4.397264   -1.676152
    102          6           0      -15.318525   -4.303265   -3.966096
    103          7           0      -12.780288   -0.943243    1.707235
    104          6           0      -13.741649   -1.845703    1.409591
    105          6           0      -14.579949   -2.280266    2.627696
    106          6           0      -13.976417   -1.368483    3.731854
    107          6           0      -12.743602   -0.770730    3.077900
    108          6           0      -16.126985   -2.259096    2.393496
    109          6           0      -13.695676   -2.017627    5.114817
    110          6           0      -12.520565   -2.896316    5.200867
    111          7           0      -10.415765    0.621971    1.829468
    112          6           0      -10.748994    0.803487    3.086290
    113          6           0       -9.791193    1.663132    3.789328
    114          6           0       -8.942321    2.069463    2.710626
    115          6           0       -9.374273    1.454063    1.552032
    116          6           0       -9.491474    1.733133    5.213527
    117          6           0       -7.767109    2.870377    2.415615
    118          8           0       -7.016653    3.471424    3.150476
    119          6           0       -7.621742    2.770287    0.892305
    120          6           0       -7.639366    4.150917    0.227877
    121          8           0       -8.636382    4.793419    0.023680
    122          8           0       -6.348446    4.553354   -0.018321
    123          6           0       -6.283126    5.881329   -0.670852
    124          1           0      -11.007651   -0.349768   -4.210471
    125          1           0      -14.822895   -3.145448    0.154285
    126          1           0      -12.190574    0.061182    4.722987
    127          1           0       -8.419173    3.234676   -2.139256
    128          1           0       -8.898551    1.197535   -4.187514
    129          1           0      -11.344847    2.775115   -3.344945
    130          1           0      -10.574168    2.775533   -4.769416
    131          1           0       -9.919009    3.787002   -3.444218
    132          1           0       -7.061950    0.439627   -2.279541
    133          1           0       -6.386146    1.777400   -1.440825
    134          1           0       -5.538560    2.749651   -3.285157
    135          1           0       -6.963314    2.250536   -4.253609
    136          1           0      -12.339415   -1.446325   -5.292868
    137          1           0      -14.113198   -1.922867   -5.106763
    138          1           0      -12.801893   -3.092998   -4.993102
    139          1           0      -15.779597   -3.549412   -4.604327
    140          1           0      -15.907435   -5.220608   -3.961365
    141          1           0      -14.393801   -4.648237   -4.429057
    142          1           0      -14.222268   -3.308219    2.679645
    143          1           0      -14.700632   -0.559640    3.828763
    144          1           0      -16.365951   -2.447783    1.347408
    145          1           0      -16.516226   -1.276053    2.659781
    146          1           0      -16.650184   -3.030837    2.958481
    147          1           0      -14.608749   -2.591777    5.268967
    148          1           0      -13.693140   -1.248618    5.887535
    149          1           0      -11.628098   -2.293001    5.366282
    150          1           0      -12.440510   -3.532329    4.319504
    151          1           0      -12.559512   -3.543012    6.077937
    152          1           0       -9.801793    0.765551    5.608682
    153          1           0      -10.035895    2.431718    5.849085
    154          1           0       -8.422025    1.924716    5.294494
    155          1           0       -6.676326    2.268616    0.683251
    156          1           0       -5.397093    6.399698   -0.304812
    157          1           0       -7.049751    6.598823   -0.377532
    158          1           0       -6.171339    5.780979   -1.749962
 ---------------------------------------------------------------------

 SCF Done:  E(RCAM-B3LYP) =  -4069.82904261     A.U. after   18 cycles

 Excitation energies and oscillator strengths:

 Excited State   1:      Singlet-A      1.7236 eV  719.35 nm  f=0.3755  <S**2>=0.000
     309 -> 315       -0.19155
     312 -> 314        0.68260
     309 <- 315       -0.11107
 This state for optimization and/or second-order correction.
 Total Energy, E(TD-HF/TD-DFT) =  -4069.76570322
 Copying the excited state density for this state as the 1-particle RhoCI density.

 Excited State   2:      Singlet-A      1.7448 eV  710.60 nm  f=0.3736  <S**2>=0.000
     310 -> 316        0.18598
     311 -> 313        0.68341
     310 <- 316        0.10693

 Excited State   3:      Singlet-A      2.2618 eV  548.17 nm  f=0.1159  <S**2>=0.000
     310 -> 313        0.64505
     311 -> 316       -0.27669

 Excited State   4:      Singlet-A      2.2829 eV  543.10 nm  f=0.0520  <S**2>=0.000
     309 -> 314        0.60485
     312 -> 315        0.35595

 Excited State   5:      Singlet-A      3.0227 eV  410.17 nm  f=0.0000  <S**2>=0.000
     312 -> 313        0.70707

 The electronic state is 1-A.
 Alpha  occ. eigenvalues --  -46.88677 -46.88673 -19.26013 -19.25715 -19.20570
 Alpha  occ. eigenvalues --  -19.20354 -19.19408 -19.19084 -19.18790 -19.18752
 Alpha  occ. eigenvalues --  -14.42209 -14.42128 -14.42065 -14.41029 -14.39374
 Alpha  occ. eigenvalues --  -14.39339 -14.39113 -14.39103 -10.40240 -10.39720
 Alpha  occ. eigenvalues --  -10.36143 -10.35046 -10.34557 -10.34465 -10.31730
 Alpha  occ. eigenvalues --  -10.31497 -10.31127 -10.31121 -10.31038 -10.30820
 Alpha  occ. eigenvalues --  -10.30648 -10.30599 -10.30538 -10.30537 -10.30327
 Alpha  occ. eigenvalues --  -10.29931 -10.29784 -10.29614 -10.29585 -10.29529
 Alpha  occ. eigenvalues --  -10.29244 -10.28633 -10.28631 -10.28603 -10.28510
 Alpha  occ. eigenvalues --  -10.28397 -10.28363 -10.28161 -10.28078 -10.27912
 Alpha  occ. eigenvalues --  -10.27866 -10.27853 -10.27808 -10.27808 -10.27702
 Alpha  occ. eigenvalues --  -10.27618 -10.27560 -10.27531 -10.27480 -10.27393
 Alpha  occ. eigenvalues --  -10.27241 -10.27218 -10.27067 -10.27009 -10.26919
 Alpha  occ. eigenvalues --  -10.26905 -10.26892 -10.26867 -10.26854 -10.26852
 Alpha  occ. eigenvalues --  -10.26439 -10.26331 -10.26236 -10.26212 -10.26169
 Alpha  occ. eigenvalues --  -10.25995 -10.25966 -10.25959 -10.25789 -10.25709
 Alpha  occ. eigenvalues --  -10.25495 -10.25256 -10.25239 -10.25127 -10.25107
 Alpha  occ. eigenvalues --  -10.24259  -3.17286  -3.17236  -1.92161  -1.92124
 Alpha  occ. eigenvalues --   -1.91757  -1.91705  -1.91586  -1.91524  -1.16767
 Alpha  occ. eigenvalues --   -1.15955  -1.11901  -1.10374  -1.10254  -1.09096
 Alpha  occ. eigenvalues --   -1.08705  -1.08213  -1.04936  -1.04770  -1.04267
 Alpha  occ. eigenvalues --   -1.03746  -1.03317  -1.02849  -1.02408  -1.02065
 Alpha  occ. eigenvalues --   -0.93781  -0.93035  -0.89408  -0.89153  -0.88950
 Alpha  occ. eigenvalues --   -0.88534  -0.88499  -0.88199  -0.87607  -0.87450
 Alpha  occ. eigenvalues --   -0.87190  -0.87097  -0.86166  -0.84989  -0.84600
 Alpha  occ. eigenvalues --   -0.84235  -0.84029  -0.83588  -0.82566  -0.82514
 Alpha  occ. eigenvalues --   -0.82360  -0.81505  -0.81028  -0.80887  -0.80845
 Alpha  occ. eigenvalues --   -0.80372  -0.78481  -0.77999  -0.77556  -0.77218
 Alpha  occ. eigenvalues --   -0.76540  -0.76395  -0.76290  -0.76111  -0.75096
 Alpha  occ. eigenvalues --   -0.74825  -0.72879  -0.72448  -0.72114  -0.71766
 Alpha  occ. eigenvalues --   -0.70021  -0.69121  -0.69034  -0.68603  -0.68313
 Alpha  occ. eigenvalues --   -0.68129  -0.66970  -0.66764  -0.65867  -0.65587
 Alpha  occ. eigenvalues --   -0.65329  -0.64855  -0.64787  -0.64446  -0.64405
 Alpha  occ. eigenvalues --   -0.63976  -0.62712  -0.62435  -0.60238  -0.60039
 Alpha  occ. eigenvalues --   -0.60038  -0.59412  -0.59340  -0.59113  -0.58877
 Alpha  occ. eigenvalues --   -0.58581  -0.58489  -0.58203  -0.57672  -0.57319
 Alpha  occ. eigenvalues --   -0.56517  -0.56230  -0.56065  -0.55676  -0.55471
 Alpha  occ. eigenvalues --   -0.55280  -0.55205  -0.54968  -0.54537  -0.53967
 Alpha  occ. eigenvalues --   -0.53946  -0.53538  -0.53220  -0.53193  -0.53091
 Alpha  occ. eigenvalues --   -0.52980  -0.52777  -0.52672  -0.52660  -0.52521
 Alpha  occ. eigenvalues --   -0.52179  -0.52057  -0.51740  -0.51087  -0.51000
 Alpha  occ. eigenvalues --   -0.50965  -0.50880  -0.50565  -0.50456  -0.50259
 Alpha  occ. eigenvalues --   -0.50130  -0.49883  -0.49810  -0.49640  -0.49602
 Alpha  occ. eigenvalues --   -0.49422  -0.49288  -0.49182  -0.49068  -0.48940
 Alpha  occ. eigenvalues --   -0.48775  -0.48666  -0.48470  -0.48333  -0.48082
 Alpha  occ. eigenvalues --   -0.47864  -0.47505  -0.47450  -0.47126  -0.47061
 Alpha  occ. eigenvalues --   -0.46622  -0.46585  -0.46343  -0.46280  -0.46122
 Alpha  occ. eigenvalues --   -0.46077  -0.45965  -0.45953  -0.45698  -0.45415
 Alpha  occ. eigenvalues --   -0.45333  -0.45331  -0.45043  -0.44924  -0.44697
 Alpha  occ. eigenvalues --   -0.44435  -0.44388  -0.44302  -0.44165  -0.44149
 Alpha  occ. eigenvalues --   -0.44037  -0.43847  -0.43823  -0.43633  -0.43545
 Alpha  occ. eigenvalues --   -0.43299  -0.43284  -0.43207  -0.43045  -0.42859
 Alpha  occ. eigenvalues --   -0.42566  -0.42515  -0.42396  -0.42367  -0.42360
 Alpha  occ. eigenvalues --   -0.42128  -0.41958  -0.41816  -0.41721  -0.41629
 Alpha  occ. eigenvalues --   -0.41582  -0.41058  -0.40854  -0.40739  -0.40701
 Alpha  occ. eigenvalues --   -0.40368  -0.40209  -0.40014  -0.39583  -0.38966
 Alpha  occ. eigenvalues --   -0.38816  -0.38424  -0.37978  -0.37799  -0.37702
 Alpha  occ. eigenvalues --   -0.37435  -0.37260  -0.37131  -0.36675  -0.36670
 Alpha  occ. eigenvalues --   -0.36508  -0.36321  -0.34872  -0.34836  -0.34700
 Alpha  occ. eigenvalues --   -0.34235  -0.33471  -0.33127  -0.31411  -0.31396
 Alpha  occ. eigenvalues --   -0.31202  -0.31062  -0.30936  -0.30764  -0.30139
 Alpha  occ. eigenvalues --   -0.30019  -0.29641  -0.29146  -0.24381  -0.23758
 Alpha  occ. eigenvalues --   -0.21040  -0.20983
 Alpha virt. eigenvalues --   -0.08350  -0.08308  -0.02216  -0.01296   0.00470
 Alpha virt. eigenvalues --    0.00510   0.01837   0.01931   0.02589   0.02751
 Alpha virt. eigenvalues --    0.04213   0.05038   0.05203   0.05604   0.05914

 Mulliken charges:
               1
     1  Mg   0.819095
     2  C   -0.027457
     3  C   -0.090285
     4  C   -0.046280
     5  C   -0.087381
     6  N   -0.261384
     7  C   -0.073435
     8  C   -0.067264
     9  C   -0.064327
    10  C    0.018044
    11  C    0.108009
    12  C    0.064928
    13  C   -0.081625
    14  H    0.029842
    15  N   -0.432485
    16  C    0.196380
    17  C   -0.155193
    18  C   -0.066245
    19  C    0.129250
    20  C    0.128348
    21  C    0.011662
    22  O   -0.165204
    23  C    0.046967
    24  N   -0.260850
    25  C    0.045594
    26  C   -0.043741
    27  C   -0.029970
    28  C    0.049969
    29  C    0.066809
    30  C    0.022709
    31  C    0.021405
    32  N   -0.342435
    33  C    0.111618
    34  C   -0.193863
    35  C    0.033651
    36  C    0.152533
    37  C    0.142363
    38  C    0.017015
    39  O   -0.185296
    40  C    0.043573
    41  C    0.222839
    42  O   -0.216104
    43  O   -0.330617
    44  C    0.180816
    45  H   -0.024199
    46  H   -0.052631
    47  H   -0.027526
    48  H   -0.005489
    49  H   -0.002273
    50  H    0.020598
    51  H    0.016869
    52  H    0.032881
    53  H    0.008450
    54  H    0.031445
    55  H    0.028417
    56  H    0.035677
    57  H    0.032291
    58  H   -0.009071
    59  H    0.027782
    60  H    0.050345
    61  H    0.014644
    62  H    0.046846
    63  H    0.006518
    64  H    0.001171
    65  H    0.023800
    66  H    0.019674
    67  H    0.008193
    68  H    0.019394
    69  H   -0.007763
    70  H    0.021889
    71  H    0.005599
    72  H    0.020066
    73  H    0.016001
    74  H    0.033899
    75  H    0.041498
    76  H    0.031005
    77  H    0.024053
    78  H    0.031537
    79  H    0.036428
    80  Mg   0.838498
    81  C    0.003082
    82  C   -0.061055
    83  C   -0.104842
    84  C   -0.054774
    85  N   -0.218629
    86  C   -0.092769
    87  C   -0.042300
    88  C   -0.061281
    89  C    0.010942
    90  C    0.050388
    91  C    0.024617
    92  C   -0.040727
    93  H    0.041587
    94  N   -0.391142
    95  C    0.155063
    96  C   -0.142607
    97  C   -0.042492
    98  C    0.127172
    99  C    0.119232
   100  C    0.039983
   101  O   -0.203667
   102  C    0.039575
   103  N   -0.333277
   104  C    0.048197
   105  C   -0.057734
   106  C    0.015450
   107  C   -0.039441
   108  C    0.082165
   109  C    0.031353
   110  C    0.039702
   111  N   -0.320488
   112  C    0.146515
   113  C   -0.155212
   114  C   -0.024163
   115  C    0.123338
   116  C    0.118398
   117  C    0.036082
   118  O   -0.148854
   119  C   -0.004653
   120  C    0.202076
   121  O   -0.198511
   122  O   -0.329782
   123  C    0.164149
   124  H   -0.038367
   125  H   -0.000591
   126  H   -0.043751
   127  H    0.025172
   128  H    0.023748
   129  H    0.021348
   130  H    0.003528
   131  H    0.029443
   132  H    0.011071
   133  H    0.008680
   134  H    0.027820
   135  H    0.016168
   136  H    0.020655
   137  H    0.026064
   138  H    0.028166
   139  H    0.036691
   140  H    0.028111
   141  H    0.021040
   142  H    0.014574
   143  H    0.014980
   144  H    0.028205
   145  H    0.010025
   146  H    0.017340
   147  H   -0.003850
   148  H    0.009882
   149  H    0.011587
   150  H    0.012296
   151  H    0.011207
   152  H    0.009190
   153  H    0.018001
   154  H    0.040754
   155  H    0.049019
   156  H    0.032257
   157  H    0.051970
   158  H    0.038407
 Sum of Mulliken charges =  -0.00000

 Dipole moment (field-independent basis, Debye):
    X=              0.4541    Y=             -3.5641    Z=             -3.9975  Tot=              5.3749
 Quadrupole moment (field-independent basis, Debye-Ang):
   XX=           -494.2341   YY=           -499.5757   ZZ=           -495.8139
   XY=             16.3091   XZ=              8.7337   YZ=             25.4334

 Normal termination of Gaussian 16 at Thu Sep  2 23:43:23 2021.
