 Gaussian 16, Revision A.03,
 Gaussian 16:  ES64L-G16RevA.03 25-Dec-2016

 -----------------------------------
 #p cam-b3lyp/Def2SVP td=(nstates=5)
 -----------------------------------

 --------------------------------
 TDDFT excited states in gaussian
 --------------------------------
 Symbolic Z-matrix:
 Charge =  0 Multiplicity = 1

                         Standard orientation:
 ---------------------------------------------------------------------
 Center     Atomic      Atomic             Coordinates (Angstroms)
 Number     Number       Type             X           Y           Z
 ---------------------------------------------------------------------
      1         12           0       14.653484   -0.194431   -0.205129
      2          6           0       11.214498   -1.167139   -0.476465
      3          6           0       13.899862    2.463024   -2.416250
      4          6           0       17.601578    1.192321    0.598580
      5          6           0       14.982233   -2.418559    2.413755
      6          7           0       12.768084    0.579682   -1.347825
      7          6           0       11.538723   -0.004368   -1.222376
      8          6           0       10.479406    0.901565   -1.829814
      9          6           0       11.434856    1.861052   -2.655578
     10          6           0       12.813224    1.674082   -2.146501
     11          6           0       11.428817    1.711228   -4.214026
     12          6           0        9.574118    1.498795   -0.705133
     13          6           0        8.001365    1.527720   -0.890581
     14          1           0        7.261043    2.877030   -0.916211
     15          7           0       15.686063    1.404971   -0.910834
     16          6           0       15.235984    2.388507   -1.830651
     17          6           0       16.287175    3.352643   -2.098225
     18          6           0       17.363530    2.969272   -1.198753
     19          6           0       16.889882    1.805887   -0.472579
     20          6           0       16.074552    4.504798   -2.989008
     21          6           0       18.707790    3.715707   -1.142589
     22          8           0       18.798692    4.759160   -1.853089
     23          6           0       19.932049    3.295296   -0.301915
     24          7           0       16.051743   -0.347249    1.476794
     25          6           0       17.254349    0.195029    1.477219
     26          6           0       17.990285   -0.283322    2.686935
     27          6           0       17.141794   -1.477793    3.199210
     28          6           0       15.906806   -1.374416    2.358080
     29          6           0       19.531777   -0.652652    2.583564
     30          6           0       16.815563   -1.464457    4.781085
     31          6           0       17.395292   -2.596168    5.664597
     32          7           0       13.492755   -1.637331    0.648731
     33          6           0       13.743230   -2.455001    1.685199
     34          6           0       12.638845   -3.298592    1.961910
     35          6           0       11.640490   -2.847399    1.095439
     36          6           0       12.189687   -1.789449    0.327724
     37          6           0       12.485278   -4.412298    2.918114
     38          6           0       10.266679   -3.084771    0.775497
     39          8           0        9.494259   -3.857610    1.296684
     40          6           0        9.900024   -1.885601   -0.308226
     41          6           0        9.448930   -2.477585   -1.573265
     42          8           0        9.970730   -3.445505   -2.141045
     43          8           0        8.371776   -1.729004   -1.997394
     44          6           0        7.747262   -2.142856   -3.252786
     45          1           0       13.731839    3.300111   -3.095583
     46          1           0       18.515613    1.657733    0.972319
     47          1           0       15.106777   -3.283514    3.068862
     48          1           0        9.955035    0.300599   -2.573209
     49          1           0       11.075690    2.808400   -2.251828
     50          1           0       12.454841    1.507963   -4.524043
     51          1           0       11.118992    2.609276   -4.748002
     52          1           0       10.858574    0.867706   -4.604318
     53          1           0        9.962640    2.516863   -0.691191
     54          1           0        9.738483    1.105903    0.297970
     55          1           0        7.618422    0.903516   -0.083433
     56          1           0        7.753121    0.913550   -1.755653
     57          1           0       15.170756    5.001339   -2.635098
     58          1           0       15.848082    4.158362   -3.997156
     59          1           0       16.910541    5.185542   -3.151791
     60          1           0       19.703099    3.492200    0.745551
     61          1           0       20.779859    3.716697   -0.841043
     62          1           0       19.976244    2.218494   -0.468591
     63          1           0       17.978670    0.539010    3.401221
     64          1           0       17.689426   -2.327824    2.792016
     65          1           0       19.922376   -0.455475    3.582204
     66          1           0       19.983799   -0.033318    1.808994
     67          1           0       19.578549   -1.719222    2.363011
     68          1           0       15.726245   -1.460896    4.815758
     69          1           0       17.077923   -0.476273    5.158694
     70          1           0       16.645670   -3.056220    6.307046
     71          1           0       18.200682   -2.182918    6.272358
     72          1           0       17.898148   -3.380185    5.098113
     73          1           0       11.643155   -5.053438    2.659533
     74          1           0       12.304513   -3.811087    3.809353
     75          1           0       13.477424   -4.808677    3.133686
     76          1           0        9.230421   -1.146740    0.130562
     77          1           0        7.502260   -3.205206   -3.250918
     78          1           0        8.406072   -1.903048   -4.088689
     79          1           0        6.811723   -1.596415   -3.372484
     80         12           0      -13.828556    0.902738    0.082994
     81          6           0      -13.714364   -2.683046   -0.404332
     82          6           0      -10.610129    0.829608   -0.188588
     83          6           0      -14.122969    4.102455    0.816258
     84          6           0      -17.292270    0.640881    1.152462
     85          7           0      -12.341465   -0.783346   -0.389727
     86          6           0      -12.464929   -2.148504   -0.544478
     87          6           0      -11.129970   -2.767641   -0.752873
     88          6           0      -10.147123   -1.706237   -0.195148
     89          6           0      -11.077234   -0.470229   -0.208294
     90          6           0       -9.638630   -1.996588    1.233987
     91          6           0      -10.869942   -2.954598   -2.278770
     92          6           0      -10.241952   -4.332965   -2.720743
     93          1           0      -10.369430   -4.815305   -4.220451
     94          7           0      -12.447556    2.330565    0.238378
     95          6           0      -11.176582    2.162351   -0.012653
     96          6           0      -10.527785    3.458464    0.049282
     97          6           0      -11.592583    4.375266    0.214708
     98          6           0      -12.777794    3.598573    0.458180
     99          6           0       -9.021766    3.604135   -0.234779
    100          6           0      -11.486861    5.874860    0.208012
    101          8           0      -12.457856    6.546632    0.390376
    102          6           0      -10.178501    6.512024   -0.129774
    103          7           0      -15.484325    2.132174    1.170026
    104          6           0      -15.301637    3.450810    1.148626
    105          6           0      -16.555871    4.192382    1.422611
    106          6           0      -17.530189    3.010440    1.726129
    107          6           0      -16.741614    1.788875    1.334144
    108          6           0      -16.513130    5.339915    2.494800
    109          6           0      -18.893726    3.182619    0.949586
    110          6           0      -20.172576    3.608179    1.723459
    111          7           0      -15.212829   -0.568444    0.341073
    112          6           0      -16.581188   -0.569625    0.692701
    113          6           0      -17.110759   -1.945804    0.599213
    114          6           0      -16.050070   -2.733553    0.172335
    115          6           0      -14.931997   -1.923514    0.068166
    116          6           0      -18.520903   -2.392140    1.055682
    117          6           0      -15.708614   -4.149927   -0.177323
    118          8           0      -16.347954   -5.172872   -0.247974
    119          6           0      -14.115416   -4.206451   -0.403738
    120          6           0      -13.772876   -4.972732   -1.545180
    121          8           0      -13.624243   -4.458121   -2.662376
    122          8           0      -13.651184   -6.346980   -1.364538
    123          6           0      -13.099828   -7.177591   -2.478789
    124          1           0       -9.531965    0.952937   -0.305048
    125          1           0      -14.235933    5.173335    0.997137
    126          1           0      -18.334435    0.546845    1.461503
    127          1           0      -11.027697   -3.650526   -0.121336
    128          1           0       -9.239802   -1.532183   -0.773244
    129          1           0       -8.553141   -2.099868    1.239458
    130          1           0      -10.104757   -2.928733    1.551901
    131          1           0       -9.922999   -1.252138    1.978178
    132          1           0      -10.170179   -2.159922   -2.538113
    133          1           0      -11.822555   -2.752475   -2.768018
    134          1           0      -10.636853   -5.101294   -2.056598
    135          1           0       -9.185712   -4.184680   -2.492956
    136          1           0       -8.899654    4.182326   -1.151605
    137          1           0       -8.453149    2.676153   -0.284257
    138          1           0       -8.563612    4.262786    0.502483
    139          1           0       -9.847596    6.274331   -1.140426
    140          1           0       -9.309098    6.179673    0.437376
    141          1           0      -10.303152    7.595033   -0.113012
    142          1           0      -16.872205    4.657253    0.488831
    143          1           0      -17.658644    2.918819    2.804866
    144          1           0      -15.466876    5.452791    2.776989
    145          1           0      -17.183098    5.251168    3.350729
    146          1           0      -16.865431    6.258892    2.026024
    147          1           0      -19.159790    2.230279    0.490126
    148          1           0      -18.630143    3.752049    0.058317
    149          1           0      -20.691201    4.395243    1.176292
    150          1           0      -19.897145    3.941800    2.724072
    151          1           0      -20.867558    2.771762    1.806811
    152          1           0      -19.203517   -1.561274    0.879578
    153          1           0      -18.516582   -2.534899    2.136534
    154          1           0      -18.858437   -3.286052    0.530677
    155          1           0      -13.669626   -4.662320    0.479830
    156          1           0      -12.069930   -6.897481   -2.704504
    157          1           0      -13.806751   -7.260942   -3.303393
    158          1           0      -12.913187   -8.166818   -2.061013
 ---------------------------------------------------------------------

 SCF Done:  E(RCAM-B3LYP) =  -4069.76328283     A.U. after   18 cycles

 Excitation energies and oscillator strengths:

 Excited State   1:      Singlet-A      1.6989 eV  729.77 nm  f=0.3963  <S**2>=0.000
     309 -> 315        0.18533
     312 -> 314        0.68535
     309 <- 315        0.11150
 This state for optimization and/or second-order correction.
 Total Energy, E(TD-HF/TD-DFT) =  -4069.70084765
 Copying the excited state density for this state as the 1-particle RhoCI density.

 Excited State   2:      Singlet-A      1.7380 eV  713.38 nm  f=0.3762  <S**2>=0.000
     310 -> 316       -0.16385
     311 -> 313        0.68891
     310 <- 316       -0.10277

 Excited State   3:      Singlet-A      2.1719 eV  570.86 nm  f=0.2287  <S**2>=0.000
     310 -> 313        0.67443
     311 -> 316        0.20195

 Excited State   4:      Singlet-A      2.2522 eV  550.50 nm  f=0.1323  <S**2>=0.000
     309 -> 314        0.64090
     312 -> 315       -0.28921

 Excited State   5:      Singlet-A      3.0168 eV  410.98 nm  f=0.0000  <S**2>=0.000
     312 -> 313        0.70708

 The electronic state is 1-A.
 Alpha  occ. eigenvalues --  -46.89446 -46.88997 -19.26393 -19.23970 -19.20670
 Alpha  occ. eigenvalues --  -19.19840 -19.19644 -19.19268 -19.18531 -19.18214
 Alpha  occ. eigenvalues --  -14.42026 -14.41765 -14.41490 -14.40177 -14.40022
 Alpha  occ. eigenvalues --  -14.39917 -14.39828 -14.39779 -10.40208 -10.38518
 Alpha  occ. eigenvalues --  -10.35959 -10.35548 -10.35327 -10.35141 -10.32579
 Alpha  occ. eigenvalues --  -10.31616 -10.31285 -10.31145 -10.31026 -10.30860
 Alpha  occ. eigenvalues --  -10.30726 -10.30602 -10.30487 -10.30423 -10.30403
 Alpha  occ. eigenvalues --  -10.30043 -10.30029 -10.29844 -10.29844 -10.29377
 Alpha  occ. eigenvalues --  -10.29322 -10.29174 -10.29084 -10.28946 -10.28837
 Alpha  occ. eigenvalues --  -10.28715 -10.28656 -10.28247 -10.28191 -10.28188
 Alpha  occ. eigenvalues --  -10.28118 -10.28009 -10.27909 -10.27885 -10.27729
 Alpha  occ. eigenvalues --  -10.27672 -10.27609 -10.27573 -10.27568 -10.27563
 Alpha  occ. eigenvalues --  -10.27310 -10.27287 -10.27269 -10.27168 -10.27147
 Alpha  occ. eigenvalues --  -10.27085 -10.26861 -10.26811 -10.26753 -10.26530
 Alpha  occ. eigenvalues --  -10.26524 -10.26506 -10.26368 -10.26324 -10.26288
 Alpha  occ. eigenvalues --  -10.26287 -10.26148 -10.26051 -10.25928 -10.25732
 Alpha  occ. eigenvalues --  -10.25715 -10.25539 -10.25447 -10.25134 -10.25106
 Alpha  occ. eigenvalues --  -10.24654  -3.17969  -3.17551  -1.92856  -1.92441
 Alpha  occ. eigenvalues --   -1.92432  -1.92269  -1.91995  -1.91868  -1.16661
 Alpha  occ. eigenvalues --   -1.14184  -1.12177  -1.10922  -1.10852  -1.08282
 Alpha  occ. eigenvalues --   -1.07323  -1.06415  -1.05656  -1.05541  -1.04961
 Alpha  occ. eigenvalues --   -1.04887  -1.04815  -1.03838  -1.02430  -1.00990
 Alpha  occ. eigenvalues --   -0.93279  -0.91260  -0.89413  -0.89259  -0.88875
 Alpha  occ. eigenvalues --   -0.88377  -0.88231  -0.88063  -0.87998  -0.87805
 Alpha  occ. eigenvalues --   -0.87641  -0.87567  -0.86098  -0.85199  -0.84733
 Alpha  occ. eigenvalues --   -0.84346  -0.83950  -0.83060  -0.82818  -0.82147
 Alpha  occ. eigenvalues --   -0.82114  -0.82023  -0.81461  -0.80959  -0.80580
 Alpha  occ. eigenvalues --   -0.80408  -0.78776  -0.78311  -0.77743  -0.77125
 Alpha  occ. eigenvalues --   -0.76978  -0.76704  -0.76398  -0.76222  -0.75436
 Alpha  occ. eigenvalues --   -0.75410  -0.73288  -0.72779  -0.72307  -0.71105
 Alpha  occ. eigenvalues --   -0.69894  -0.69484  -0.69221  -0.68788  -0.68597
 Alpha  occ. eigenvalues --   -0.67941  -0.67340  -0.66845  -0.66240  -0.66113
 Alpha  occ. eigenvalues --   -0.65736  -0.65627  -0.65213  -0.64978  -0.64857
 Alpha  occ. eigenvalues --   -0.64227  -0.63067  -0.61444  -0.61044  -0.60236
 Alpha  occ. eigenvalues --   -0.60107  -0.59996  -0.59644  -0.59066  -0.59015
 Alpha  occ. eigenvalues --   -0.58534  -0.58056  -0.57682  -0.57572  -0.57184
 Alpha  occ. eigenvalues --   -0.56557  -0.56340  -0.56083  -0.55752  -0.55746
 Alpha  occ. eigenvalues --   -0.55510  -0.54953  -0.54599  -0.54011  -0.53876
 Alpha  occ. eigenvalues --   -0.53794  -0.53394  -0.53390  -0.53041  -0.53031
 Alpha  occ. eigenvalues --   -0.52718  -0.52643  -0.52432  -0.52196  -0.51986
 Alpha  occ. eigenvalues --   -0.51852  -0.51844  -0.51515  -0.51320  -0.51319
 Alpha  occ. eigenvalues --   -0.50683  -0.50557  -0.50422  -0.50244  -0.50125
 Alpha  occ. eigenvalues --   -0.50094  -0.50069  -0.49857  -0.49706  -0.49667
 Alpha  occ. eigenvalues --   -0.49565  -0.49505  -0.49280  -0.48873  -0.48836
 Alpha  occ. eigenvalues --   -0.48743  -0.48554  -0.48309  -0.48038  -0.47947
 Alpha  occ. eigenvalues --   -0.47824  -0.47778  -0.47740  -0.47683  -0.47558
 Alpha  occ. eigenvalues --   -0.47542  -0.47446  -0.47119  -0.46740  -0.46553
 Alpha  occ. eigenvalues --   -0.46436  -0.46235  -0.46223  -0.46025  -0.45787
 Alpha  occ. eigenvalues --   -0.45719  -0.45533  -0.45477  -0.45406  -0.45068
 Alpha  occ. eigenvalues --   -0.44925  -0.44783  -0.44644  -0.44555  -0.44470
 Alpha  occ. eigenvalues --   -0.44018  -0.43874  -0.43751  -0.43657  -0.43442
 Alpha  occ. eigenvalues --   -0.43362  -0.43334  -0.43179  -0.43050  -0.42993
 Alpha  occ. eigenvalues --   -0.42900  -0.42751  -0.42673  -0.42404  -0.42220
 Alpha  occ. eigenvalues --   -0.41878  -0.41610  -0.41316  -0.41302  -0.41208
 Alpha  occ. eigenvalues --   -0.41045  -0.40953  -0.40631  -0.40440  -0.40369
 Alpha  occ. eigenvalues --   -0.40312  -0.40197  -0.39895  -0.39856  -0.39028
 Alpha  occ. eigenvalues --   -0.38831  -0.38351  -0.38329  -0.37835  -0.37738
 Alpha  occ. eigenvalues --   -0.37667  -0.37039  -0.36546  -0.36523  -0.36062
 Alpha  occ. eigenvalues --   -0.35944  -0.35727  -0.35296  -0.34204  -0.33598
 Alpha  occ. eigenvalues --   -0.33108  -0.33054  -0.32611  -0.31851  -0.31531
 Alpha  occ. eigenvalues --   -0.31421  -0.31225  -0.31103  -0.30744  -0.30414
 Alpha  occ. eigenvalues --   -0.30201  -0.29683  -0.29456  -0.24260  -0.23538
 Alpha  occ. eigenvalues --   -0.21626  -0.21402
 Alpha virt. eigenvalues --   -0.09074  -0.09018  -0.01821  -0.00356   0.00192
 Alpha virt. eigenvalues --    0.00934   0.02214   0.02314   0.02334   0.02657
 Alpha virt. eigenvalues --    0.04141   0.04534   0.04887   0.05155   0.05729

 Mulliken charges:
               1
     1  Mg   0.845569
     2  C   -0.112972
     3  C   -0.073159
     4  C   -0.090908
     5  C   -0.092484
     6  N   -0.247147
     7  C   -0.075190
     8  C   -0.009352
     9  C   -0.029563
    10  C    0.035816
    11  C    0.076693
    12  C    0.033561
    13  C   -0.045825
    14  H    0.033316
    15  N   -0.393855
    16  C    0.113944
    17  C   -0.127888
    18  C   -0.056899
    19  C    0.207493
    20  C    0.128622
    21  C   -0.019392
    22  O   -0.248826
    23  C    0.082581
    24  N   -0.275365
    25  C   -0.016048
    26  C   -0.039445
    27  C   -0.051974
    28  C    0.065212
    29  C    0.078738
    30  C    0.053582
    31  C    0.008826
    32  N   -0.340848
    33  C    0.091923
    34  C   -0.194171
    35  C   -0.020951
    36  C    0.159342
    37  C    0.167667
    38  C    0.065206
    39  O   -0.152253
    40  C    0.021531
    41  C    0.224337
    42  O   -0.224262
    43  O   -0.341498
    44  C    0.178570
    45  H   -0.025605
    46  H   -0.057361
    47  H   -0.022480
    48  H   -0.004220
    49  H    0.003262
    50  H    0.016802
    51  H    0.023052
    52  H    0.015105
    53  H    0.006943
    54  H    0.030339
    55  H    0.025640
    56  H    0.020524
    57  H    0.025830
    58  H    0.010199
    59  H    0.043917
    60  H    0.062318
    61  H    0.038904
    62  H    0.023434
    63  H    0.011815
    64  H    0.009132
    65  H    0.018379
    66  H    0.020326
    67  H    0.011160
    68  H    0.009836
    69  H    0.000846
    70  H    0.024638
    71  H    0.014125
    72  H    0.012683
    73  H    0.056938
    74  H    0.022552
    75  H    0.007262
    76  H    0.030391
    77  H    0.047750
    78  H    0.035142
    79  H    0.038169
    80  Mg   0.836465
    81  C   -0.017233
    82  C   -0.043201
    83  C   -0.045054
    84  C   -0.101697
    85  N   -0.239121
    86  C   -0.040124
    87  C   -0.024295
    88  C   -0.084508
    89  C    0.050325
    90  C    0.081876
    91  C    0.071419
    92  C   -0.043337
    93  H    0.034183
    94  N   -0.366937
    95  C    0.065564
    96  C   -0.128884
    97  C   -0.029990
    98  C    0.104903
    99  C    0.110684
   100  C    0.002114
   101  O   -0.168083
   102  C    0.040354
   103  N   -0.199791
   104  C   -0.011550
   105  C   -0.045236
   106  C    0.011805
   107  C    0.027147
   108  C    0.070650
   109  C    0.014201
   110  C    0.026941
   111  N   -0.397688
   112  C    0.109391
   113  C   -0.209676
   114  C   -0.008116
   115  C    0.122808
   116  C    0.119317
   117  C    0.086596
   118  O   -0.138028
   119  C   -0.010422
   120  C    0.199174
   121  O   -0.246448
   122  O   -0.357420
   123  C    0.195789
   124  H   -0.050881
   125  H   -0.004327
   126  H   -0.024470
   127  H   -0.003029
   128  H    0.009549
   129  H    0.019544
   130  H    0.006475
   131  H    0.023226
   132  H    0.001012
   133  H    0.050079
   134  H    0.026283
   135  H    0.014109
   136  H    0.026195
   137  H    0.029680
   138  H    0.019814
   139  H    0.028321
   140  H    0.022302
   141  H    0.029353
   142  H    0.020252
   143  H    0.004805
   144  H    0.028999
   145  H    0.015511
   146  H    0.009526
   147  H   -0.002221
   148  H   -0.009417
   149  H    0.017885
   150  H    0.014473
   151  H    0.016697
   152  H    0.008477
   153  H    0.029986
   154  H    0.038369
   155  H    0.050291
   156  H    0.028711
   157  H    0.055432
   158  H    0.024121
 Sum of Mulliken charges =  -0.00000

 Dipole moment (field-independent basis, Debye):
    X=              5.2913    Y=              2.4383    Z=              2.1369  Tot=              6.2056
 Quadrupole moment (field-independent basis, Debye-Ang):
   XX=           -573.9623   YY=           -555.8877   ZZ=           -500.0203
   XY=            -75.4921   XZ=             25.8975   YZ=             -3.3153

 Normal termination of Gaussian 16 at Wed Sep 15 05:04:56 2021.
