 Gaussian 16, Revision A.03,
 Gaussian 16:  ES64L-G16RevA.03 25-Dec-2016

 -----------------------------------
 #p cam-b3lyp/Def2SVP td=(nstates=5)
 -----------------------------------

 --------------------------------
 TDDFT excited states in gaussian
 --------------------------------
 Symbolic Z-matrix:
 Charge =  0 Multiplicity = 1

                         Standard orientation:
 ---------------------------------------------------------------------
 Center     Atomic      Atomic             Coordinates (Angstroms)
 Number     Number       Type             X           Y           Z
 ---------------------------------------------------------------------
      1         12           0        9.022093    0.276385    0.005335
      2          6           0        6.906523   -2.226372    1.168944
      3          6           0       10.621400   -2.045816   -1.942090
      4          6           0       11.259625    2.700768   -0.849094
      5          6           0        7.378482    2.445413    2.291640
      6          7           0        8.815578   -1.882412   -0.319163
      7          6           0        7.795316   -2.645983    0.183636
      8          6           0        7.946708   -4.035813   -0.439617
      9          6           0        9.281337   -4.020269   -1.163357
     10          6           0        9.577757   -2.524932   -1.172008
     11          6           0       10.422775   -4.856208   -0.649733
     12          6           0        6.711635   -4.529907   -1.333323
     13          6           0        6.942293   -5.842379   -2.149327
     14          1           0        6.556249   -7.197119   -1.499931
     15          7           0       10.604423    0.330754   -1.336344
     16          6           0       11.128633   -0.721146   -2.013289
     17          6           0       12.267243   -0.219038   -2.737528
     18          6           0       12.447152    1.156727   -2.408723
     19          6           0       11.447177    1.457275   -1.485647
     20          6           0       13.050346   -1.122409   -3.639443
     21          6           0       13.627424    2.065829   -2.859449
     22          8           0       13.899665    3.100079   -2.276542
     23          6           0       14.561828    1.707104   -3.914000
     24          7           0        9.245345    2.165988    0.606079
     25          6           0       10.214217    3.028458    0.094062
     26          6           0       10.104333    4.449232    0.674181
     27          6           0        8.726043    4.380971    1.415711
     28          6           0        8.409068    2.894728    1.393951
     29          6           0       11.294370    4.975665    1.363809
     30          6           0        7.497294    5.318868    0.905171
     31          6           0        6.852154    6.339879    1.847074
     32          7           0        7.449544    0.154674    1.533182
     33          6           0        6.938928    1.118346    2.356857
     34          6           0        5.902218    0.595458    3.181474
     35          6           0        5.784624   -0.760689    2.690050
     36          6           0        6.823293   -0.985416    1.743568
     37          6           0        5.136396    1.392825    4.167267
     38          6           0        4.982017   -1.958466    2.783677
     39          8           0        3.968036   -2.252024    3.385985
     40          6           0        5.731382   -2.994031    1.756126
     41          6           0        6.015097   -4.297993    2.408038
     42          8           0        6.805127   -4.438534    3.315690
     43          8           0        5.308691   -5.307579    1.869923
     44          6           0        5.696208   -6.714349    2.271154
     45          1           0       11.100720   -2.769588   -2.604972
     46          1           0       11.993639    3.456958   -1.134589
     47          1           0        6.989881    3.264957    2.900045
     48          1           0        7.988217   -4.640910    0.465945
     49          1           0        9.145577   -4.399354   -2.175948
     50          1           0       11.041538   -4.062977   -0.231314
     51          1           0       10.892760   -5.452165   -1.432202
     52          1           0       10.136848   -5.471195    0.203848
     53          1           0        6.582281   -3.684791   -2.009782
     54          1           0        5.831785   -4.664306   -0.705220
     55          1           0        7.992537   -5.978222   -2.404403
     56          1           0        6.400171   -5.748431   -3.090263
     57          1           0       12.686000   -2.138087   -3.796680
     58          1           0       14.014882   -1.256120   -3.150774
     59          1           0       13.274134   -0.671834   -4.606599
     60          1           0       15.023641    0.720335   -3.921851
     61          1           0       15.369392    2.418357   -4.086885
     62          1           0       13.948396    1.830220   -4.806304
     63          1           0        9.966078    4.975747   -0.270548
     64          1           0        9.070381    4.593901    2.427607
     65          1           0       11.782112    5.842666    0.917438
     66          1           0       12.025609    4.168483    1.414139
     67          1           0       11.103757    5.319956    2.380211
     68          1           0        6.695591    4.654847    0.582546
     69          1           0        7.667920    5.932031    0.019473
     70          1           0        5.883104    6.044625    2.250246
     71          1           0        6.846938    7.364840    1.477313
     72          1           0        7.454217    6.365861    2.755444
     73          1           0        5.838231    1.996573    4.742120
     74          1           0        4.499416    0.777639    4.802234
     75          1           0        4.620906    2.179092    3.614825
     76          1           0        5.004494   -3.193197    0.969348
     77          1           0        4.795693   -7.275122    2.021757
     78          1           0        5.921217   -6.722692    3.337454
     79          1           0        6.518594   -7.008466    1.618856
     80         12           0       -8.323878    0.973242   -0.523682
     81          6           0      -10.557057   -1.770491   -0.551848
     82          6           0       -5.687420   -1.254031   -0.527583
     83          6           0       -6.215963    3.606579   -0.201422
     84          6           0      -11.031825    3.188758   -0.304779
     85          7           0       -8.249449   -1.237758   -0.434490
     86          6           0       -9.263307   -2.161762   -0.676046
     87          6           0       -8.688604   -3.632245   -0.797745
     88          6           0       -7.180948   -3.409141   -0.504974
     89          6           0       -7.001241   -1.876491   -0.426938
     90          6           0       -6.559838   -4.106624    0.762651
     91          6           0       -9.078845   -4.442568   -2.101121
     92          6           0       -9.826650   -5.718804   -1.859519
     93          1           0       -9.482711   -6.918766   -2.828172
     94          7           0       -6.290674    1.095109   -0.381474
     95          6           0       -5.345632    0.093037   -0.468030
     96          6           0       -4.017290    0.666878   -0.320002
     97          6           0       -4.114157    2.083972   -0.223786
     98          6           0       -5.600679    2.336234   -0.289581
     99          6           0       -2.709862   -0.142391   -0.435696
    100          6           0       -3.018237    3.140180   -0.124364
    101          8           0       -3.228476    4.335606   -0.135728
    102          6           0       -1.468236    2.816141   -0.102484
    103          7           0       -8.601284    3.114178   -0.187574
    104          6           0       -7.586065    3.963099   -0.095133
    105          6           0       -8.072135    5.447552    0.066888
    106          6           0       -9.629904    5.320952   -0.164535
    107          6           0       -9.789096    3.773017   -0.253083
    108          6           0       -7.584599    6.078281    1.403278
    109          6           0      -10.094795    6.109614   -1.372766
    110          6           0      -11.405527    6.864287   -1.157883
    111          7           0      -10.391501    0.849224   -0.302605
    112          6           0      -11.376435    1.818024   -0.324583
    113          6           0      -12.631218    1.153305   -0.150866
    114          6           0      -12.397811   -0.238709   -0.275537
    115          6           0      -10.987812   -0.407404   -0.363968
    116          6           0      -13.947911    1.809599    0.025145
    117          6           0      -13.048829   -1.555543   -0.388759
    118          8           0      -14.210937   -1.925801   -0.249799
    119          6           0      -11.748154   -2.646992   -0.626755
    120          6           0      -11.769272   -3.649908    0.391874
    121          8           0      -11.010622   -3.690177    1.336119
    122          8           0      -12.677654   -4.638071    0.086347
    123          6           0      -12.774890   -5.673395    1.145285
    124          1           0       -4.826556   -1.914446   -0.652473
    125          1           0       -5.587087    4.485340   -0.047448
    126          1           0      -11.815494    3.949826   -0.324650
    127          1           0       -9.031301   -4.125374    0.111278
    128          1           0       -6.572517   -3.745800   -1.344415
    129          1           0       -5.573529   -4.465507    0.466893
    130          1           0       -7.219860   -4.918633    1.066808
    131          1           0       -6.433620   -3.447762    1.621990
    132          1           0       -8.143948   -4.611257   -2.635729
    133          1           0       -9.740096   -3.799691   -2.682368
    134          1           0      -10.897578   -5.543332   -1.969754
    135          1           0       -9.591544   -5.956228   -0.822379
    136          1           0       -2.238694    0.215336   -1.350504
    137          1           0       -2.955519   -1.182894   -0.649403
    138          1           0       -1.999698   -0.019239    0.382927
    139          1           0       -1.233551    2.243727   -1.000554
    140          1           0       -1.124822    2.456784    0.868035
    141          1           0       -0.989761    3.793688   -0.050819
    142          1           0       -7.718128    6.109386   -0.723272
    143          1           0      -10.094437    5.640814    0.768410
    144          1           0       -8.445061    6.519373    1.907215
    145          1           0       -6.761220    6.781402    1.275179
    146          1           0       -7.186546    5.298755    2.050820
    147          1           0      -10.197015    5.483177   -2.258292
    148          1           0       -9.370622    6.840373   -1.736193
    149          1           0      -11.885833    6.571469   -0.224197
    150          1           0      -12.061123    6.573742   -1.979265
    151          1           0      -11.287652    7.942952   -1.262466
    152          1           0      -13.966742    2.899238    0.043533
    153          1           0      -14.449290    1.268118    0.828247
    154          1           0      -14.410650    1.680056   -0.953509
    155          1           0      -11.854461   -3.115193   -1.605734
    156          1           0      -13.082562   -5.213576    2.084696
    157          1           0      -11.806260   -6.172736    1.166420
    158          1           0      -13.536804   -6.423494    0.936908
 ---------------------------------------------------------------------

 SCF Done:  E(RCAM-B3LYP) =  -4069.81490892     A.U. after   18 cycles

 Excitation energies and oscillator strengths:

 Excited State   1:      Singlet-A      1.6962 eV  730.95 nm  f=0.4835  <S**2>=0.000
     309 -> 315       -0.17764
     311 -> 313        0.68158
     309 <- 315       -0.10762
 This state for optimization and/or second-order correction.
 Total Energy, E(TD-HF/TD-DFT) =  -4069.75257428
 Copying the excited state density for this state as the 1-particle RhoCI density.

 Excited State   2:      Singlet-A      1.7877 eV  693.54 nm  f=0.3196  <S**2>=0.000
     310 -> 316        0.17540
     312 -> 314        0.68091
     310 <- 316        0.10062

 Excited State   3:      Singlet-A      2.2224 eV  557.88 nm  f=0.0821  <S**2>=0.000
     309 -> 313        0.63194
     311 -> 315        0.30066

 Excited State   4:      Singlet-A      2.2600 eV  548.60 nm  f=0.1178  <S**2>=0.000
     310 -> 314        0.63890
     312 -> 316       -0.28418

 Excited State   5:      Singlet-A      2.7899 eV  444.41 nm  f=0.0000  <S**2>=0.000
     312 -> 313        0.70689

 The electronic state is 1-A.
 Alpha  occ. eigenvalues --  -46.88081 -46.88077 -19.24649 -19.24202 -19.19721
 Alpha  occ. eigenvalues --  -19.19246 -19.19246 -19.19085 -19.18903 -19.18478
 Alpha  occ. eigenvalues --  -14.42906 -14.42243 -14.42117 -14.41614 -14.40181
 Alpha  occ. eigenvalues --  -14.39245 -14.38645 -14.38574 -10.38190 -10.38185
 Alpha  occ. eigenvalues --  -10.36234 -10.35855 -10.35750 -10.34890 -10.32366
 Alpha  occ. eigenvalues --  -10.32326 -10.31829 -10.31797 -10.31314 -10.31309
 Alpha  occ. eigenvalues --  -10.31145 -10.31136 -10.30967 -10.30650 -10.30014
 Alpha  occ. eigenvalues --  -10.30013 -10.30008 -10.29905 -10.29833 -10.29666
 Alpha  occ. eigenvalues --  -10.29185 -10.28690 -10.28587 -10.28502 -10.28496
 Alpha  occ. eigenvalues --  -10.28342 -10.28342 -10.28276 -10.28274 -10.27856
 Alpha  occ. eigenvalues --  -10.27757 -10.27742 -10.27741 -10.27725 -10.27642
 Alpha  occ. eigenvalues --  -10.27631 -10.27527 -10.27502 -10.27492 -10.27383
 Alpha  occ. eigenvalues --  -10.27330 -10.27247 -10.27225 -10.27215 -10.27143
 Alpha  occ. eigenvalues --  -10.27124 -10.27057 -10.27053 -10.26974 -10.26753
 Alpha  occ. eigenvalues --  -10.26646 -10.26528 -10.26474 -10.26344 -10.26303
 Alpha  occ. eigenvalues --  -10.26189 -10.26042 -10.25932 -10.25882 -10.25727
 Alpha  occ. eigenvalues --  -10.25709 -10.25639 -10.25451 -10.25202 -10.25018
 Alpha  occ. eigenvalues --  -10.24728  -3.16737  -3.16611  -1.91652  -1.91519
 Alpha  occ. eigenvalues --   -1.91193  -1.91061  -1.91039  -1.90918  -1.16072
 Alpha  occ. eigenvalues --   -1.15742  -1.11353  -1.11147  -1.09740  -1.09128
 Alpha  occ. eigenvalues --   -1.07299  -1.06955  -1.05444  -1.04310  -1.03946
 Alpha  occ. eigenvalues --   -1.03510  -1.02551  -1.02313  -1.01811  -1.00790
 Alpha  occ. eigenvalues --   -0.92648  -0.91705  -0.89420  -0.89020  -0.88877
 Alpha  occ. eigenvalues --   -0.88532  -0.88286  -0.87890  -0.87764  -0.87171
 Alpha  occ. eigenvalues --   -0.87038  -0.86900  -0.86745  -0.85467  -0.84830
 Alpha  occ. eigenvalues --   -0.84229  -0.83894  -0.83522  -0.82803  -0.82680
 Alpha  occ. eigenvalues --   -0.82371  -0.81615  -0.80947  -0.80872  -0.80574
 Alpha  occ. eigenvalues --   -0.79936  -0.78991  -0.78234  -0.77970  -0.77488
 Alpha  occ. eigenvalues --   -0.76821  -0.76299  -0.76104  -0.75624  -0.75337
 Alpha  occ. eigenvalues --   -0.74566  -0.72978  -0.72095  -0.72013  -0.71153
 Alpha  occ. eigenvalues --   -0.69586  -0.69113  -0.68900  -0.68737  -0.68434
 Alpha  occ. eigenvalues --   -0.67285  -0.67106  -0.67103  -0.65744  -0.65608
 Alpha  occ. eigenvalues --   -0.65509  -0.64885  -0.64652  -0.64434  -0.64404
 Alpha  occ. eigenvalues --   -0.64210  -0.61643  -0.61011  -0.60714  -0.59957
 Alpha  occ. eigenvalues --   -0.59875  -0.59158  -0.59026  -0.59024  -0.58647
 Alpha  occ. eigenvalues --   -0.58159  -0.57887  -0.57671  -0.57518  -0.56859
 Alpha  occ. eigenvalues --   -0.56563  -0.55932  -0.55795  -0.55631  -0.55621
 Alpha  occ. eigenvalues --   -0.54969  -0.54772  -0.54589  -0.54116  -0.54011
 Alpha  occ. eigenvalues --   -0.53566  -0.53350  -0.53138  -0.53064  -0.53044
 Alpha  occ. eigenvalues --   -0.52889  -0.52783  -0.52511  -0.52414  -0.52283
 Alpha  occ. eigenvalues --   -0.51981  -0.51559  -0.51520  -0.51293  -0.51197
 Alpha  occ. eigenvalues --   -0.51048  -0.50805  -0.50791  -0.50671  -0.50481
 Alpha  occ. eigenvalues --   -0.50447  -0.50102  -0.50021  -0.49638  -0.49559
 Alpha  occ. eigenvalues --   -0.49426  -0.49370  -0.49356  -0.49299  -0.49185
 Alpha  occ. eigenvalues --   -0.48840  -0.48490  -0.48412  -0.48362  -0.47932
 Alpha  occ. eigenvalues --   -0.47886  -0.47871  -0.47624  -0.47571  -0.47323
 Alpha  occ. eigenvalues --   -0.47298  -0.47027  -0.46781  -0.46737  -0.46651
 Alpha  occ. eigenvalues --   -0.46462  -0.46277  -0.46268  -0.46074  -0.45850
 Alpha  occ. eigenvalues --   -0.45376  -0.45356  -0.45319  -0.45017  -0.45002
 Alpha  occ. eigenvalues --   -0.44703  -0.44596  -0.44513  -0.44436  -0.44326
 Alpha  occ. eigenvalues --   -0.44196  -0.43884  -0.43854  -0.43787  -0.43541
 Alpha  occ. eigenvalues --   -0.43424  -0.43175  -0.43040  -0.43031  -0.42905
 Alpha  occ. eigenvalues --   -0.42788  -0.42267  -0.42183  -0.42127  -0.42006
 Alpha  occ. eigenvalues --   -0.41854  -0.41727  -0.41482  -0.41381  -0.41142
 Alpha  occ. eigenvalues --   -0.41027  -0.40582  -0.40415  -0.40358  -0.40167
 Alpha  occ. eigenvalues --   -0.39884  -0.39703  -0.39558  -0.39452  -0.39288
 Alpha  occ. eigenvalues --   -0.38970  -0.38562  -0.37993  -0.37514  -0.37446
 Alpha  occ. eigenvalues --   -0.37084  -0.37041  -0.36733  -0.36487  -0.36277
 Alpha  occ. eigenvalues --   -0.36115  -0.35785  -0.34268  -0.34187  -0.34151
 Alpha  occ. eigenvalues --   -0.33705  -0.33198  -0.32935  -0.31490  -0.31473
 Alpha  occ. eigenvalues --   -0.31321  -0.31166  -0.30494  -0.30452  -0.30095
 Alpha  occ. eigenvalues --   -0.29913  -0.29263  -0.28518  -0.24405  -0.23917
 Alpha  occ. eigenvalues --   -0.21325  -0.21170
 Alpha virt. eigenvalues --   -0.08997  -0.08359  -0.02068  -0.01629   0.00200
 Alpha virt. eigenvalues --    0.00409   0.02245   0.02538   0.03091   0.03160
 Alpha virt. eigenvalues --    0.04486   0.04660   0.05047   0.05526   0.06039

 Mulliken charges:
               1
     1  Mg   0.828636
     2  C    0.048291
     3  C   -0.079078
     4  C   -0.067208
     5  C   -0.103456
     6  N   -0.255713
     7  C   -0.052302
     8  C   -0.000329
     9  C   -0.103580
    10  C    0.035649
    11  C    0.099366
    12  C    0.042456
    13  C   -0.062535
    14  H    0.014111
    15  N   -0.404041
    16  C    0.147432
    17  C   -0.142554
    18  C   -0.017724
    19  C    0.106464
    20  C    0.100285
    21  C    0.025427
    22  O   -0.201830
    23  C    0.059358
    24  N   -0.343392
    25  C    0.041825
    26  C   -0.041073
    27  C   -0.002477
    28  C    0.022840
    29  C    0.094201
    30  C    0.043904
    31  C   -0.014194
    32  N   -0.286701
    33  C    0.152762
    34  C   -0.161123
    35  C   -0.027250
    36  C    0.074246
    37  C    0.148987
    38  C    0.064655
    39  O   -0.156129
    40  C   -0.074100
    41  C    0.174535
    42  O   -0.223552
    43  O   -0.341290
    44  C    0.172963
    45  H   -0.041255
    46  H    0.002094
    47  H   -0.024006
    48  H    0.009534
    49  H   -0.002345
    50  H    0.017723
    51  H    0.021812
    52  H    0.015522
    53  H    0.008703
    54  H    0.038430
    55  H    0.023806
    56  H    0.035476
    57  H    0.015811
    58  H    0.027713
    59  H    0.025435
    60  H    0.036206
    61  H    0.023466
    62  H    0.027374
    63  H    0.010891
    64  H    0.008296
    65  H    0.018114
    66  H    0.025536
    67  H    0.006524
    68  H    0.011449
    69  H    0.010879
    70  H    0.018229
    71  H    0.023841
    72  H   -0.001523
    73  H    0.013499
    74  H    0.047750
    75  H    0.020586
    76  H    0.035713
    77  H    0.044176
    78  H    0.065455
    79  H    0.042322
    80  Mg   0.816052
    81  C    0.025830
    82  C   -0.086167
    83  C   -0.056272
    84  C   -0.058998
    85  N   -0.312765
    86  C   -0.055581
    87  C   -0.012770
    88  C   -0.109790
    89  C    0.088091
    90  C    0.070525
    91  C    0.093618
    92  C   -0.080062
    93  H    0.012341
    94  N   -0.426253
    95  C    0.166668
    96  C   -0.152374
    97  C   -0.008080
    98  C    0.162832
    99  C    0.112258
   100  C   -0.007736
   101  O   -0.188956
   102  C    0.041876
   103  N   -0.245219
   104  C    0.014972
   105  C   -0.075042
   106  C   -0.009816
   107  C   -0.002077
   108  C    0.065625
   109  C    0.045844
   110  C    0.000169
   111  N   -0.378306
   112  C    0.150466
   113  C   -0.188489
   114  C    0.001749
   115  C    0.131737
   116  C    0.134383
   117  C    0.077005
   118  O   -0.163986
   119  C   -0.091546
   120  C    0.202805
   121  O   -0.221827
   122  O   -0.341980
   123  C    0.191542
   124  H   -0.033542
   125  H   -0.007441
   126  H   -0.044944
   127  H    0.031027
   128  H    0.006341
   129  H    0.016167
   130  H    0.021124
   131  H    0.029559
   132  H    0.014331
   133  H    0.009342
   134  H    0.043620
   135  H    0.030326
   136  H    0.029532
   137  H    0.010256
   138  H    0.047336
   139  H    0.040778
   140  H    0.035350
   141  H    0.019659
   142  H    0.013680
   143  H    0.009734
   144  H    0.012904
   145  H    0.028484
   146  H    0.020370
   147  H    0.005968
   148  H    0.003659
   149  H    0.022245
   150  H    0.008668
   151  H    0.017818
   152  H   -0.003380
   153  H    0.047569
   154  H    0.021930
   155  H    0.051490
   156  H    0.042357
   157  H    0.032375
   158  H    0.033010
 Sum of Mulliken charges =  -0.00000

 Dipole moment (field-independent basis, Debye):
    X=              7.2268    Y=              0.5803    Z=             -6.1988  Tot=              9.5388
 Quadrupole moment (field-independent basis, Debye-Ang):
   XX=           -573.9381   YY=           -464.8129   ZZ=           -514.8630
   XY=            -38.1928   XZ=            -30.1374   YZ=             22.2801

 Normal termination of Gaussian 16 at Thu Sep 16 01:37:47 2021.
