 Gaussian 16, Revision A.03,
 Gaussian 16:  ES64L-G16RevA.03 25-Dec-2016

 -----------------------------------
 #p cam-b3lyp/Def2SVP td=(nstates=5)
 -----------------------------------

 --------------------------------
 TDDFT excited states in gaussian
 --------------------------------
 Symbolic Z-matrix:
 Charge =  0 Multiplicity = 1

                         Standard orientation:
 ---------------------------------------------------------------------
 Center     Atomic      Atomic             Coordinates (Angstroms)
 Number     Number       Type             X           Y           Z
 ---------------------------------------------------------------------
      1         12           0      -26.049105    0.319972    0.078942
      2          6           0      -23.881090   -2.276077    0.466550
      3          6           0      -23.291726    2.369319   -0.396754
      4          6           0      -28.191949    2.791159   -0.678719
      5          6           0      -28.744925   -1.935769   -0.094125
      6          7           0      -23.834126    0.004565   -0.214936
      7          6           0      -23.220839   -1.167019    0.047067
      8          6           0      -21.758233   -1.112874   -0.204391
      9          6           0      -21.544558    0.523604   -0.110659
     10          6           0      -22.991749    1.041325   -0.248968
     11          6           0      -20.807292    0.963706    1.188472
     12          6           0      -21.454957   -1.660329   -1.590059
     13          6           0      -22.192186   -1.026604   -2.859162
     14          1           0      -21.431568   -0.801719   -4.160040
     15          7           0      -25.793130    2.293363   -0.461151
     16          6           0      -24.567937    3.006852   -0.471879
     17          6           0      -24.890023    4.386450   -0.623935
     18          6           0      -26.262126    4.557669   -0.759446
     19          6           0      -26.850672    3.217307   -0.599380
     20          6           0      -23.751345    5.385997   -0.634315
     21          6           0      -27.003636    5.833049   -1.081618
     22          8           0      -26.288184    6.854986   -1.229909
     23          6           0      -28.380833    5.937790   -1.430032
     24          7           0      -28.145977    0.355518   -0.541634
     25          6           0      -28.803841    1.534669   -0.734314
     26          6           0      -30.302894    1.297873   -1.036751
     27          6           0      -30.448205   -0.248751   -0.839705
     28          6           0      -29.015776   -0.660503   -0.544736
     29          6           0      -31.231552    2.124152   -0.172800
     30          6           0      -31.079148   -0.951143   -2.157314
     31          6           0      -32.122381   -2.031686   -1.850604
     32          7           0      -26.355517   -1.755428    0.170245
     33          6           0      -27.476769   -2.512164    0.291839
     34          6           0      -27.055314   -3.817667    0.721853
     35          6           0      -25.624580   -3.822456    0.864928
     36          6           0      -25.259831   -2.540882    0.486805
     37          6           0      -27.913647   -5.035926    0.741273
     38          6           0      -24.432501   -4.563504    1.125386
     39          8           0      -24.408133   -5.748304    1.481773
     40          6           0      -23.286027   -3.591822    0.914903
     41          6           0      -22.512960   -3.493422    2.176837
     42          8           0      -22.040204   -4.502028    2.662827
     43          8           0      -22.332536   -2.223923    2.634437
     44          6           0      -21.550861   -2.112192    3.867489
     45          1           0      -22.446531    3.049036   -0.270853
     46          1           0      -28.884860    3.634902   -0.687903
     47          1           0      -29.543471   -2.667855    0.045408
     48          1           0      -21.098682   -1.655375    0.473021
     49          1           0      -20.832107    0.865857   -0.862372
     50          1           0      -19.896379    1.504471    0.934354
     51          1           0      -20.516889    0.051184    1.709794
     52          1           0      -21.410213    1.558939    1.875476
     53          1           0      -21.585163   -2.741544   -1.539618
     54          1           0      -20.366861   -1.605711   -1.622007
     55          1           0      -22.635365   -0.042483   -2.706278
     56          1           0      -22.933643   -1.792667   -3.084200
     57          1           0      -23.396405    5.407980   -1.664844
     58          1           0      -22.945330    5.008422   -0.006368
     59          1           0      -23.989654    6.396053   -0.299657
     60          1           0      -28.565648    6.774065   -2.105002
     61          1           0      -29.052135    5.911929   -0.570702
     62          1           0      -28.566911    5.078719   -2.073176
     63          1           0      -30.385045    1.565126   -2.090862
     64          1           0      -31.005833   -0.445769    0.075699
     65          1           0      -30.720312    2.844477    0.465286
     66          1           0      -32.022956    1.658311    0.413754
     67          1           0      -31.681974    2.802671   -0.897842
     68          1           0      -30.339048   -1.425329   -2.801993
     69          1           0      -31.519187   -0.222826   -2.838273
     70          1           0      -33.103646   -1.635463   -2.110393
     71          1           0      -32.143819   -2.186510   -0.771659
     72          1           0      -31.947352   -2.959576   -2.395330
     73          1           0      -28.703226   -5.084116    1.490200
     74          1           0      -27.220769   -5.868792    0.866885
     75          1           0      -28.451746   -5.173701   -0.196642
     76          1           0      -22.655994   -4.031356    0.141068
     77          1           0      -20.579714   -2.574309    3.687923
     78          1           0      -22.055994   -2.525588    4.740588
     79          1           0      -21.477720   -1.071430    4.182689
     80         12           0       25.682489   -0.333731   -0.671452
     81          6           0       24.782427    1.631144    2.183464
     82          6           0       25.931483   -3.089313    1.362922
     83          6           0       26.982097   -2.157176   -3.200065
     84          6           0       26.318261    2.699059   -2.356485
     85          7           0       25.374137   -0.658157    1.507181
     86          6           0       24.941752    0.244375    2.491585
     87          6           0       24.751739   -0.496415    3.790359
     88          6           0       25.616426   -1.807318    3.562491
     89          6           0       25.709319   -1.841177    2.008636
     90          6           0       27.011374   -1.590928    4.250352
     91          6           0       23.250795   -0.692208    4.205295
     92          6           0       23.074811   -0.413419    5.612631
     93          1           0       21.545321   -0.230716    6.083806
     94          7           0       26.176521   -2.402906   -0.844867
     95          6           0       26.173188   -3.361554    0.089092
     96          6           0       26.478231   -4.618495   -0.522347
     97          6           0       26.807624   -4.389323   -1.841761
     98          6           0       26.611308   -2.883398   -2.068892
     99          6           0       26.619667   -5.934085    0.307304
    100          6           0       27.179122   -5.405512   -2.941194
    101          8           0       27.470324   -5.000507   -4.038068
    102          6           0       27.092404   -6.891129   -2.682116
    103          7           0       26.782930    0.251258   -2.412682
    104          6           0       27.082957   -0.730402   -3.350730
    105          6           0       27.432964   -0.116687   -4.667268
    106          6           0       27.200185    1.451825   -4.411212
    107          6           0       26.673745    1.487117   -2.995794
    108          6           0       28.789075   -0.503425   -5.152721
    109          6           0       26.236813    2.247035   -5.452649
    110          6           0       26.819756    3.361426   -6.228312
    111          7           0       25.545476    1.759304   -0.259312
    112          6           0       25.851238    2.833444   -1.064275
    113          6           0       25.489258    4.105526   -0.300328
    114          6           0       24.959332    3.679787    0.934240
    115          6           0       25.064673    2.244706    0.930692
    116          6           0       25.714244    5.529752   -0.826158
    117          6           0       24.518995    4.180642    2.201015
    118          8           0       24.343713    5.356949    2.591379
    119          6           0       24.543448    2.897068    3.128441
    120          6           0       23.217021    2.953139    3.944378
    121          8           0       22.242367    2.248610    3.623547
    122          8           0       23.370425    3.768457    5.016521
    123          6           0       22.029357    3.966808    5.666364
    124          1           0       25.798156   -4.004134    1.944742
    125          1           0       27.386607   -2.728112   -4.039230
    126          1           0       26.388343    3.681928   -2.826859
    127          1           0       25.287001    0.084268    4.541285
    128          1           0       25.141775   -2.685317    3.999141
    129          1           0       27.664763   -0.909023    3.706684
    130          1           0       27.482094   -2.561675    4.399914
    131          1           0       26.849523   -1.180511    5.247349
    132          1           0       23.055230   -1.762801    4.140062
    133          1           0       22.570791   -0.148563    3.549010
    134          1           0       23.469286    0.569420    5.871099
    135          1           0       23.538986   -1.229414    6.167070
    136          1           0       25.923897   -6.609326   -0.190667
    137          1           0       26.316536   -5.853845    1.351118
    138          1           0       27.658108   -6.265046    0.301884
    139          1           0       27.470316   -7.451421   -3.537382
    140          1           0       26.009385   -6.930708   -2.565888
    141          1           0       27.651626   -7.108862   -1.772237
    142          1           0       26.656551   -0.509967   -5.323747
    143          1           0       28.181367    1.922678   -4.466532
    144          1           0       28.594713   -1.154091   -6.004398
    145          1           0       29.330007   -1.134918   -4.448108
    146          1           0       29.447023    0.323923   -5.419602
    147          1           0       25.509606    2.702781   -4.780718
    148          1           0       25.725120    1.503011   -6.061681
    149          1           0       26.341933    4.308243   -5.978015
    150          1           0       26.439116    3.045907   -7.199133
    151          1           0       27.910369    3.349262   -6.247818
    152          1           0       26.684851    5.835302   -0.437046
    153          1           0       24.949130    6.227027   -0.484957
    154          1           0       25.658458    5.517666   -1.914689
    155          1           0       25.421394    3.062623    3.751367
    156          1           0       21.348553    4.621953    5.123111
    157          1           0       22.069064    4.327529    6.693666
    158          1           0       21.605798    2.967349    5.767290
 ---------------------------------------------------------------------

 SCF Done:  E(RCAM-B3LYP) =  -4069.77854009     A.U. after   17 cycles

 Excitation energies and oscillator strengths:

 Excited State   1:      Singlet-A      1.7188 eV  721.36 nm  f=0.3477  <S**2>=0.000
     310 -> 315        0.18753
     312 -> 314        0.68231
     310 <- 315        0.10714
 This state for optimization and/or second-order correction.
 Total Energy, E(TD-HF/TD-DFT) =  -4069.71537694
 Copying the excited state density for this state as the 1-particle RhoCI density.

 Excited State   2:      Singlet-A      1.7418 eV  711.80 nm  f=0.3989  <S**2>=0.000
     309 -> 316       -0.17692
     311 -> 313        0.68524
     309 <- 316       -0.10390

 Excited State   3:      Singlet-A      2.2176 eV  559.10 nm  f=0.1296  <S**2>=0.000
     309 -> 313        0.65047
     311 -> 316        0.25334

 Excited State   4:      Singlet-A      2.2689 eV  546.46 nm  f=0.0058  <S**2>=0.000
     310 -> 314        0.54882
     312 -> 315       -0.43684

 Excited State   5:      Singlet-A      2.8252 eV  438.85 nm  f=0.0000  <S**2>=0.000
     312 -> 313        0.70711

 The electronic state is 1-A.
 Alpha  occ. eigenvalues --  -46.89420 -46.89114 -19.26398 -19.26148 -19.19746
 Alpha  occ. eigenvalues --  -19.19483 -19.19475 -19.18737 -19.18284 -19.18167
 Alpha  occ. eigenvalues --  -14.42257 -14.42085 -14.42066 -14.41902 -14.39794
 Alpha  occ. eigenvalues --  -14.39354 -14.39142 -14.38611 -10.39709 -10.39473
 Alpha  occ. eigenvalues --  -10.35665 -10.34896 -10.34841 -10.34454 -10.32748
 Alpha  occ. eigenvalues --  -10.31685 -10.31524 -10.31361 -10.31296 -10.31223
 Alpha  occ. eigenvalues --  -10.31194 -10.31192 -10.30917 -10.30525 -10.30469
 Alpha  occ. eigenvalues --  -10.30393 -10.30216 -10.29205 -10.29162 -10.29051
 Alpha  occ. eigenvalues --  -10.28992 -10.28957 -10.28757 -10.28650 -10.28605
 Alpha  occ. eigenvalues --  -10.28566 -10.28463 -10.28381 -10.28347 -10.28283
 Alpha  occ. eigenvalues --  -10.28213 -10.28142 -10.28101 -10.28094 -10.28030
 Alpha  occ. eigenvalues --  -10.28027 -10.27794 -10.27737 -10.27404 -10.27365
 Alpha  occ. eigenvalues --  -10.27357 -10.27340 -10.27298 -10.27235 -10.27180
 Alpha  occ. eigenvalues --  -10.27004 -10.27001 -10.26922 -10.26777 -10.26550
 Alpha  occ. eigenvalues --  -10.26471 -10.26409 -10.26376 -10.26345 -10.26280
 Alpha  occ. eigenvalues --  -10.26238 -10.25941 -10.25868 -10.25623 -10.25558
 Alpha  occ. eigenvalues --  -10.25349 -10.25090 -10.25015 -10.24977 -10.24918
 Alpha  occ. eigenvalues --  -10.24557  -3.17757  -3.17566  -1.92653  -1.92443
 Alpha  occ. eigenvalues --   -1.92199  -1.92058  -1.92042  -1.91849  -1.17422
 Alpha  occ. eigenvalues --   -1.16032  -1.11726  -1.09058  -1.08402  -1.07999
 Alpha  occ. eigenvalues --   -1.07837  -1.07116  -1.04989  -1.04548  -1.04070
 Alpha  occ. eigenvalues --   -1.03020  -1.02737  -1.02689  -1.01521  -1.01422
 Alpha  occ. eigenvalues --   -0.94077  -0.91207  -0.89288  -0.89051  -0.88924
 Alpha  occ. eigenvalues --   -0.88756  -0.88675  -0.88178  -0.87797  -0.87491
 Alpha  occ. eigenvalues --   -0.87236  -0.86332  -0.85852  -0.85459  -0.85106
 Alpha  occ. eigenvalues --   -0.84397  -0.84135  -0.83770  -0.83358  -0.82809
 Alpha  occ. eigenvalues --   -0.82596  -0.82501  -0.81464  -0.80905  -0.80662
 Alpha  occ. eigenvalues --   -0.80444  -0.78631  -0.78202  -0.77999  -0.77528
 Alpha  occ. eigenvalues --   -0.77066  -0.76522  -0.76170  -0.75457  -0.74964
 Alpha  occ. eigenvalues --   -0.74910  -0.72520  -0.72155  -0.72131  -0.71424
 Alpha  occ. eigenvalues --   -0.70155  -0.69129  -0.68851  -0.68785  -0.67852
 Alpha  occ. eigenvalues --   -0.67399  -0.67136  -0.66567  -0.66357  -0.65343
 Alpha  occ. eigenvalues --   -0.65222  -0.65094  -0.64945  -0.64419  -0.64397
 Alpha  occ. eigenvalues --   -0.64283  -0.63833  -0.62024  -0.60249  -0.59906
 Alpha  occ. eigenvalues --   -0.59741  -0.59346  -0.59100  -0.58834  -0.58418
 Alpha  occ. eigenvalues --   -0.58393  -0.58222  -0.58029  -0.57403  -0.57080
 Alpha  occ. eigenvalues --   -0.56849  -0.56593  -0.55967  -0.55812  -0.55541
 Alpha  occ. eigenvalues --   -0.55166  -0.55043  -0.54526  -0.54307  -0.54259
 Alpha  occ. eigenvalues --   -0.53992  -0.53960  -0.53761  -0.53534  -0.53490
 Alpha  occ. eigenvalues --   -0.53081  -0.52952  -0.52728  -0.52575  -0.52491
 Alpha  occ. eigenvalues --   -0.52439  -0.51896  -0.51895  -0.51832  -0.51439
 Alpha  occ. eigenvalues --   -0.51238  -0.51087  -0.50927  -0.50538  -0.50403
 Alpha  occ. eigenvalues --   -0.50337  -0.50200  -0.50108  -0.49606  -0.49498
 Alpha  occ. eigenvalues --   -0.49476  -0.49124  -0.49101  -0.48917  -0.48759
 Alpha  occ. eigenvalues --   -0.48692  -0.48634  -0.48482  -0.48184  -0.48165
 Alpha  occ. eigenvalues --   -0.47984  -0.47829  -0.47635  -0.47416  -0.47103
 Alpha  occ. eigenvalues --   -0.46731  -0.46602  -0.46530  -0.46435  -0.46413
 Alpha  occ. eigenvalues --   -0.46217  -0.46077  -0.46059  -0.45833  -0.45743
 Alpha  occ. eigenvalues --   -0.45648  -0.45369  -0.45239  -0.44865  -0.44664
 Alpha  occ. eigenvalues --   -0.44627  -0.44620  -0.44546  -0.44527  -0.44335
 Alpha  occ. eigenvalues --   -0.44070  -0.43739  -0.43731  -0.43554  -0.43441
 Alpha  occ. eigenvalues --   -0.43141  -0.43010  -0.42825  -0.42819  -0.42446
 Alpha  occ. eigenvalues --   -0.42350  -0.42311  -0.42252  -0.41986  -0.41911
 Alpha  occ. eigenvalues --   -0.41901  -0.41790  -0.41450  -0.41280  -0.41157
 Alpha  occ. eigenvalues --   -0.41113  -0.40966  -0.40766  -0.40488  -0.40210
 Alpha  occ. eigenvalues --   -0.39826  -0.39534  -0.39200  -0.38829  -0.38685
 Alpha  occ. eigenvalues --   -0.38535  -0.37854  -0.37836  -0.37699  -0.37525
 Alpha  occ. eigenvalues --   -0.37254  -0.37070  -0.36940  -0.36894  -0.36132
 Alpha  occ. eigenvalues --   -0.35974  -0.34773  -0.34700  -0.33999  -0.33982
 Alpha  occ. eigenvalues --   -0.33810  -0.33111  -0.33084  -0.31785  -0.31719
 Alpha  occ. eigenvalues --   -0.31386  -0.30883  -0.30615  -0.30449  -0.30105
 Alpha  occ. eigenvalues --   -0.30064  -0.29320  -0.28993  -0.24303  -0.24240
 Alpha  occ. eigenvalues --   -0.21672  -0.20191
 Alpha virt. eigenvalues --   -0.09146  -0.07562  -0.02498  -0.01888   0.00019
 Alpha virt. eigenvalues --    0.00144   0.01337   0.01826   0.02009   0.02412
 Alpha virt. eigenvalues --    0.04875   0.04983   0.05468   0.05506   0.06026

 Mulliken charges:
               1
     1  Mg   0.798088
     2  C    0.012031
     3  C   -0.057721
     4  C   -0.074878
     5  C   -0.069395
     6  N   -0.239856
     7  C   -0.031581
     8  C   -0.030231
     9  C   -0.077640
    10  C    0.066839
    11  C    0.065552
    12  C    0.047162
    13  C   -0.074962
    14  H    0.019475
    15  N   -0.433553
    16  C    0.129011
    17  C   -0.132412
    18  C   -0.006639
    19  C    0.148034
    20  C    0.133178
    21  C   -0.016208
    22  O   -0.242226
    23  C    0.084002
    24  N   -0.253719
    25  C    0.012193
    26  C   -0.005329
    27  C   -0.034248
    28  C    0.078921
    29  C    0.065243
    30  C    0.032752
    31  C   -0.000106
    32  N   -0.354109
    33  C    0.076913
    34  C   -0.160968
    35  C    0.052221
    36  C    0.082305
    37  C    0.092185
    38  C   -0.004239
    39  O   -0.166205
    40  C   -0.005006
    41  C    0.184400
    42  O   -0.197415
    43  O   -0.322805
    44  C    0.181840
    45  H   -0.028821
    46  H   -0.058546
    47  H   -0.033108
    48  H   -0.003180
    49  H    0.010760
    50  H    0.015804
    51  H    0.005776
    52  H    0.017977
    53  H    0.000141
    54  H    0.007559
    55  H    0.057199
    56  H    0.043825
    57  H    0.028990
    58  H    0.009150
    59  H    0.039473
    60  H    0.033977
    61  H    0.054622
    62  H    0.027246
    63  H    0.023319
    64  H    0.016279
    65  H    0.015925
    66  H    0.029067
    67  H    0.005119
    68  H    0.011788
    69  H    0.004200
    70  H    0.012590
    71  H    0.012480
    72  H    0.024998
    73  H    0.015360
    74  H    0.034390
    75  H    0.015774
    76  H    0.059728
    77  H    0.045672
    78  H    0.040604
    79  H    0.032967
    80  Mg   0.811227
    81  C    0.053138
    82  C   -0.123025
    83  C   -0.063814
    84  C   -0.065436
    85  N   -0.267895
    86  C   -0.054881
    87  C   -0.044100
    88  C   -0.099860
    89  C    0.112771
    90  C    0.068886
    91  C    0.138603
    92  C   -0.083139
    93  H   -0.006579
    94  N   -0.362782
    95  C    0.148167
    96  C   -0.139284
    97  C   -0.064737
    98  C    0.139338
    99  C    0.103295
   100  C   -0.015282
   101  O   -0.185042
   102  C    0.069082
   103  N   -0.322258
   104  C    0.034101
   105  C   -0.048992
   106  C   -0.011822
   107  C    0.064130
   108  C    0.078936
   109  C    0.007251
   110  C    0.029986
   111  N   -0.332873
   112  C    0.080402
   113  C   -0.182295
   114  C    0.030894
   115  C    0.076661
   116  C    0.117221
   117  C    0.052323
   118  O   -0.200674
   119  C   -0.080703
   120  C    0.223707
   121  O   -0.248566
   122  O   -0.309994
   123  C    0.170757
   124  H   -0.035024
   125  H    0.002007
   126  H   -0.033076
   127  H   -0.004801
   128  H   -0.000963
   129  H    0.028223
   130  H    0.011854
   131  H    0.014442
   132  H   -0.009244
   133  H    0.049581
   134  H    0.031246
   135  H    0.021234
   136  H    0.030229
   137  H    0.013484
   138  H    0.050662
   139  H    0.035183
   140  H    0.045111
   141  H    0.034456
   142  H    0.016505
   143  H    0.007030
   144  H    0.017633
   145  H    0.024261
   146  H    0.016131
   147  H    0.003792
   148  H    0.003979
   149  H    0.022777
   150  H    0.008366
   151  H    0.020796
   152  H    0.040149
   153  H    0.033945
   154  H    0.013510
   155  H    0.060433
   156  H    0.051633
   157  H    0.033603
   158  H    0.044006
 Sum of Mulliken charges =  -0.00000

 Dipole moment (field-independent basis, Debye):
    X=             -1.3244    Y=             -0.5824    Z=             -0.0504  Tot=              1.4477
 Quadrupole moment (field-independent basis, Debye-Ang):
   XX=           -279.1006   YY=           -576.4956   ZZ=           -494.9652
   XY=           -195.7767   XZ=             -0.4692   YZ=             -1.8180

 Normal termination of Gaussian 16 at Wed Sep 15 18:06:56 2021.
