 Gaussian 16, Revision A.03,
 Gaussian 16:  ES64L-G16RevA.03 25-Dec-2016

 -----------------------------------
 #p cam-b3lyp/Def2SVP td=(nstates=5)
 -----------------------------------

 --------------------------------
 TDDFT excited states in gaussian
 --------------------------------
 Symbolic Z-matrix:
 Charge =  0 Multiplicity = 1

                         Standard orientation:
 ---------------------------------------------------------------------
 Center     Atomic      Atomic             Coordinates (Angstroms)
 Number     Number       Type             X           Y           Z
 ---------------------------------------------------------------------
      1         12           0      -29.399895    0.392316   -0.330032
      2          6           0      -26.143504   -0.804839   -0.151502
      3          6           0      -30.423176   -3.032309   -0.139267
      4          6           0      -32.515530    1.385209    0.005025
      5          6           0      -28.158040    3.635370    0.215973
      6          7           0      -28.385670   -1.645934   -0.043338
      7          6           0      -27.023603   -1.840095   -0.096734
      8          6           0      -26.697864   -3.329343    0.045760
      9          6           0      -28.079030   -3.982861   -0.236242
     10          6           0      -29.049903   -2.840056   -0.095856
     11          6           0      -28.299360   -4.713812   -1.618609
     12          6           0      -26.118954   -3.691180    1.423420
     13          6           0      -25.625923   -5.080223    1.567056
     14          1           0      -24.576976   -5.355394    2.711210
     15          7           0      -31.255018   -0.671030   -0.083258
     16          6           0      -31.462346   -2.059012   -0.058384
     17          6           0      -32.872544   -2.295582    0.077555
     18          6           0      -33.496446   -1.006681    0.260841
     19          6           0      -32.395212   -0.008218    0.033393
     20          6           0      -33.484244   -3.720015    0.181043
     21          6           0      -34.995371   -0.843847    0.532327
     22          8           0      -35.769320   -1.784134    0.462518
     23          6           0      -35.520270    0.496412    0.881147
     24          7           0      -30.205239    2.287542   -0.164515
     25          6           0      -31.533315    2.423314   -0.085423
     26          6           0      -31.898812    3.934513    0.208590
     27          6           0      -30.522918    4.693798    0.341263
     28          6           0      -29.517367    3.428609    0.167767
     29          6           0      -32.919674    4.622328   -0.735551
     30          6           0      -30.399611    5.335981    1.739618
     31          6           0      -29.545721    6.608299    1.801049
     32          7           0      -27.542623    1.322605   -0.022390
     33          6           0      -27.174247    2.636454    0.056534
     34          6           0      -25.708960    2.710797    0.013183
     35          6           0      -25.294109    1.417452   -0.158679
     36          6           0      -26.399739    0.599005   -0.109962
     37          6           0      -24.870395    3.993023    0.005476
     38          6           0      -24.133968    0.586388   -0.277164
     39          8           0      -22.957117    0.843855   -0.341300
     40          6           0      -24.640073   -0.894716   -0.292351
     41          6           0      -24.294486   -1.473031   -1.619968
     42          8           0      -24.507724   -0.992894   -2.698600
     43          8           0      -23.789558   -2.770135   -1.423760
     44          6           0      -23.479973   -3.502813   -2.618450
     45          1           0      -30.632541   -4.103012   -0.175187
     46          1           0      -33.493892    1.862761    0.095165
     47          1           0      -27.735826    4.637793    0.313890
     48          1           0      -26.038423   -3.568946   -0.787304
     49          1           0      -28.427251   -4.699620    0.506641
     50          1           0      -28.688038   -5.692426   -1.337729
     51          1           0      -27.537258   -4.589060   -2.388323
     52          1           0      -29.149246   -4.221741   -2.091309
     53          1           0      -26.822592   -3.651406    2.255375
     54          1           0      -25.318292   -2.997820    1.681130
     55          1           0      -25.196693   -5.358883    0.604658
     56          1           0      -26.479798   -5.744002    1.701562
     57          1           0      -33.684659   -3.700023    1.252749
     58          1           0      -32.786590   -4.549537    0.064066
     59          1           0      -34.370540   -4.036116   -0.369411
     60          1           0      -34.858818    0.851229    1.671510
     61          1           0      -36.514145    0.374284    1.312028
     62          1           0      -35.441578    1.049191   -0.055308
     63          1           0      -32.399740    3.926228    1.177043
     64          1           0      -30.319906    5.426359   -0.439270
     65          1           0      -33.861627    4.723302   -0.195512
     66          1           0      -32.972530    4.052261   -1.662498
     67          1           0      -32.612109    5.651208   -0.922283
     68          1           0      -29.975135    4.553060    2.367559
     69          1           0      -31.355938    5.535111    2.223651
     70          1           0      -30.237408    7.344114    2.212658
     71          1           0      -29.096911    6.900305    0.851543
     72          1           0      -28.744679    6.490742    2.530954
     73          1           0      -23.991966    4.001132    0.649915
     74          1           0      -25.608073    4.741744    0.295150
     75          1           0      -24.701713    4.232696   -1.044502
     76          1           0      -24.112611   -1.405048    0.513621
     77          1           0      -22.392887   -3.568593   -2.664291
     78          1           0      -23.849321   -3.142600   -3.578922
     79          1           0      -23.916054   -4.495508   -2.510010
     80         12           0       28.796591    0.675672   -0.451215
     81          6           0       28.340424   -2.783050    0.370710
     82          6           0       25.816194    1.319850    1.343595
     83          6           0       29.564076    3.941557   -0.523657
     84          6           0       31.974217   -0.098693   -1.554133
     85          7           0       27.221422   -0.582402    0.730238
     86          6           0       27.338298   -1.932833    0.905890
     87          6           0       26.346940   -2.397511    1.960941
     88          6           0       25.418738   -1.111949    1.994966
     89          6           0       26.150106   -0.008424    1.330626
     90          6           0       23.989540   -1.242558    1.369203
     91          6           0       27.105181   -2.833811    3.255488
     92          6           0       26.698737   -4.174994    3.993601
     93          1           0       26.171416   -4.120669    5.438714
     94          7           0       27.803864    2.358762    0.100171
     95          6           0       26.580693    2.447063    0.815736
     96          6           0       26.192105    3.834652    0.988224
     97          6           0       27.307567    4.590577    0.441522
     98          6           0       28.270069    3.611151   -0.026935
     99          6           0       24.980215    4.214028    1.732242
    100          6           0       27.330631    6.128449    0.399424
    101          8           0       26.364151    6.718392    0.964889
    102          6           0       28.422410    6.990549   -0.269223
    103          7           0       30.628909    1.850430   -0.715599
    104          6           0       30.639512    3.160447   -0.870744
    105          6           0       32.027961    3.585210   -1.225176
    106          6           0       32.744454    2.261384   -1.603655
    107          6           0       31.744307    1.227776   -1.185636
    108          6           0       32.257555    4.716277   -2.316624
    109          6           0       34.189032    2.037611   -0.916595
    110          6           0       35.439994    1.983629   -1.827436
    111          7           0       29.864969   -1.032690   -0.764897
    112          6           0       31.121142   -1.203798   -1.210249
    113          6           0       31.475251   -2.575064   -1.256290
    114          6           0       30.381995   -3.228278   -0.682564
    115          6           0       29.422060   -2.239263   -0.349943
    116          6           0       32.685761   -3.247082   -1.767473
    117          6           0       29.955240   -4.539190   -0.301173
    118          8           0       30.566469   -5.581605   -0.374091
    119          6           0       28.525357   -4.274015    0.493822
    120          6           0       27.440902   -5.003857   -0.173670
    121          8           0       27.263997   -5.069111   -1.396766
    122          8           0       26.666673   -5.558661    0.822965
    123          6           0       25.514199   -6.345897    0.387806
    124          1           0       24.903419    1.582849    1.880354
    125          1           0       29.909253    4.976166   -0.476920
    126          1           0       32.866172   -0.414041   -2.099840
    127          1           0       25.747660   -3.178546    1.492316
    128          1           0       25.469751   -0.922736    3.067849
    129          1           0       23.901875   -0.475471    0.598462
    130          1           0       23.176040   -1.065544    2.072408
    131          1           0       23.789007   -2.176091    0.842575
    132          1           0       26.872852   -1.978706    3.889856
    133          1           0       28.192251   -2.862451    3.184396
    134          1           0       27.591439   -4.798023    3.941810
    135          1           0       26.027478   -4.729540    3.338568
    136          1           0       25.040091    3.703365    2.693643
    137          1           0       24.097818    3.810746    1.235846
    138          1           0       24.743825    5.275082    1.816326
    139          1           0       29.321617    6.927544    0.343828
    140          1           0       27.908640    7.917232   -0.522835
    141          1           0       28.589024    6.472085   -1.214037
    142          1           0       32.458507    4.018508   -0.323261
    143          1           0       32.688145    2.283673   -2.692046
    144          1           0       33.198264    5.183760   -2.024641
    145          1           0       31.406853    5.397136   -2.292195
    146          1           0       32.370606    4.203578   -3.272011
    147          1           0       34.066514    1.105351   -0.365495
    148          1           0       34.291289    2.780483   -0.125637
    149          1           0       36.076702    1.124686   -1.619732
    150          1           0       36.006312    2.905586   -1.692966
    151          1           0       35.207347    1.996289   -2.892408
    152          1           0       32.511448   -4.306307   -1.953897
    153          1           0       33.324829   -3.066649   -0.902908
    154          1           0       33.146927   -2.591493   -2.506033
    155          1           0       28.627064   -4.456933    1.562941
    156          1           0       25.794858   -7.099965   -0.347877
    157          1           0       24.746851   -5.683702   -0.015861
    158          1           0       25.107343   -6.873077    1.250771
 ---------------------------------------------------------------------

 SCF Done:  E(RCAM-B3LYP) =  -4069.79612693     A.U. after   18 cycles

 Excitation energies and oscillator strengths:

 Excited State   1:      Singlet-A      1.6989 eV  729.77 nm  f=0.3901  <S**2>=0.000
     310 -> 316       -0.18531
     312 -> 314        0.68537
     310 <- 316       -0.11148
 This state for optimization and/or second-order correction.
 Total Energy, E(TD-HF/TD-DFT) =  -4069.73369198
 Copying the excited state density for this state as the 1-particle RhoCI density.

 Excited State   2:      Singlet-A      1.7655 eV  702.26 nm  f=0.3961  <S**2>=0.000
     309 -> 315       -0.17238
     311 -> 313        0.68748
     309 <- 315       -0.10344

 Excited State   3:      Singlet-A      2.2522 eV  550.50 nm  f=0.1327  <S**2>=0.000
     310 -> 314        0.64093
     312 -> 316        0.28919

 Excited State   4:      Singlet-A      2.2943 eV  540.41 nm  f=0.1178  <S**2>=0.000
     309 -> 313        0.63734
     311 -> 315        0.29069

 Excited State   5:      Singlet-A      3.1782 eV  390.11 nm  f=0.0000  <S**2>=0.000
     312 -> 313        0.70710

 The electronic state is 1-A.
 Alpha  occ. eigenvalues --  -46.89668 -46.88903 -19.26273 -19.24952 -19.20557
 Alpha  occ. eigenvalues --  -19.20504 -19.19738 -19.18698 -19.18534 -19.18128
 Alpha  occ. eigenvalues --  -14.42664 -14.42352 -14.41930 -14.41397 -14.40233
 Alpha  occ. eigenvalues --  -14.39929 -14.39823 -14.39102 -10.40094 -10.39513
 Alpha  occ. eigenvalues --  -10.35445 -10.35241 -10.34866 -10.34161 -10.32450
 Alpha  occ. eigenvalues --  -10.32367 -10.31600 -10.31232 -10.31187 -10.31184
 Alpha  occ. eigenvalues --  -10.31126 -10.31083 -10.30771 -10.30633 -10.30569
 Alpha  occ. eigenvalues --  -10.30396 -10.30324 -10.30306 -10.29753 -10.29549
 Alpha  occ. eigenvalues --  -10.29240 -10.29078 -10.28945 -10.28729 -10.28596
 Alpha  occ. eigenvalues --  -10.28558 -10.28355 -10.28256 -10.28237 -10.28193
 Alpha  occ. eigenvalues --  -10.28176 -10.28098 -10.27910 -10.27794 -10.27775
 Alpha  occ. eigenvalues --  -10.27752 -10.27750 -10.27622 -10.27588 -10.27531
 Alpha  occ. eigenvalues --  -10.27515 -10.27484 -10.27467 -10.27451 -10.27419
 Alpha  occ. eigenvalues --  -10.27229 -10.27195 -10.26993 -10.26928 -10.26806
 Alpha  occ. eigenvalues --  -10.26783 -10.26672 -10.26542 -10.26505 -10.26432
 Alpha  occ. eigenvalues --  -10.26412 -10.26401 -10.26247 -10.26232 -10.26082
 Alpha  occ. eigenvalues --  -10.26072 -10.26065 -10.25632 -10.25043 -10.24559
 Alpha  occ. eigenvalues --  -10.23991  -3.18089  -3.17457  -1.92995  -1.92547
 Alpha  occ. eigenvalues --   -1.92376  -1.92347  -1.91901  -1.91774  -1.16626
 Alpha  occ. eigenvalues --   -1.16543  -1.10818  -1.10344  -1.10124  -1.08836
 Alpha  occ. eigenvalues --   -1.08167  -1.07238  -1.05449  -1.04722  -1.04601
 Alpha  occ. eigenvalues --   -1.03797  -1.03739  -1.03729  -1.02831  -1.02336
 Alpha  occ. eigenvalues --   -0.93273  -0.93178  -0.89423  -0.89323  -0.89241
 Alpha  occ. eigenvalues --   -0.88845  -0.88281  -0.88129  -0.88100  -0.87969
 Alpha  occ. eigenvalues --   -0.87472  -0.86466  -0.86003  -0.85955  -0.85221
 Alpha  occ. eigenvalues --   -0.84633  -0.84055  -0.83856  -0.83171  -0.82725
 Alpha  occ. eigenvalues --   -0.82594  -0.82014  -0.81363  -0.81308  -0.80860
 Alpha  occ. eigenvalues --   -0.80482  -0.78219  -0.77768  -0.77644  -0.77359
 Alpha  occ. eigenvalues --   -0.77120  -0.76875  -0.76296  -0.76213  -0.75534
 Alpha  occ. eigenvalues --   -0.75342  -0.73254  -0.73193  -0.72211  -0.72054
 Alpha  occ. eigenvalues --   -0.69810  -0.69385  -0.69344  -0.69079  -0.68481
 Alpha  occ. eigenvalues --   -0.67796  -0.66773  -0.66747  -0.66152  -0.66105
 Alpha  occ. eigenvalues --   -0.65632  -0.65588  -0.65115  -0.64988  -0.64762
 Alpha  occ. eigenvalues --   -0.64623  -0.62957  -0.62705  -0.60247  -0.60142
 Alpha  occ. eigenvalues --   -0.59906  -0.59900  -0.59544  -0.59321  -0.58915
 Alpha  occ. eigenvalues --   -0.58863  -0.58466  -0.58429  -0.57591  -0.57580
 Alpha  occ. eigenvalues --   -0.56512  -0.56237  -0.55981  -0.55911  -0.55646
 Alpha  occ. eigenvalues --   -0.55485  -0.54937  -0.54858  -0.54501  -0.54397
 Alpha  occ. eigenvalues --   -0.54034  -0.53691  -0.53581  -0.53327  -0.53290
 Alpha  occ. eigenvalues --   -0.53157  -0.52934  -0.52654  -0.52631  -0.52094
 Alpha  occ. eigenvalues --   -0.51914  -0.51763  -0.51731  -0.51665  -0.51411
 Alpha  occ. eigenvalues --   -0.51226  -0.50849  -0.50745  -0.50578  -0.50374
 Alpha  occ. eigenvalues --   -0.50335  -0.50295  -0.50026  -0.49969  -0.49885
 Alpha  occ. eigenvalues --   -0.49564  -0.49406  -0.49325  -0.49055  -0.48867
 Alpha  occ. eigenvalues --   -0.48784  -0.48461  -0.48306  -0.48110  -0.47935
 Alpha  occ. eigenvalues --   -0.47740  -0.47650  -0.47589  -0.47548  -0.47447
 Alpha  occ. eigenvalues --   -0.47387  -0.47163  -0.47103  -0.47028  -0.46642
 Alpha  occ. eigenvalues --   -0.46474  -0.46450  -0.46411  -0.46157  -0.46123
 Alpha  occ. eigenvalues --   -0.45931  -0.45816  -0.45618  -0.45372  -0.45335
 Alpha  occ. eigenvalues --   -0.45140  -0.44978  -0.44683  -0.44535  -0.44175
 Alpha  occ. eigenvalues --   -0.43922  -0.43773  -0.43701  -0.43653  -0.43554
 Alpha  occ. eigenvalues --   -0.43327  -0.43272  -0.43244  -0.43081  -0.42965
 Alpha  occ. eigenvalues --   -0.42943  -0.42804  -0.42723  -0.42390  -0.42320
 Alpha  occ. eigenvalues --   -0.42303  -0.42041  -0.41870  -0.41548  -0.41521
 Alpha  occ. eigenvalues --   -0.41225  -0.41101  -0.40850  -0.40617  -0.40331
 Alpha  occ. eigenvalues --   -0.40272  -0.40225  -0.39928  -0.39722  -0.38922
 Alpha  occ. eigenvalues --   -0.38826  -0.38741  -0.38244  -0.38054  -0.37720
 Alpha  occ. eigenvalues --   -0.37683  -0.37634  -0.36915  -0.36528  -0.36443
 Alpha  occ. eigenvalues --   -0.36098  -0.35848  -0.35256  -0.35185  -0.34254
 Alpha  occ. eigenvalues --   -0.34108  -0.33731  -0.33013  -0.31772  -0.31326
 Alpha  occ. eigenvalues --   -0.31122  -0.31043  -0.30663  -0.30328  -0.30131
 Alpha  occ. eigenvalues --   -0.30106  -0.29955  -0.29365  -0.24676  -0.24166
 Alpha  occ. eigenvalues --   -0.21670  -0.21308
 Alpha virt. eigenvalues --   -0.09039  -0.08924  -0.01947  -0.01727   0.00287
 Alpha virt. eigenvalues --    0.00911   0.02025   0.02305   0.02430   0.02721
 Alpha virt. eigenvalues --    0.04252   0.04407   0.05013   0.05392   0.05816

 Mulliken charges:
               1
     1  Mg   0.819422
     2  C    0.006831
     3  C   -0.063020
     4  C   -0.089723
     5  C   -0.063102
     6  N   -0.264032
     7  C   -0.106165
     8  C    0.076791
     9  C   -0.101754
    10  C    0.006178
    11  C    0.083467
    12  C    0.079428
    13  C   -0.054119
    14  H    0.025136
    15  N   -0.352377
    16  C    0.164017
    17  C   -0.119929
    18  C   -0.079718
    19  C    0.210343
    20  C    0.108906
    21  C   -0.024732
    22  O   -0.198838
    23  C    0.067343
    24  N   -0.318207
    25  C    0.038786
    26  C   -0.072150
    27  C   -0.045996
    28  C    0.073381
    29  C    0.071524
    30  C    0.009602
    31  C    0.015621
    32  N   -0.337724
    33  C    0.071525
    34  C   -0.219930
    35  C    0.070815
    36  C    0.099108
    37  C    0.148644
    38  C    0.009753
    39  O   -0.147646
    40  C   -0.000620
    41  C    0.189457
    42  O   -0.181721
    43  O   -0.348333
    44  C    0.164109
    45  H   -0.031018
    46  H   -0.042636
    47  H   -0.031348
    48  H   -0.002957
    49  H    0.005803
    50  H    0.021130
    51  H    0.026174
    52  H    0.008152
    53  H    0.004402
    54  H    0.011773
    55  H    0.014317
    56  H    0.017992
    57  H    0.035808
    58  H   -0.003336
    59  H    0.050475
    60  H    0.031110
    61  H    0.030872
    62  H    0.058551
    63  H    0.015108
    64  H    0.017526
    65  H    0.014325
    66  H    0.028269
    67  H    0.012881
    68  H    0.008925
    69  H    0.006506
    70  H    0.015384
    71  H    0.022925
    72  H    0.016388
    73  H    0.047916
    74  H   -0.016023
    75  H    0.035051
    76  H    0.042146
    77  H    0.038405
    78  H    0.044915
    79  H    0.023743
    80  Mg   0.845524
    81  C   -0.112941
    82  C   -0.073127
    83  C   -0.091014
    84  C   -0.092594
    85  N   -0.247135
    86  C   -0.075165
    87  C   -0.009282
    88  C   -0.029550
    89  C    0.035780
    90  C    0.076707
    91  C    0.033467
    92  C   -0.045956
    93  H    0.033768
    94  N   -0.393845
    95  C    0.113899
    96  C   -0.127914
    97  C   -0.056958
    98  C    0.207485
    99  C    0.128623
   100  C   -0.019434
   101  O   -0.248917
   102  C    0.082580
   103  N   -0.275373
   104  C   -0.016078
   105  C   -0.039368
   106  C   -0.051976
   107  C    0.065265
   108  C    0.078734
   109  C    0.053590
   110  C    0.008852
   111  N   -0.340873
   112  C    0.091971
   113  C   -0.194214
   114  C   -0.020890
   115  C    0.159300
   116  C    0.167680
   117  C    0.065257
   118  O   -0.152086
   119  C    0.021603
   120  C    0.224363
   121  O   -0.224388
   122  O   -0.341399
   123  C    0.178504
   124  H   -0.025585
   125  H   -0.057480
   126  H   -0.022575
   127  H   -0.004136
   128  H    0.003351
   129  H    0.016666
   130  H    0.023103
   131  H    0.015155
   132  H    0.006909
   133  H    0.030304
   134  H    0.025803
   135  H    0.020592
   136  H    0.025877
   137  H    0.010165
   138  H    0.043824
   139  H    0.062286
   140  H    0.038780
   141  H    0.023403
   142  H    0.011759
   143  H    0.009056
   144  H    0.018281
   145  H    0.020286
   146  H    0.011082
   147  H    0.009907
   148  H    0.000811
   149  H    0.024627
   150  H    0.014029
   151  H    0.012619
   152  H    0.056975
   153  H    0.022572
   154  H    0.007141
   155  H    0.030630
   156  H    0.047769
   157  H    0.035001
   158  H    0.038538
 Sum of Mulliken charges =  -0.00000

 Dipole moment (field-independent basis, Debye):
    X=             -1.6442    Y=              1.3689    Z=              0.5613  Tot=              2.2119
 Quadrupole moment (field-independent basis, Debye-Ang):
   XX=           -314.3273   YY=           -511.2294   ZZ=           -514.5535
   XY=             20.0599   XZ=            -16.0567   YZ=            -11.0514

 Normal termination of Gaussian 16 at Thu Sep 16 11:26:17 2021.
