 Gaussian 16, Revision A.03,
 Gaussian 16:  ES64L-G16RevA.03 25-Dec-2016

 ----------------------------------------------------------
 #p cam-b3lyp/Def2SVP td=(nstates=5) density=(transition=1)
 ----------------------------------------------------------

 --------------------------------
 TDDFT excited states in gaussian
 --------------------------------
 Symbolic Z-matrix:
 Charge =  0 Multiplicity = 1

                         Standard orientation:
 ---------------------------------------------------------------------
 Center     Atomic      Atomic             Coordinates (Angstroms)
 Number     Number       Type             X           Y           Z
 ---------------------------------------------------------------------
      1         12           0       31.384913    0.457412   -0.704835
      2          6           0       28.825789   -2.014246   -0.567257
      3          6           0       29.016288    2.896911   -0.291064
      4          6           0       33.917447    2.692415    0.210639
      5          6           0       33.779200   -2.109027   -0.533824
      6          7           0       29.110535    0.320497   -0.194605
      7          6           0       28.284449   -0.712446   -0.427751
      8          6           0       26.876757   -0.189982   -0.649110
      9          6           0       26.904646    1.406190   -0.492934
     10          6           0       28.510578    1.542995   -0.464005
     11          6           0       26.246947    2.039760   -1.739448
     12          6           0       25.899192   -0.842092    0.315361
     13          6           0       26.405371   -1.101089    1.754282
     14          1           0       25.838622   -0.184064    2.872379
     15          7           0       31.476629    2.575258   -0.194771
     16          6           0       30.343391    3.350133   -0.076317
     17          6           0       30.807102    4.691745    0.091091
     18          6           0       32.232071    4.698459    0.342195
     19          6           0       32.643698    3.295645    0.082474
     20          6           0       29.867164    5.864175    0.251188
     21          6           0       33.083318    5.842365    0.895595
     22          8           0       32.559145    6.892883    1.212083
     23          6           0       34.499799    5.751131    1.087016
     24          7           0       33.520766    0.311071   -0.127186
     25          6           0       34.314527    1.358417    0.040778
     26          6           0       35.759707    0.980799    0.322527
     27          6           0       35.603187   -0.596366    0.439396
     28          6           0       34.265537   -0.846746   -0.157845
     29          6           0       36.785984    1.433043   -0.827472
     30          6           0       35.797405   -1.066940    1.954008
     31          6           0       36.997625   -1.877979    2.353012
     32          7           0       31.368311   -1.548996   -0.820865
     33          6           0       32.437593   -2.466647   -0.866107
     34          6           0       31.940204   -3.833003   -1.112506
     35          6           0       30.560976   -3.647512   -1.019335
     36          6           0       30.213393   -2.284212   -0.718686
     37          6           0       32.731175   -5.130366   -1.498739
     38          6           0       29.299063   -4.392348   -1.075650
     39          8           0       29.025831   -5.585907   -1.284617
     40          6           0       28.130147   -3.387784   -0.807887
     41          6           0       27.586072   -3.966738    0.452360
     42          8           0       28.208844   -4.125905    1.470798
     43          8           0       26.345614   -4.403775    0.254924
     44          6           0       25.562542   -4.952379    1.416717
     45          1           0       28.275523    3.680851   -0.460954
     46          1           0       34.810813    3.283748    0.421096
     47          1           0       34.586214   -2.824807   -0.360893
     48          1           0       26.730241   -0.561449   -1.663359
     49          1           0       26.429073    1.745044    0.427837
     50          1           0       25.392524    2.629754   -1.408439
     51          1           0       25.855053    1.320864   -2.459430
     52          1           0       26.997563    2.705941   -2.163900
     53          1           0       25.580693   -1.804690   -0.084814
     54          1           0       25.022083   -0.209833    0.456349
     55          1           0       27.460563   -0.922494    1.960639
     56          1           0       26.146273   -2.142070    1.947828
     57          1           0       28.823435    5.549072    0.260894
     58          1           0       30.119749    6.595220   -0.517611
     59          1           0       30.147254    6.378717    1.169703
     60          1           0       34.826073    5.019194    1.826189
     61          1           0       34.881349    6.718279    1.413789
     62          1           0       34.853519    5.439612    0.103598
     63          1           0       36.120967    1.303491    1.298653
     64          1           0       36.508512   -0.933286   -0.065872
     65          1           0       36.251390    2.003147   -1.587831
     66          1           0       37.160703    0.524025   -1.298358
     67          1           0       37.670392    1.977491   -0.492988
     68          1           0       35.013173   -1.761689    2.254901
     69          1           0       35.775748   -0.215744    2.633138
     70          1           0       36.794251   -2.943277    2.462294
     71          1           0       37.200255   -1.428984    3.325910
     72          1           0       37.912450   -1.641610    1.809322
     73          1           0       33.221576   -5.497945   -0.597769
     74          1           0       33.408582   -4.861593   -2.309449
     75          1           0       32.012071   -5.896208   -1.788823
     76          1           0       27.486283   -3.437405   -1.686765
     77          1           0       25.763682   -6.007850    1.601494
     78          1           0       24.489383   -4.843343    1.254855
     79          1           0       25.856676   -4.332994    2.264016
     80         12           0      -31.530412   -0.024802   -0.290336
     81          6           0      -28.168195    0.771982    0.102150
     82          6           0      -30.676160   -3.358881    0.131386
     83          6           0      -34.719035   -0.873094   -0.094656
     84          6           0      -32.312957    3.345242   -0.195688
     85          7           0      -29.684435   -1.146901    0.232696
     86          6           0      -28.406352   -0.627629    0.205241
     87          6           0      -27.346087   -1.685006    0.295221
     88          6           0      -28.168538   -2.995467   -0.081023
     89          6           0      -29.597667   -2.516735    0.137295
     90          6           0      -27.870272   -3.833396   -1.413692
     91          6           0      -26.542212   -1.733385    1.676328
     92          6           0      -27.305543   -1.332015    2.973505
     93          1           0      -27.008048   -2.209444    4.165652
     94          7           0      -32.573167   -1.850331    0.099061
     95          6           0      -32.024000   -3.131845    0.230797
     96          6           0      -33.036588   -4.113869    0.506362
     97          6           0      -34.259148   -3.401786    0.469404
     98          6           0      -33.917718   -1.977206    0.179657
     99          6           0      -32.689661   -5.603475    0.493985
    100          6           0      -35.619015   -4.108320    0.671149
    101          8           0      -35.698519   -5.304501    0.968796
    102          6           0      -36.813918   -3.284791    0.432112
    103          7           0      -33.225438    1.132260   -0.042295
    104          6           0      -34.448358    0.524293   -0.271038
    105          6           0      -35.606082    1.536058   -0.418405
    106          6           0      -34.774740    2.866541   -0.201915
    107          6           0      -33.377159    2.445398   -0.090477
    108          6           0      -36.415890    1.549000   -1.676374
    109          6           0      -35.198816    3.661584    1.134683
    110          6           0      -35.370730    5.132681    0.859364
    111          7           0      -30.475573    1.772291   -0.284534
    112          6           0      -30.937990    3.074692   -0.246813
    113          6           0      -29.794491    4.014176   -0.195897
    114          6           0      -28.664313    3.135086   -0.059143
    115          6           0      -29.149537    1.823333   -0.115364
    116          6           0      -29.764430    5.475981   -0.003351
    117          6           0      -27.208822    3.015415    0.171053
    118          8           0      -26.391844    3.882608    0.378200
    119          6           0      -26.832908    1.500321    0.241857
    120          6           0      -25.806954    1.184414   -0.752695
    121          8           0      -24.659205    0.765329   -0.600858
    122          8           0      -26.253765    1.723781   -1.987466
    123          6           0      -25.377310    1.460805   -3.148923
    124          1           0      -30.344419   -4.392989    0.012845
    125          1           0      -35.788090   -1.042788   -0.237985
    126          1           0      -32.661843    4.378044   -0.249197
    127          1           0      -26.566063   -1.500644   -0.443394
    128          1           0      -27.908193   -3.636257    0.761796
    129          1           0      -27.009948   -3.506327   -1.997347
    130          1           0      -28.675917   -3.794368   -2.146730
    131          1           0      -27.555342   -4.840757   -1.140015
    132          1           0      -25.612468   -1.170836    1.598003
    133          1           0      -26.191726   -2.759977    1.782685
    134          1           0      -28.381062   -1.307376    2.795500
    135          1           0      -27.020537   -0.323348    3.271338
    136          1           0      -33.304480   -6.204307    1.164878
    137          1           0      -31.682276   -5.738350    0.886921
    138          1           0      -32.848562   -5.934540   -0.532565
    139          1           0      -36.885534   -3.081705   -0.635990
    140          1           0      -36.758180   -2.373397    1.028217
    141          1           0      -37.650955   -3.907080    0.748569
    142          1           0      -36.215041    1.465452    0.483165
    143          1           0      -34.852412    3.349572   -1.175932
    144          1           0      -37.011730    2.460937   -1.634935
    145          1           0      -37.135694    0.734074   -1.599460
    146          1           0      -35.767633    1.464084   -2.549334
    147          1           0      -34.426357    3.450567    1.874083
    148          1           0      -36.073028    3.295109    1.674268
    149          1           0      -34.559983    5.661842    1.359566
    150          1           0      -36.218214    5.559450    1.396808
    151          1           0      -35.247735    5.325691   -0.206142
    152          1           0      -30.736382    5.965822    0.071999
    153          1           0      -29.294612    5.883419   -0.897868
    154          1           0      -29.332799    5.530478    0.995860
    155          1           0      -26.459759    1.360577    1.256147
    156          1           0      -26.098436    1.160096   -3.909821
    157          1           0      -24.595587    0.702482   -3.103837
    158          1           0      -25.070355    2.451909   -3.483493
 ---------------------------------------------------------------------

 SCF Done:  E(RCAM-B3LYP) =  -4069.77020814     A.U. after   19 cycles

 Excitation energies and oscillator strengths:

 Excited State   1:      Singlet-A      1.6890 eV  734.07 nm  f=0.3501  <S**2>=0.000
     309 -> 315       -0.20077
     311 -> 313        0.68048
     309 <- 315       -0.11492
 This state for optimization and/or second-order correction.
 Total Energy, E(TD-HF/TD-DFT) =  -4069.70813898
 Copying the excited state density for this state as the 1-particle RhoCI density.

 Excited State   2:      Singlet-A      1.7179 eV  721.73 nm  f=0.3743  <S**2>=0.000
     310 -> 316        0.18176
     312 -> 314        0.68360
     310 <- 316        0.10500

 Excited State   3:      Singlet-A      2.1999 eV  563.59 nm  f=0.0737  <S**2>=0.000
     309 -> 313        0.61849
     311 -> 315        0.32997

 Excited State   4:      Singlet-A      2.2043 eV  562.47 nm  f=0.0869  <S**2>=0.000
     310 -> 314        0.62962
     312 -> 316       -0.30513

 Excited State   5:      Singlet-A      3.2413 eV  382.52 nm  f=0.0000  <S**2>=0.000
     312 -> 313        0.70711

 The electronic state is 1-A.
 Alpha  occ. eigenvalues --  -46.90212 -46.89113 -19.25076 -19.24350 -19.20546
 Alpha  occ. eigenvalues --  -19.19032 -19.18857 -19.18853 -19.18829 -19.18069
 Alpha  occ. eigenvalues --  -14.42431 -14.42243 -14.42214 -14.41974 -14.40139
 Alpha  occ. eigenvalues --  -14.39652 -14.39539 -14.39192 -10.39740 -10.38726
 Alpha  occ. eigenvalues --  -10.35126 -10.35114 -10.34969 -10.34322 -10.32458
 Alpha  occ. eigenvalues --  -10.32007 -10.31631 -10.31390 -10.31306 -10.31191
 Alpha  occ. eigenvalues --  -10.30979 -10.30928 -10.30738 -10.30705 -10.30687
 Alpha  occ. eigenvalues --  -10.30641 -10.30200 -10.30086 -10.29955 -10.29849
 Alpha  occ. eigenvalues --  -10.29361 -10.28966 -10.28855 -10.28819 -10.28727
 Alpha  occ. eigenvalues --  -10.28685 -10.28549 -10.28437 -10.28421 -10.28401
 Alpha  occ. eigenvalues --  -10.28383 -10.28349 -10.28215 -10.28168 -10.28154
 Alpha  occ. eigenvalues --  -10.28098 -10.28082 -10.28064 -10.27850 -10.27680
 Alpha  occ. eigenvalues --  -10.27670 -10.27440 -10.27307 -10.27170 -10.27145
 Alpha  occ. eigenvalues --  -10.27136 -10.27014 -10.26989 -10.26974 -10.26914
 Alpha  occ. eigenvalues --  -10.26911 -10.26797 -10.26737 -10.26592 -10.26414
 Alpha  occ. eigenvalues --  -10.26224 -10.26190 -10.26064 -10.26029 -10.25969
 Alpha  occ. eigenvalues --  -10.25786 -10.25760 -10.25637 -10.25518 -10.25394
 Alpha  occ. eigenvalues --  -10.25049  -3.18518  -3.17638  -1.93382  -1.93006
 Alpha  occ. eigenvalues --   -1.92796  -1.92522  -1.92109  -1.91932  -1.17063
 Alpha  occ. eigenvalues --   -1.14826  -1.10369  -1.10214  -1.09380  -1.08818
 Alpha  occ. eigenvalues --   -1.07703  -1.06908  -1.05079  -1.04601  -1.03725
 Alpha  occ. eigenvalues --   -1.03677  -1.03192  -1.02397  -1.02351  -1.01601
 Alpha  occ. eigenvalues --   -0.92472  -0.91945  -0.89663  -0.89229  -0.88951
 Alpha  occ. eigenvalues --   -0.88818  -0.88253  -0.87993  -0.87676  -0.87087
 Alpha  occ. eigenvalues --   -0.86887  -0.86192  -0.86119  -0.85356  -0.84840
 Alpha  occ. eigenvalues --   -0.84686  -0.84463  -0.84044  -0.82852  -0.82729
 Alpha  occ. eigenvalues --   -0.82617  -0.82393  -0.81093  -0.80851  -0.80253
 Alpha  occ. eigenvalues --   -0.80160  -0.78328  -0.77900  -0.77510  -0.77347
 Alpha  occ. eigenvalues --   -0.76855  -0.76388  -0.76298  -0.76225  -0.75756
 Alpha  occ. eigenvalues --   -0.74964  -0.72855  -0.72652  -0.72148  -0.71721
 Alpha  occ. eigenvalues --   -0.69434  -0.69371  -0.68899  -0.68526  -0.68119
 Alpha  occ. eigenvalues --   -0.68097  -0.66836  -0.66680  -0.66421  -0.65582
 Alpha  occ. eigenvalues --   -0.65192  -0.64910  -0.64754  -0.64516  -0.64029
 Alpha  occ. eigenvalues --   -0.64008  -0.62551  -0.62417  -0.60284  -0.60284
 Alpha  occ. eigenvalues --   -0.59386  -0.59271  -0.58978  -0.58950  -0.58690
 Alpha  occ. eigenvalues --   -0.58294  -0.57801  -0.57535  -0.57261  -0.57259
 Alpha  occ. eigenvalues --   -0.56332  -0.56315  -0.55840  -0.55832  -0.55357
 Alpha  occ. eigenvalues --   -0.55107  -0.55033  -0.54905  -0.54618  -0.54508
 Alpha  occ. eigenvalues --   -0.53899  -0.53863  -0.53532  -0.53055  -0.52914
 Alpha  occ. eigenvalues --   -0.52722  -0.52633  -0.52615  -0.52490  -0.52184
 Alpha  occ. eigenvalues --   -0.52018  -0.51990  -0.51749  -0.51624  -0.51525
 Alpha  occ. eigenvalues --   -0.51118  -0.50857  -0.50669  -0.50480  -0.50285
 Alpha  occ. eigenvalues --   -0.50157  -0.49801  -0.49687  -0.49641  -0.49560
 Alpha  occ. eigenvalues --   -0.49481  -0.49279  -0.49212  -0.48947  -0.48830
 Alpha  occ. eigenvalues --   -0.48572  -0.48505  -0.48305  -0.48255  -0.48179
 Alpha  occ. eigenvalues --   -0.47795  -0.47748  -0.47300  -0.47260  -0.46948
 Alpha  occ. eigenvalues --   -0.46925  -0.46898  -0.46593  -0.46510  -0.46288
 Alpha  occ. eigenvalues --   -0.46281  -0.46217  -0.45800  -0.45739  -0.45597
 Alpha  occ. eigenvalues --   -0.45395  -0.45304  -0.45178  -0.45128  -0.45093
 Alpha  occ. eigenvalues --   -0.44999  -0.44984  -0.44889  -0.44699  -0.44655
 Alpha  occ. eigenvalues --   -0.44352  -0.43944  -0.43935  -0.43672  -0.43571
 Alpha  occ. eigenvalues --   -0.43428  -0.43228  -0.43209  -0.43117  -0.42883
 Alpha  occ. eigenvalues --   -0.42757  -0.42487  -0.42385  -0.42140  -0.41992
 Alpha  occ. eigenvalues --   -0.41971  -0.41718  -0.41692  -0.41489  -0.41401
 Alpha  occ. eigenvalues --   -0.41281  -0.41231  -0.40855  -0.40467  -0.40116
 Alpha  occ. eigenvalues --   -0.40019  -0.40000  -0.39799  -0.39113  -0.38639
 Alpha  occ. eigenvalues --   -0.38518  -0.37986  -0.37984  -0.37441  -0.37415
 Alpha  occ. eigenvalues --   -0.37107  -0.36903  -0.36743  -0.36567  -0.36378
 Alpha  occ. eigenvalues --   -0.35705  -0.35664  -0.35163  -0.34807  -0.34246
 Alpha  occ. eigenvalues --   -0.34100  -0.33344  -0.33328  -0.31377  -0.31281
 Alpha  occ. eigenvalues --   -0.31213  -0.30821  -0.30740  -0.30673  -0.30271
 Alpha  occ. eigenvalues --   -0.29966  -0.29664  -0.28919  -0.24278  -0.24104
 Alpha  occ. eigenvalues --   -0.21313  -0.21223
 Alpha virt. eigenvalues --   -0.08763  -0.08674  -0.02551  -0.02255   0.00269
 Alpha virt. eigenvalues --    0.00624   0.01035   0.01707   0.02432   0.02519
 Alpha virt. eigenvalues --    0.04077   0.04790   0.04942   0.05194   0.05942

 Mulliken charges:
               1
     1  Mg  11.994997
     2  C    5.983101
     3  C    6.033073
     4  C    6.020173
     5  C    5.974174
     6  N    6.993172
     7  C    6.030709
     8  C    5.998852
     9  C    6.015220
    10  C    5.954489
    11  C    6.001196
    12  C    5.997008
    13  C    5.991942
    14  H    1.014020
    15  N    7.013492
    16  C    5.948847
    17  C    5.984054
    18  C    5.987853
    19  C    5.955859
    20  C    6.005021
    21  C    5.988624
    22  O    7.981735
    23  C    6.004432
    24  N    6.995908
    25  C    5.971113
    26  C    6.013225
    27  C    5.983978
    28  C    6.040782
    29  C    6.002915
    30  C    5.998924
    31  C    5.997992
    32  N    6.992593
    33  C    6.048809
    34  C    6.025849
    35  C    6.003279
    36  C    6.036427
    37  C    6.003302
    38  C    6.014670
    39  O    8.033274
    40  C    6.000631
    41  C    6.006711
    42  O    8.002040
    43  O    8.001414
    44  C    5.997855
    45  H    0.994371
    46  H    0.990296
    47  H    1.009099
    48  H    0.993996
    49  H    0.993069
    50  H    0.995121
    51  H    0.988584
    52  H    1.004088
    53  H    0.994928
    54  H    1.008239
    55  H    0.999847
    56  H    0.996109
    57  H    0.979880
    58  H    0.980109
    59  H    0.982751
    60  H    0.988546
    61  H    0.987388
    62  H    0.993362
    63  H    0.997766
    64  H    1.005392
    65  H    1.003557
    66  H    0.987189
    67  H    0.998293
    68  H    0.996411
    69  H    1.013981
    70  H    0.997422
    71  H    1.005327
    72  H    1.004900
    73  H    1.017230
    74  H    1.015482
    75  H    1.011435
    76  H    1.009950
    77  H    1.001824
    78  H    1.005978
    79  H    1.004345
    80  Mg  12.000004
    81  C    5.999924
    82  C    6.000024
    83  C    6.000155
    84  C    6.000027
    85  N    6.999969
    86  C    6.000104
    87  C    5.999968
    88  C    6.000044
    89  C    5.999903
    90  C    6.000024
    91  C    5.999988
    92  C    5.999985
    93  H    1.000023
    94  N    6.999992
    95  C    5.999816
    96  C    5.999934
    97  C    5.999931
    98  C    5.999796
    99  C    6.000039
   100  C    5.999939
   101  O    7.999919
   102  C    6.000032
   103  N    7.000052
   104  C    5.999854
   105  C    6.000044
   106  C    5.999983
   107  C    6.000065
   108  C    6.000009
   109  C    5.999968
   110  C    5.999999
   111  N    7.000027
   112  C    6.000121
   113  C    6.000135
   114  C    6.000021
   115  C    6.000135
   116  C    5.999960
   117  C    6.000091
   118  O    8.000117
   119  C    5.999982
   120  C    6.000036
   121  O    8.000029
   122  O    7.999979
   123  C    5.999996
   124  H    0.999935
   125  H    0.999973
   126  H    1.000055
   127  H    0.999995
   128  H    0.999968
   129  H    0.999934
   130  H    0.999999
   131  H    0.999967
   132  H    0.999986
   133  H    1.000023
   134  H    1.000036
   135  H    0.999979
   136  H    0.999926
   137  H    0.999925
   138  H    0.999905
   139  H    0.999958
   140  H    0.999959
   141  H    0.999944
   142  H    0.999989
   143  H    1.000008
   144  H    0.999967
   145  H    1.000018
   146  H    0.999980
   147  H    1.000000
   148  H    1.000055
   149  H    0.999992
   150  H    1.000030
   151  H    1.000007
   152  H    1.000092
   153  H    1.000094
   154  H    1.000082
   155  H    1.000031
   156  H    1.000015
   157  H    1.000014
   158  H    1.000016
 Sum of Mulliken charges = 624.00000

 Dipole moment (field-independent basis, Debye):
    X=             -0.2685    Y=            -10.4041    Z=             -1.0022  Tot=             10.4557
 Quadrupole moment (field-independent basis, Debye-Ang):
   XX=            -17.3908   YY=             -8.7666   ZZ=              1.6951
   XY=           -327.7572   XZ=            -32.6691   YZ=              3.1900

 Normal termination of Gaussian 16 at Tue Sep 21 20:38:14 2021.
