 Gaussian 16, Revision A.03,
 Gaussian 16:  ES64L-G16RevA.03 25-Dec-2016

 ----------------------------------------------------------
 #p cam-b3lyp/Def2SVP td=(nstates=5) density=(transition=1)
 ----------------------------------------------------------

 --------------------------------
 TDDFT excited states in gaussian
 --------------------------------
 Symbolic Z-matrix:
 Charge =  0 Multiplicity = 1

                         Standard orientation:
 ---------------------------------------------------------------------
 Center     Atomic      Atomic             Coordinates (Angstroms)
 Number     Number       Type             X           Y           Z
 ---------------------------------------------------------------------
      1         12           0      -26.112885   -0.553192   -0.162893
      2          6           0      -24.255939    2.624719   -0.678788
      3          6           0      -26.441536    0.539311    3.018669
      4          6           0      -27.422219   -3.412771    0.232169
      5          6           0      -24.787509   -1.558469   -3.310387
      6          7           0      -25.374610    1.329927    1.000419
      7          6           0      -24.827016    2.514742    0.538329
      8          6           0      -24.844110    3.664250    1.552410
      9          6           0      -25.121837    2.834075    2.843543
     10          6           0      -25.681509    1.464500    2.295783
     11          6           0      -23.938672    2.628120    3.736073
     12          6           0      -25.830113    4.848345    1.275600
     13          6           0      -25.445493    6.208912    1.752722
     14          1           0      -26.594599    7.066784    2.272746
     15          7           0      -26.903669   -1.355065    1.435651
     16          6           0      -27.017587   -0.732029    2.696075
     17          6           0      -27.840496   -1.567863    3.521949
     18          6           0      -28.248693   -2.649901    2.626832
     19          6           0      -27.531436   -2.479325    1.415108
     20          6           0      -28.307781   -1.217168    4.982944
     21          6           0      -29.234163   -3.726186    2.965621
     22          8           0      -29.494966   -4.664070    2.173309
     23          6           0      -30.014363   -3.746782    4.229133
     24          7           0      -26.004699   -2.314377   -1.247581
     25          6           0      -26.673455   -3.410475   -0.883874
     26          6           0      -26.565017   -4.587388   -1.905726
     27          6           0      -26.110095   -3.764601   -3.168276
     28          6           0      -25.547190   -2.458071   -2.544860
     29          6           0      -25.489045   -5.639254   -1.484227
     30          6           0      -27.320716   -3.427555   -4.136524
     31          6           0      -28.222997   -4.570050   -4.648376
     32          7           0      -24.835797    0.332806   -1.716751
     33          6           0      -24.466230   -0.201305   -2.945928
     34          6           0      -23.617227    0.734316   -3.645590
     35          6           0      -23.542147    1.860270   -2.815775
     36          6           0      -24.224822    1.552440   -1.606985
     37          6           0      -23.074588    0.590708   -5.027709
     38          6           0      -22.990335    3.205045   -2.715847
     39          8           0      -22.346387    3.917916   -3.474202
     40          6           0      -23.560937    3.745057   -1.303686
     41          6           0      -22.406314    4.258688   -0.586928
     42          8           0      -21.417192    3.612632   -0.206758
     43          8           0      -22.365707    5.609824   -0.780057
     44          6           0      -21.284117    6.363446   -0.231715
     45          1           0      -26.636576    1.016696    3.981412
     46          1           0      -27.861893   -4.407903    0.324267
     47          1           0      -24.424486   -1.917520   -4.276057
     48          1           0      -23.830398    4.062495    1.600813
     49          1           0      -25.967936    3.249182    3.390377
     50          1           0      -23.630524    1.589098    3.619367
     51          1           0      -24.238735    2.749004    4.776862
     52          1           0      -23.063275    3.252466    3.558343
     53          1           0      -26.757310    4.612825    1.797256
     54          1           0      -26.050987    4.841854    0.208569
     55          1           0      -25.024686    6.679009    0.864113
     56          1           0      -24.564062    6.194738    2.393946
     57          1           0      -29.351087   -0.919663    5.084078
     58          1           0      -27.653157   -0.477149    5.442535
     59          1           0      -28.124191   -2.162455    5.495165
     60          1           0      -29.351225   -4.064176    5.034282
     61          1           0      -30.805230   -4.480869    4.072642
     62          1           0      -30.449124   -2.753899    4.339420
     63          1           0      -27.560254   -5.030594   -1.953776
     64          1           0      -25.314774   -4.213069   -3.762854
     65          1           0      -26.032194   -6.552426   -1.239629
     66          1           0      -24.817783   -5.338417   -0.680514
     67          1           0      -24.942943   -5.775571   -2.418736
     68          1           0      -26.918269   -2.990397   -5.050013
     69          1           0      -27.884012   -2.633287   -3.647012
     70          1           0      -29.223694   -4.301951   -4.309845
     71          1           0      -27.874470   -5.446962   -4.102044
     72          1           0      -28.210077   -4.660642   -5.734424
     73          1           0      -23.635493   -0.243092   -5.450547
     74          1           0      -22.022193    0.332029   -4.911222
     75          1           0      -23.121124    1.503531   -5.621560
     76          1           0      -24.289912    4.534966   -1.483708
     77          1           0      -20.598521    5.733497    0.335479
     78          1           0      -21.751059    7.059283    0.465447
     79          1           0      -20.807042    6.981227   -0.991202
     80         12           0       25.029288   -0.837870    0.094973
     81          6           0       26.790262    2.229711   -0.462076
     82          6           0       23.399858    0.632430    2.736390
     83          6           0       23.673538   -3.800560    0.985043
     84          6           0       27.441173   -2.405306   -1.946426
     85          7           0       25.100652    1.194839    0.994849
     86          6           0       25.824170    2.326572    0.587083
     87          6           0       25.420133    3.503052    1.438164
     88          6           0       24.773184    2.798958    2.704569
     89          6           0       24.438915    1.391298    2.129242
     90          6           0       25.859643    2.750448    3.837315
     91          6           0       24.546495    4.569493    0.687965
     92          6           0       25.000564    5.905620    1.000814
     93          1           0       24.430915    7.061404    0.034177
     94          7           0       23.580717   -1.370281    1.569356
     95          6           0       23.017253   -0.617690    2.521937
     96          6           0       22.023690   -1.386729    3.206206
     97          6           0       22.083969   -2.683600    2.741055
     98          6           0       23.145181   -2.683534    1.631205
     99          6           0       21.225401   -0.819572    4.422828
    100          6           0       21.209114   -3.894951    3.124021
    101          8           0       21.442280   -4.966385    2.624397
    102          6           0       20.018864   -3.730467    4.039415
    103          7           0       25.697094   -2.847495   -0.222054
    104          6           0       24.848687   -3.880956    0.159744
    105          6           0       25.232134   -5.158274   -0.513941
    106          6           0       26.435352   -4.713225   -1.480469
    107          6           0       26.504881   -3.219694   -1.265240
    108          6           0       25.539673   -6.258036    0.445337
    109          6           0       26.319812   -5.109768   -3.053505
    110          6           0       27.358716   -5.989596   -3.627894
    111          7           0       26.744799   -0.265183   -1.044534
    112          6           0       27.594716   -1.041132   -1.800033
    113          6           0       28.604835   -0.110274   -2.467866
    114          6           0       28.257617    1.194302   -2.063197
    115          6           0       27.151649    1.040589   -1.155579
    116          6           0       29.758744   -0.578705   -3.364861
    117          6           0       28.716467    2.549070   -2.122615
    118          8           0       29.664008    3.056883   -2.763784
    119          6           0       27.903401    3.259960   -0.964237
    120          6           0       27.420070    4.611888   -1.570032
    121          8           0       26.249613    4.747049   -1.971290
    122          8           0       28.409422    5.534655   -1.483715
    123          6           0       27.995232    6.758045   -2.253041
    124          1           0       22.720785    1.141738    3.423888
    125          1           0       23.236843   -4.768599    1.241932
    126          1           0       28.166804   -2.782047   -2.670111
    127          1           0       26.351875    3.945743    1.789544
    128          1           0       23.906275    3.346676    3.072420
    129          1           0       26.639688    2.009945    3.662186
    130          1           0       25.362124    2.588820    4.792641
    131          1           0       26.333647    3.729634    3.909127
    132          1           0       23.559019    4.530914    1.148476
    133          1           0       24.468750    4.357392   -0.378634
    134          1           0       26.068782    6.012330    0.811310
    135          1           0       24.717843    6.112544    2.033268
    136          1           0       20.188544   -0.970680    4.122636
    137          1           0       21.366522    0.245002    4.608951
    138          1           0       21.516869   -1.343312    5.333140
    139          1           0       19.572725   -4.699163    4.264832
    140          1           0       19.428745   -3.114289    3.361114
    141          1           0       20.353560   -3.215803    4.940035
    142          1           0       24.343629   -5.389995   -1.101575
    143          1           0       27.333694   -5.197286   -1.098178
    144          1           0       24.712183   -6.956642    0.328264
    145          1           0       25.482298   -5.943339    1.487231
    146          1           0       26.503545   -6.748128    0.306096
    147          1           0       26.450571   -4.142161   -3.537929
    148          1           0       25.301133   -5.450853   -3.233164
    149          1           0       27.924892   -5.476034   -4.404505
    150          1           0       26.674650   -6.680180   -4.119912
    151          1           0       27.933258   -6.528303   -2.873136
    152          1           0       30.619638   -0.680016   -2.704977
    153          1           0       29.988623    0.134215   -4.156638
    154          1           0       29.468739   -1.506296   -3.858449
    155          1           0       28.654624    3.397895   -0.187788
    156          1           0       28.033309    6.653118   -3.337188
    157          1           0       28.544790    7.664054   -1.999706
    158          1           0       26.980426    6.978835   -1.921491
 ---------------------------------------------------------------------

 SCF Done:  E(RCAM-B3LYP) =  -4069.77600341     A.U. after   17 cycles

 Excitation energies and oscillator strengths:

 Excited State   1:      Singlet-A      1.6590 eV  747.36 nm  f=0.3884  <S**2>=0.000
     309 -> 316       -0.15615
     311 -> 313        0.69165
     309 <- 316       -0.10434
 This state for optimization and/or second-order correction.
 Total Energy, E(TD-HF/TD-DFT) =  -4069.71503743
 Copying the excited state density for this state as the 1-particle RhoCI density.

 Excited State   2:      Singlet-A      1.7188 eV  721.36 nm  f=0.3554  <S**2>=0.000
     310 -> 315        0.18754
     312 -> 314        0.68234
     310 <- 315        0.10714

 Excited State   3:      Singlet-A      2.1781 eV  569.22 nm  f=0.2157  <S**2>=0.000
     309 -> 313        0.66760
     311 -> 316        0.21706

 Excited State   4:      Singlet-A      2.2689 eV  546.46 nm  f=0.0058  <S**2>=0.000
     310 -> 314        0.54882
     312 -> 315       -0.43684

 Excited State   5:      Singlet-A      2.6766 eV  463.21 nm  f=0.0000  <S**2>=0.000
     312 -> 313        0.70711

 The electronic state is 1-A.
 Alpha  occ. eigenvalues --  -46.89412 -46.88917 -19.26139 -19.24830 -19.19911
 Alpha  occ. eigenvalues --  -19.19738 -19.19467 -19.19438 -19.18728 -19.17454
 Alpha  occ. eigenvalues --  -14.42328 -14.42249 -14.41894 -14.41451 -14.39725
 Alpha  occ. eigenvalues --  -14.39591 -14.39346 -14.39133 -10.39700 -10.39163
 Alpha  occ. eigenvalues --  -10.35997 -10.35657 -10.34888 -10.34011 -10.31515
 Alpha  occ. eigenvalues --  -10.31427 -10.31353 -10.31288 -10.31186 -10.31142
 Alpha  occ. eigenvalues --  -10.30909 -10.30823 -10.30753 -10.30718 -10.30471
 Alpha  occ. eigenvalues --  -10.30461 -10.30384 -10.29871 -10.29154 -10.29093
 Alpha  occ. eigenvalues --  -10.29077 -10.28984 -10.28976 -10.28949 -10.28749
 Alpha  occ. eigenvalues --  -10.28642 -10.28597 -10.28330 -10.28140 -10.28134
 Alpha  occ. eigenvalues --  -10.28134 -10.28131 -10.28093 -10.28087 -10.28035
 Alpha  occ. eigenvalues --  -10.28022 -10.28021 -10.27944 -10.27788 -10.27786
 Alpha  occ. eigenvalues --  -10.27443 -10.27404 -10.27349 -10.27332 -10.27070
 Alpha  occ. eigenvalues --  -10.26996 -10.26914 -10.26734 -10.26408 -10.26401
 Alpha  occ. eigenvalues --  -10.26368 -10.26272 -10.26230 -10.26213 -10.25963
 Alpha  occ. eigenvalues --  -10.25933 -10.25859 -10.25753 -10.25637 -10.25617
 Alpha  occ. eigenvalues --  -10.25561 -10.25554 -10.25341 -10.25082 -10.25007
 Alpha  occ. eigenvalues --  -10.24910  -3.17749  -3.17578  -1.92645  -1.92447
 Alpha  occ. eigenvalues --   -1.92191  -1.92050  -1.92030  -1.91900  -1.16557
 Alpha  occ. eigenvalues --   -1.16024  -1.11718  -1.10245  -1.07828  -1.07486
 Alpha  occ. eigenvalues --   -1.07108  -1.07039  -1.04934  -1.04062  -1.04054
 Alpha  occ. eigenvalues --   -1.03681  -1.03012  -1.02681  -1.02554  -1.01414
 Alpha  occ. eigenvalues --   -0.93724  -0.91199  -0.89574  -0.88916  -0.88817
 Alpha  occ. eigenvalues --   -0.88667  -0.88170  -0.88067  -0.87483  -0.87482
 Alpha  occ. eigenvalues --   -0.87228  -0.86858  -0.86262  -0.85450  -0.84764
 Alpha  occ. eigenvalues --   -0.84389  -0.84061  -0.83762  -0.83166  -0.82588
 Alpha  occ. eigenvalues --   -0.82493  -0.82094  -0.81086  -0.80873  -0.80654
 Alpha  occ. eigenvalues --   -0.80435  -0.78587  -0.78194  -0.77520  -0.77509
 Alpha  occ. eigenvalues --   -0.77308  -0.76514  -0.76247  -0.75466  -0.75449
 Alpha  occ. eigenvalues --   -0.74902  -0.73379  -0.72147  -0.71416  -0.70965
 Alpha  occ. eigenvalues --   -0.69312  -0.68777  -0.68666  -0.68195  -0.67844
 Alpha  occ. eigenvalues --   -0.67391  -0.66963  -0.66349  -0.65722  -0.65156
 Alpha  occ. eigenvalues --   -0.65086  -0.64937  -0.64924  -0.64500  -0.64411
 Alpha  occ. eigenvalues --   -0.64275  -0.62078  -0.62016  -0.60772  -0.59898
 Alpha  occ. eigenvalues --   -0.59802  -0.59545  -0.59092  -0.58884  -0.58419
 Alpha  occ. eigenvalues --   -0.58410  -0.58213  -0.57702  -0.57395  -0.57072
 Alpha  occ. eigenvalues --   -0.55959  -0.55929  -0.55654  -0.55533  -0.55035
 Alpha  occ. eigenvalues --   -0.54908  -0.54647  -0.54299  -0.54218  -0.53984
 Alpha  occ. eigenvalues --   -0.53952  -0.53721  -0.53526  -0.53254  -0.52944
 Alpha  occ. eigenvalues --   -0.52895  -0.52720  -0.52583  -0.52567  -0.52438
 Alpha  occ. eigenvalues --   -0.52431  -0.51888  -0.51781  -0.51442  -0.51248
 Alpha  occ. eigenvalues --   -0.51230  -0.51043  -0.50530  -0.50395  -0.50322
 Alpha  occ. eigenvalues --   -0.50191  -0.50100  -0.49928  -0.49870  -0.49740
 Alpha  occ. eigenvalues --   -0.49518  -0.49490  -0.49231  -0.49093  -0.48909
 Alpha  occ. eigenvalues --   -0.48755  -0.48626  -0.48352  -0.48176  -0.48174
 Alpha  occ. eigenvalues --   -0.47976  -0.47881  -0.47821  -0.47593  -0.47408
 Alpha  occ. eigenvalues --   -0.47284  -0.46594  -0.46549  -0.46522  -0.46407
 Alpha  occ. eigenvalues --   -0.46219  -0.46209  -0.46069  -0.45972  -0.45825
 Alpha  occ. eigenvalues --   -0.45418  -0.45361  -0.45139  -0.45001  -0.44862
 Alpha  occ. eigenvalues --   -0.44612  -0.44518  -0.44384  -0.44326  -0.44062
 Alpha  occ. eigenvalues --   -0.43973  -0.43727  -0.43723  -0.43433  -0.43294
 Alpha  occ. eigenvalues --   -0.43133  -0.43113  -0.43002  -0.42867  -0.42817
 Alpha  occ. eigenvalues --   -0.42706  -0.42342  -0.42134  -0.42034  -0.41978
 Alpha  occ. eigenvalues --   -0.41892  -0.41656  -0.41442  -0.41361  -0.41105
 Alpha  occ. eigenvalues --   -0.40758  -0.40706  -0.40655  -0.40202  -0.39834
 Alpha  occ. eigenvalues --   -0.39818  -0.39509  -0.39289  -0.38821  -0.38599
 Alpha  occ. eigenvalues --   -0.38527  -0.38263  -0.37846  -0.37785  -0.37245
 Alpha  occ. eigenvalues --   -0.37205  -0.37062  -0.36932  -0.36425  -0.36124
 Alpha  occ. eigenvalues --   -0.35846  -0.34765  -0.34636  -0.34335  -0.33973
 Alpha  occ. eigenvalues --   -0.33802  -0.33157  -0.33076  -0.31711  -0.31589
 Alpha  occ. eigenvalues --   -0.31419  -0.31378  -0.30607  -0.30153  -0.30056
 Alpha  occ. eigenvalues --   -0.29912  -0.29828  -0.29312  -0.24291  -0.24232
 Alpha  occ. eigenvalues --   -0.21749  -0.20183
 Alpha virt. eigenvalues --   -0.09679  -0.07554  -0.02490  -0.00798   0.00027
 Alpha virt. eigenvalues --    0.00270   0.01721   0.01836   0.02234   0.02420
 Alpha virt. eigenvalues --    0.03906   0.04883   0.04955   0.05476   0.05952

 Mulliken charges:
               1
     1  Mg  11.997466
     2  C    5.963121
     3  C    5.984371
     4  C    6.037614
     5  C    6.004458
     6  N    6.970786
     7  C    6.036387
     8  C    5.985442
     9  C    6.001040
    10  C    5.987886
    11  C    6.004229
    12  C    5.997937
    13  C    6.001130
    14  H    1.004491
    15  N    7.006149
    16  C    5.963800
    17  C    5.979240
    18  C    5.985905
    19  C    5.967058
    20  C    6.000851
    21  C    5.988076
    22  O    7.964206
    23  C    6.005410
    24  N    7.025703
    25  C    5.961945
    26  C    6.005128
    27  C    5.995386
    28  C    6.018521
    29  C    6.000323
    30  C    5.995103
    31  C    6.000380
    32  N    6.995762
    33  C    6.034298
    34  C    6.033308
    35  C    5.998307
    36  C    6.045662
    37  C    5.996061
    38  C    6.012753
    39  O    8.025965
    40  C    6.008285
    41  C    6.005907
    42  O    8.003225
    43  O    8.000413
    44  C    5.996577
    45  H    0.977075
    46  H    1.002625
    47  H    1.017729
    48  H    0.999630
    49  H    0.999782
    50  H    1.000331
    51  H    0.998535
    52  H    0.983460
    53  H    1.012006
    54  H    0.993386
    55  H    0.994540
    56  H    1.002139
    57  H    0.979493
    58  H    0.985378
    59  H    0.983364
    60  H    0.991401
    61  H    0.984441
    62  H    0.995241
    63  H    1.005792
    64  H    1.002139
    65  H    1.004732
    66  H    1.003181
    67  H    0.991827
    68  H    0.998137
    69  H    1.006982
    70  H    1.008054
    71  H    1.005983
    72  H    1.002471
    73  H    1.014759
    74  H    1.022704
    75  H    1.020606
    76  H    1.005172
    77  H    1.003691
    78  H    1.006117
    79  H    1.001032
    80  Mg  11.999975
    81  C    5.999948
    82  C    5.999970
    83  C    6.000022
    84  C    6.000027
    85  N    6.999981
    86  C    6.000028
    87  C    5.999994
    88  C    5.999999
    89  C    6.000012
    90  C    6.000005
    91  C    5.999997
    92  C    6.000008
    93  H    0.999966
    94  N    7.000002
    95  C    6.000010
    96  C    5.999973
    97  C    6.000015
    98  C    5.999971
    99  C    6.000006
   100  C    6.000001
   101  O    7.999999
   102  C    5.999999
   103  N    7.000023
   104  C    5.999977
   105  C    5.999993
   106  C    6.000019
   107  C    5.999971
   108  C    6.000008
   109  C    5.999994
   110  C    6.000010
   111  N    6.999998
   112  C    5.999996
   113  C    6.000014
   114  C    6.000007
   115  C    6.000016
   116  C    5.999996
   117  C    5.999990
   118  O    8.000008
   119  C    6.000015
   120  C    5.999997
   121  O    7.999986
   122  O    8.000014
   123  C    6.000001
   124  H    1.000003
   125  H    0.999998
   126  H    1.000002
   127  H    1.000020
   128  H    0.999994
   129  H    1.000013
   130  H    1.000014
   131  H    1.000010
   132  H    0.999982
   133  H    0.999979
   134  H    1.000015
   135  H    1.000015
   136  H    0.999979
   137  H    1.000005
   138  H    1.000032
   139  H    1.000010
   140  H    0.999965
   141  H    1.000027
   142  H    0.999979
   143  H    1.000020
   144  H    0.999991
   145  H    1.000018
   146  H    1.000016
   147  H    0.999985
   148  H    0.999977
   149  H    0.999997
   150  H    0.999987
   151  H    1.000022
   152  H    1.000020
   153  H    0.999991
   154  H    0.999992
   155  H    1.000018
   156  H    0.999988
   157  H    1.000011
   158  H    0.999988
 Sum of Mulliken charges = 624.00000

 Dipole moment (field-independent basis, Debye):
    X=              5.1592    Y=              2.5734    Z=             -9.4993  Tot=             11.1120
 Quadrupole moment (field-independent basis, Debye-Ang):
   XX=           -266.4158   YY=              1.1216   ZZ=              1.0137
   XY=            -68.8510   XZ=            245.8912   YZ=              5.8852

 Normal termination of Gaussian 16 at Tue Sep 21 22:00:02 2021.
