 Gaussian 16, Revision A.03,
 Gaussian 16:  ES64L-G16RevA.03 25-Dec-2016

 ----------------------------------------------------------
 #p cam-b3lyp/Def2SVP td=(nstates=5) density=(transition=1)
 ----------------------------------------------------------

 --------------------------------
 TDDFT excited states in gaussian
 --------------------------------
 Symbolic Z-matrix:
 Charge =  0 Multiplicity = 1

                         Standard orientation:
 ---------------------------------------------------------------------
 Center     Atomic      Atomic             Coordinates (Angstroms)
 Number     Number       Type             X           Y           Z
 ---------------------------------------------------------------------
      1         12           0      -13.809716    0.999229   -0.273760
      2          6           0      -13.923266   -2.581736    0.081204
      3          6           0      -10.456613    0.672528   -0.824947
      4          6           0      -13.662154    4.350200   -0.299947
      5          6           0      -17.041880    1.107743    0.771468
      6          7           0      -12.327239   -0.855809   -0.410691
      7          6           0      -12.676351   -2.167210   -0.266539
      8          6           0      -11.491774   -2.977612   -0.634460
      9          6           0      -10.330350   -1.957715   -0.793438
     10          6           0      -11.010431   -0.570946   -0.629626
     11          6           0       -9.223254   -2.162723    0.289044
     12          6           0      -11.656204   -3.878247   -1.833031
     13          6           0      -10.583335   -4.911306   -2.137469
     14          1           0      -11.038351   -6.288091   -2.385163
     15          7           0      -12.313619    2.302516   -0.633570
     16          6           0      -10.934380    1.974515   -0.747164
     17          6           0      -10.232402    3.227873   -1.081729
     18          6           0      -11.143222    4.252302   -0.837079
     19          6           0      -12.444682    3.643871   -0.506672
     20          6           0       -8.753962    3.236112   -1.409824
     21          6           0      -10.961712    5.780902   -0.956900
     22          8           0      -11.764373    6.617031   -0.501549
     23          6           0       -9.770825    6.254843   -1.685265
     24          7           0      -15.147024    2.561448    0.236526
     25          6           0      -14.915506    3.855129    0.147652
     26          6           0      -16.123453    4.730136    0.581579
     27          6           0      -17.224298    3.670495    0.665256
     28          6           0      -16.446874    2.383893    0.507177
     29          6           0      -15.856666    5.441942    1.950713
     30          6           0      -18.357510    3.781731   -0.329649
     31          6           0      -19.778157    3.545432    0.213065
     32          7           0      -15.206913   -0.431971    0.211190
     33          6           0      -16.506526   -0.212798    0.612731
     34          6           0      -17.235428   -1.500240    0.821187
     35          6           0      -16.194659   -2.386013    0.627575
     36          6           0      -14.996047   -1.731299    0.319399
     37          6           0      -18.700772   -1.722337    1.017243
     38          6           0      -15.900586   -3.811465    0.636549
     39          8           0      -16.684618   -4.735653    0.820605
     40          6           0      -14.410556   -4.018027    0.280188
     41          6           0      -13.863508   -4.883403    1.293790
     42          8           0      -13.554395   -4.568250    2.468205
     43          8           0      -13.553196   -6.097143    0.759928
     44          6           0      -12.746116   -7.012005    1.537328
     45          1           0       -9.401039    0.578664   -1.087425
     46          1           0      -13.581721    5.428116   -0.145762
     47          1           0      -17.976511    1.260466    1.314804
     48          1           0      -11.328481   -3.580191    0.258075
     49          1           0       -9.842995   -2.030630   -1.765843
     50          1           0       -8.162357   -2.255710    0.054636
     51          1           0       -9.506776   -3.092104    0.782720
     52          1           0       -9.266552   -1.471364    1.131048
     53          1           0      -11.668503   -3.303539   -2.759284
     54          1           0      -12.670183   -4.269151   -1.912867
     55          1           0       -9.876416   -4.986282   -1.312543
     56          1           0      -10.217999   -4.656556   -3.131983
     57          1           0       -8.184756    4.008571   -0.893124
     58          1           0       -8.536005    3.334259   -2.473100
     59          1           0       -8.210894    2.341875   -1.103026
     60          1           0       -9.729376    5.742688   -2.646661
     61          1           0       -8.959054    5.923775   -1.038496
     62          1           0       -9.942358    7.309332   -1.898278
     63          1           0      -16.288299    5.439752   -0.229926
     64          1           0      -17.720470    3.569756    1.630114
     65          1           0      -16.498814    5.049609    2.738716
     66          1           0      -16.087426    6.505809    1.895350
     67          1           0      -14.813200    5.230688    2.184983
     68          1           0      -18.210893    3.123596   -1.185483
     69          1           0      -18.159406    4.720390   -0.846104
     70          1           0      -20.453315    4.120637   -0.419750
     71          1           0      -19.862391    3.726608    1.285041
     72          1           0      -19.877645    2.469616    0.070302
     73          1           0      -19.231237   -2.034402    0.117425
     74          1           0      -19.060866   -0.823392    1.516760
     75          1           0      -18.848068   -2.424104    1.839114
     76          1           0      -14.432535   -4.643153   -0.612423
     77          1           0      -12.353139   -6.595979    2.465392
     78          1           0      -11.963214   -7.452801    0.920792
     79          1           0      -13.311209   -7.890439    1.850074
     80         12           0       14.283324   -0.148763    0.375584
     81          6           0       11.629169   -1.449892   -1.456337
     82          6           0       15.471769    1.265550   -2.558866
     83          6           0       16.531802    1.591404    2.061223
     84          6           0       12.739061   -1.180622    3.296038
     85          7           0       13.553638    0.042610   -1.715165
     86          6           0       12.519785   -0.687941   -2.264106
     87          6           0       12.458886   -0.578462   -3.758967
     88          6           0       13.912370   -0.024048   -4.098530
     89          6           0       14.349216    0.503979   -2.738527
     90          6           0       14.978368   -0.884863   -4.929037
     91          6           0       11.232073    0.269978   -4.334372
     92          6           0       10.711293    1.462798   -3.478562
     93          1           0       10.368003    2.697019   -4.277592
     94          7           0       15.729415    1.335965   -0.149703
     95          6           0       16.074019    1.769819   -1.435875
     96          6           0       17.079140    2.796305   -1.394657
     97          6           0       17.404791    2.937263   -0.024561
     98          6           0       16.545114    1.971578    0.722675
     99          6           0       17.744407    3.276253   -2.685589
    100          6           0       18.495997    3.921032    0.455646
    101          8           0       19.065573    4.697091   -0.318355
    102          6           0       18.855638    3.838404    1.879361
    103          7           0       14.466807    0.221964    2.401004
    104          6           0       15.664998    0.757572    2.842531
    105          6           0       15.841960    0.657358    4.373658
    106          6           0       14.462328   -0.040342    4.717191
    107          6           0       13.823559   -0.308929    3.427677
    108          6           0       17.022878   -0.072619    4.931339
    109          6           0       13.492644    0.889952    5.607525
    110          6           0       12.898747    0.113753    6.753948
    111          7           0       12.622362   -1.300938    0.881507
    112          6           0       12.118682   -1.637351    2.124340
    113          6           0       10.876193   -2.427564    1.967503
    114          6           0       10.644658   -2.381028    0.548690
    115          6           0       11.719659   -1.692123   -0.024967
    116          6           0        9.903825   -2.892308    2.974162
    117          6           0        9.730195   -2.700246   -0.568280
    118          8           0        8.632248   -3.206260   -0.539137
    119          6           0       10.346018   -2.152294   -1.895813
    120          6           0       10.491732   -3.232603   -2.872138
    121          8           0        9.975277   -3.372887   -3.981016
    122          8           0       11.142254   -4.303125   -2.204290
    123          6           0       11.439678   -5.485571   -3.040753
    124          1           0       15.942717    1.473341   -3.522461
    125          1           0       17.337852    1.954853    2.701852
    126          1           0       12.376539   -1.522901    4.266959
    127          1           0       12.314170   -1.563028   -4.203562
    128          1           0       13.652194    0.837877   -4.713450
    129          1           0       14.616122   -1.832423   -5.327400
    130          1           0       15.843912   -1.195276   -4.343880
    131          1           0       15.221153   -0.358971   -5.852806
    132          1           0       10.406215   -0.386825   -4.605643
    133          1           0       11.560079    0.652544   -5.300859
    134          1           0       11.428406    1.718868   -2.698043
    135          1           0        9.791852    1.176458   -2.968678
    136          1           0       18.071605    4.315925   -2.652078
    137          1           0       17.009034    3.269381   -3.489701
    138          1           0       18.611491    2.630822   -2.827864
    139          1           0       19.386192    2.901747    2.047887
    140          1           0       17.957595    3.926297    2.491635
    141          1           0       19.526598    4.680623    2.048177
    142          1           0       15.728158    1.662782    4.779636
    143          1           0       14.781130   -1.014374    5.088255
    144          1           0       16.821131   -0.191362    5.996031
    145          1           0       17.872464    0.608032    4.876053
    146          1           0       17.187368   -1.004502    4.389079
    147          1           0       12.742418    1.290310    4.925757
    148          1           0       13.910828    1.823058    5.987180
    149          1           0       11.833688   -0.007202    6.557626
    150          1           0       12.843672    0.702904    7.669957
    151          1           0       13.319594   -0.891263    6.776621
    152          1           0       10.147413   -2.662121    4.012426
    153          1           0        9.900355   -3.979455    2.903497
    154          1           0        9.052370   -2.258353    2.727537
    155          1           0        9.632631   -1.402196   -2.236380
    156          1           0       12.467995   -5.709200   -2.754451
    157          1           0       11.394536   -5.431249   -4.128499
    158          1           0       10.876359   -6.293528   -2.573505
 ---------------------------------------------------------------------

 SCF Done:  E(RCAM-B3LYP) =  -4069.82009790     A.U. after   18 cycles

 Excitation energies and oscillator strengths:

 Excited State   1:      Singlet-A      1.7178 eV  721.74 nm  f=0.3942  <S**2>=0.000
     309 -> 315       -0.18167
     311 -> 313        0.68335
     309 <- 315       -0.10497
 This state for optimization and/or second-order correction.
 Total Energy, E(TD-HF/TD-DFT) =  -4069.75696831
 Copying the excited state density for this state as the 1-particle RhoCI density.

 Excited State   2:      Singlet-A      1.7541 eV  706.84 nm  f=0.3600  <S**2>=0.000
     310 -> 316       -0.19881
     312 -> 314        0.68101
     310 <- 316       -0.11264

 Excited State   3:      Singlet-A      2.2043 eV  562.46 nm  f=0.0880  <S**2>=0.000
     309 -> 313        0.62968
     311 -> 315        0.30512

 Excited State   4:      Singlet-A      2.3188 eV  534.70 nm  f=0.0717  <S**2>=0.000
     310 -> 314        0.61702
     312 -> 316        0.33881

 Excited State   5:      Singlet-A      2.9567 eV  419.34 nm  f=0.0000  <S**2>=0.000
     312 -> 313        0.70707

 The electronic state is 1-A.
 Alpha  occ. eigenvalues --  -46.89172 -46.88430 -19.25091 -19.24419 -19.20618
 Alpha  occ. eigenvalues --  -19.19083 -19.18960 -19.18898 -19.18766 -19.18540
 Alpha  occ. eigenvalues --  -14.42303 -14.42271 -14.41838 -14.41029 -14.39709
 Alpha  occ. eigenvalues --  -14.39694 -14.39530 -14.39252 -10.39811 -10.39069
 Alpha  occ. eigenvalues --  -10.35195 -10.35178 -10.35165 -10.34383 -10.31688
 Alpha  occ. eigenvalues --  -10.31372 -10.31251 -10.31144 -10.30746 -10.30703
 Alpha  occ. eigenvalues --  -10.30675 -10.30538 -10.30495 -10.30404 -10.30337
 Alpha  occ. eigenvalues --  -10.30323 -10.30256 -10.30144 -10.30006 -10.29421
 Alpha  occ. eigenvalues --  -10.29027 -10.28962 -10.28745 -10.28613 -10.28514
 Alpha  occ. eigenvalues --  -10.28504 -10.28482 -10.28418 -10.28329 -10.28281
 Alpha  occ. eigenvalues --  -10.28226 -10.28133 -10.28030 -10.27942 -10.27933
 Alpha  occ. eigenvalues --  -10.27881 -10.27730 -10.27531 -10.27448 -10.27364
 Alpha  occ. eigenvalues --  -10.27255 -10.27219 -10.27202 -10.27196 -10.27138
 Alpha  occ. eigenvalues --  -10.27021 -10.27020 -10.26987 -10.26897 -10.26842
 Alpha  occ. eigenvalues --  -10.26793 -10.26287 -10.26196 -10.26156 -10.26122
 Alpha  occ. eigenvalues --  -10.26077 -10.26023 -10.26019 -10.25930 -10.25885
 Alpha  occ. eigenvalues --  -10.25866 -10.25807 -10.25696 -10.25596 -10.25455
 Alpha  occ. eigenvalues --  -10.24535  -3.17697  -3.17036  -1.92581  -1.92168
 Alpha  occ. eigenvalues --   -1.91990  -1.91945  -1.91483  -1.91348  -1.16039
 Alpha  occ. eigenvalues --   -1.14896  -1.10439  -1.09431  -1.09406  -1.08992
 Alpha  occ. eigenvalues --   -1.06979  -1.05887  -1.05700  -1.05136  -1.04508
 Alpha  occ. eigenvalues --   -1.03785  -1.03251  -1.03001  -1.02410  -1.02110
 Alpha  occ. eigenvalues --   -0.93091  -0.92536  -0.90033  -0.89714  -0.89287
 Alpha  occ. eigenvalues --   -0.89232  -0.88403  -0.88055  -0.87737  -0.87514
 Alpha  occ. eigenvalues --   -0.87012  -0.86948  -0.86555  -0.86249  -0.84894
 Alpha  occ. eigenvalues --   -0.84599  -0.84520  -0.83999  -0.82860  -0.82784
 Alpha  occ. eigenvalues --   -0.82527  -0.82456  -0.81170  -0.80912  -0.80806
 Alpha  occ. eigenvalues --   -0.80223  -0.78592  -0.78381  -0.77651  -0.77568
 Alpha  occ. eigenvalues --   -0.77367  -0.76918  -0.76503  -0.76288  -0.75813
 Alpha  occ. eigenvalues --   -0.75170  -0.72918  -0.72711  -0.72207  -0.71881
 Alpha  occ. eigenvalues --   -0.69499  -0.69487  -0.69422  -0.69184  -0.68159
 Alpha  occ. eigenvalues --   -0.68004  -0.66895  -0.66475  -0.66456  -0.66358
 Alpha  occ. eigenvalues --   -0.65330  -0.65034  -0.64969  -0.64578  -0.64486
 Alpha  occ. eigenvalues --   -0.64069  -0.62616  -0.62471  -0.60341  -0.60339
 Alpha  occ. eigenvalues --   -0.59831  -0.59445  -0.59416  -0.59009  -0.58705
 Alpha  occ. eigenvalues --   -0.58356  -0.58323  -0.57598  -0.57537  -0.57321
 Alpha  occ. eigenvalues --   -0.56393  -0.56388  -0.55888  -0.55678  -0.55442
 Alpha  occ. eigenvalues --   -0.55416  -0.55170  -0.54683  -0.54365  -0.53965
 Alpha  occ. eigenvalues --   -0.53950  -0.53824  -0.53411  -0.53100  -0.52970
 Alpha  occ. eigenvalues --   -0.52884  -0.52773  -0.52694  -0.52245  -0.52045
 Alpha  occ. eigenvalues --   -0.51904  -0.51818  -0.51681  -0.51620  -0.51179
 Alpha  occ. eigenvalues --   -0.51129  -0.50913  -0.50722  -0.50544  -0.50409
 Alpha  occ. eigenvalues --   -0.50339  -0.50225  -0.49848  -0.49698  -0.49619
 Alpha  occ. eigenvalues --   -0.49583  -0.49338  -0.49002  -0.48894  -0.48634
 Alpha  occ. eigenvalues --   -0.48569  -0.48358  -0.48312  -0.48273  -0.48239
 Alpha  occ. eigenvalues --   -0.47888  -0.47808  -0.47723  -0.47320  -0.47294
 Alpha  occ. eigenvalues --   -0.47148  -0.46984  -0.46932  -0.46569  -0.46471
 Alpha  occ. eigenvalues --   -0.46339  -0.46279  -0.46141  -0.45972  -0.45800
 Alpha  occ. eigenvalues --   -0.45496  -0.45453  -0.45185  -0.45064  -0.45052
 Alpha  occ. eigenvalues --   -0.45047  -0.44984  -0.44759  -0.44717  -0.44452
 Alpha  occ. eigenvalues --   -0.43996  -0.43893  -0.43788  -0.43643  -0.43486
 Alpha  occ. eigenvalues --   -0.43339  -0.43289  -0.43180  -0.43079  -0.42816
 Alpha  occ. eigenvalues --   -0.42550  -0.42426  -0.42362  -0.42199  -0.42026
 Alpha  occ. eigenvalues --   -0.41960  -0.41774  -0.41749  -0.41676  -0.41605
 Alpha  occ. eigenvalues --   -0.41493  -0.41294  -0.41158  -0.40987  -0.40802
 Alpha  occ. eigenvalues --   -0.40533  -0.40053  -0.40038  -0.39869  -0.39177
 Alpha  occ. eigenvalues --   -0.38749  -0.38578  -0.38045  -0.37840  -0.37499
 Alpha  occ. eigenvalues --   -0.36967  -0.36960  -0.36635  -0.35981  -0.35932
 Alpha  occ. eigenvalues --   -0.35732  -0.35567  -0.35225  -0.34874  -0.33740
 Alpha  occ. eigenvalues --   -0.33459  -0.33388  -0.32935  -0.31492  -0.31339
 Alpha  occ. eigenvalues --   -0.31264  -0.30974  -0.30890  -0.30518  -0.30470
 Alpha  occ. eigenvalues --   -0.30190  -0.30023  -0.29725  -0.24164  -0.24001
 Alpha  occ. eigenvalues --   -0.21282  -0.20840
 Alpha virt. eigenvalues --   -0.08733  -0.08076  -0.02312  -0.01720   0.00563
 Alpha virt. eigenvalues --    0.00822   0.01649   0.02460   0.02592   0.03090
 Alpha virt. eigenvalues --    0.04007   0.04630   0.04883   0.05595   0.05868

 Mulliken charges:
               1
     1  Mg  12.000005
     2  C    6.001058
     3  C    5.999779
     4  C    5.999044
     5  C    6.000083
     6  N    7.000450
     7  C    5.999047
     8  C    6.000258
     9  C    5.999747
    10  C    6.000710
    11  C    5.999598
    12  C    6.000096
    13  C    5.999925
    14  H    1.000054
    15  N    6.999555
    16  C    6.001350
    17  C    6.000495
    18  C    6.000393
    19  C    6.001138
    20  C    5.999647
    21  C    6.000367
    22  O    8.000670
    23  C    5.999917
    24  N    6.999714
    25  C    6.001066
    26  C    5.999803
    27  C    6.000184
    28  C    5.999049
    29  C    6.000030
    30  C    6.000391
    31  C    5.999962
    32  N    7.000184
    33  C    5.998927
    34  C    5.999022
    35  C    6.000059
    36  C    5.998775
    37  C    6.000155
    38  C    5.999475
    39  O    7.999131
    40  C    5.999842
    41  C    5.999952
    42  O    7.999920
    43  O    7.999931
    44  C    6.000015
    45  H    1.000705
    46  H    0.999927
    47  H    0.999485
    48  H    1.000203
    49  H    1.000242
    50  H    1.000630
    51  H    1.000545
    52  H    1.000069
    53  H    0.999709
    54  H    1.000067
    55  H    1.000197
    56  H    0.999942
    57  H    1.000651
    58  H    1.000567
    59  H    1.000834
    60  H    1.000160
    61  H    1.000288
    62  H    1.000200
    63  H    0.999788
    64  H    0.999899
    65  H    1.000220
    66  H    0.999854
    67  H    0.999890
    68  H    0.999898
    69  H    0.999453
    70  H    0.999666
    71  H    0.999835
    72  H    1.000214
    73  H    0.999271
    74  H    0.999460
    75  H    0.999433
    76  H    0.999834
    77  H    1.000023
    78  H    1.000015
    79  H    0.999852
    80  Mg  11.997814
    81  C    6.028083
    82  C    5.982391
    83  C    5.963072
    84  C    6.013968
    85  N    7.006482
    86  C    5.963355
    87  C    6.012134
    88  C    5.986917
    89  C    6.034939
    90  C    5.995513
    91  C    6.002624
    92  C    6.004914
    93  H    0.991793
    94  N    6.990279
    95  C    6.047146
    96  C    6.018681
    97  C    6.013261
    98  C    6.046685
    99  C    5.996074
   100  C    6.012654
   101  O    8.019201
   102  C    5.994933
   103  N    6.997255
   104  C    6.046571
   105  C    5.981081
   106  C    6.013225
   107  C    5.964069
   108  C    5.996962
   109  C    6.005227
   110  C    5.999906
   111  N    7.004068
   112  C    5.959209
   113  C    5.969131
   114  C    5.994621
   115  C    5.966398
   116  C    6.003991
   117  C    5.985050
   118  O    7.972042
   119  C    5.997410
   120  C    5.992026
   121  O    7.991075
   122  O    8.006518
   123  C    6.002626
   124  H    1.012850
   125  H    1.005048
   126  H    0.987787
   127  H    1.000126
   128  H    1.005894
   129  H    1.014840
   130  H    0.999914
   131  H    1.003496
   132  H    1.004156
   133  H    0.990879
   134  H    0.992139
   135  H    1.007227
   136  H    1.016697
   137  H    1.016288
   138  H    1.019051
   139  H    1.009262
   140  H    1.010464
   141  H    1.013111
   142  H    1.002784
   143  H    0.998587
   144  H    1.009918
   145  H    0.995011
   146  H    1.005011
   147  H    1.000228
   148  H    0.986385
   149  H    1.004103
   150  H    0.994050
   151  H    0.999451
   152  H    0.979880
   153  H    0.980615
   154  H    0.982387
   155  H    0.993423
   156  H    0.994969
   157  H    0.993286
   158  H    0.999307
 Sum of Mulliken charges = 624.00000

 Dipole moment (field-independent basis, Debye):
    X=              8.4642    Y=              6.2556    Z=             -3.2007  Tot=             11.0009
 Quadrupole moment (field-independent basis, Debye-Ang):
   XX=            220.6973   YY=              1.8907   ZZ=             -3.0158
   XY=             85.5247   XZ=            -41.7811   YZ=              0.4682

 Normal termination of Gaussian 16 at Thu Sep 23 01:22:06 2021.
