 Gaussian 16, Revision A.03,
 Gaussian 16:  ES64L-G16RevA.03 25-Dec-2016

 ----------------------------------------------------------
 #p cam-b3lyp/Def2SVP td=(nstates=5) density=(transition=1)
 ----------------------------------------------------------

 --------------------------------
 TDDFT excited states in gaussian
 --------------------------------
 Symbolic Z-matrix:
 Charge =  0 Multiplicity = 1

                         Standard orientation:
 ---------------------------------------------------------------------
 Center     Atomic      Atomic             Coordinates (Angstroms)
 Number     Number       Type             X           Y           Z
 ---------------------------------------------------------------------
      1         12           0      -12.429445    0.235202   -0.757231
      2          6           0       -9.409436   -1.623023   -0.599109
      3          6           0      -14.130767   -2.776641   -0.308422
      4          6           0      -14.982031    2.046938    0.261623
      5          6           0      -10.315363    3.221370   -0.889234
      6          7           0      -11.773342   -1.973041   -0.229020
      7          6           0      -10.540792   -2.471133   -0.497052
      8          6           0      -10.607171   -3.987581   -0.525971
      9          6           0      -12.026902   -4.287682   -1.007143
     10          6           0      -12.721809   -2.948634   -0.435254
     11          6           0      -12.280883   -4.394726   -2.511927
     12          6           0      -10.186101   -4.567203    0.894443
     13          6           0       -9.255083   -5.709808    0.782245
     14          1           0       -9.479477   -6.908327    1.724673
     15          7           0      -14.348174   -0.267742   -0.044551
     16          6           0      -14.882883   -1.579697   -0.015350
     17          6           0      -16.251174   -1.451094    0.418713
     18          6           0      -16.600231   -0.078145    0.518719
     19          6           0      -15.310839    0.660587    0.272520
     20          6           0      -17.115653   -2.687825    0.642557
     21          6           0      -17.911785    0.462444    0.932415
     22          8           0      -18.811843   -0.320620    1.209605
     23          6           0      -18.266818    1.896880    1.148961
     24          7           0      -12.555190    2.415181   -0.271694
     25          6           0      -13.815906    2.850591   -0.077321
     26          6           0      -13.867272    4.389142   -0.085451
     27          6           0      -12.382561    4.809821   -0.613505
     28          6           0      -11.693259    3.421163   -0.645342
     29          6           0      -15.108999    5.006868   -0.872914
     30          6           0      -11.644088    5.886088    0.242296
     31          6           0      -10.585590    5.388473    1.284801
     32          7           0      -10.390745    0.728706   -0.755038
     33          6           0       -9.710343    1.973406   -0.880085
     34          6           0       -8.228885    1.693451   -1.126425
     35          6           0       -8.132796    0.320452   -0.965575
     36          6           0       -9.459092   -0.205389   -0.764163
     37          6           0       -7.027900    2.614607   -1.415097
     38          6           0       -7.228879   -0.784877   -1.007736
     39          8           0       -6.027998   -0.823885   -1.280607
     40          6           0       -8.034091   -1.974569   -0.623665
     41          6           0       -7.521082   -2.295957    0.798701
     42          8           0       -7.823599   -1.726952    1.845452
     43          8           0       -6.560985   -3.338057    0.672534
     44          6           0       -5.852231   -3.733221    1.821383
     45          1           0      -14.728648   -3.689484   -0.263988
     46          1           0      -15.928037    2.562164    0.439497
     47          1           0       -9.618893    4.038919   -1.083192
     48          1           0       -9.967154   -4.432857   -1.287538
     49          1           0      -12.552523   -5.175704   -0.657966
     50          1           0      -11.380571   -4.576187   -3.098254
     51          1           0      -12.939426   -3.601110   -2.865758
     52          1           0      -12.856989   -5.318210   -2.580694
     53          1           0      -11.080315   -4.935484    1.397402
     54          1           0       -9.853925   -3.811111    1.605919
     55          1           0       -8.294639   -5.225461    0.954797
     56          1           0       -9.305111   -6.091259   -0.237494
     57          1           0      -17.845326   -2.845236   -0.151496
     58          1           0      -17.566940   -2.622931    1.631543
     59          1           0      -16.495676   -3.584318    0.657975
     60          1           0      -18.260621    2.398076    0.180731
     61          1           0      -17.624734    2.447663    1.837414
     62          1           0      -19.321107    2.015975    1.395778
     63          1           0      -13.919102    4.634713    0.975048
     64          1           0      -12.460285    5.111216   -1.657575
     65          1           0      -15.935047    4.297499   -0.921387
     66          1           0      -14.942329    5.472195   -1.845128
     67          1           0      -15.305227    5.923432   -0.314380
     68          1           0      -12.335137    6.545197    0.767148
     69          1           0      -11.107155    6.450608   -0.519633
     70          1           0      -10.756445    6.192152    2.001430
     71          1           0       -9.536070    5.384322    0.989725
     72          1           0      -10.933680    4.431877    1.675031
     73          1           0       -6.551930    2.351943   -2.359208
     74          1           0       -6.373625    2.213045   -0.641880
     75          1           0       -7.345982    3.638767   -1.221330
     76          1           0       -7.789937   -2.806826   -1.283943
     77          1           0       -5.122873   -4.527013    1.655309
     78          1           0       -6.581933   -4.097841    2.543254
     79          1           0       -5.344711   -2.829985    2.161224
     80         12           0       11.458995    0.860079   -0.085124
     81          6           0       12.353994   -2.502683    0.115779
     82          6           0        8.413746    0.092069    1.336566
     83          6           0       10.865877    4.082005   -0.274093
     84          6           0       14.986663    1.652248   -0.543999
     85          7           0       10.482507   -1.109018    0.597337
     86          6           0       11.040275   -2.356479    0.616333
     87          6           0       10.066444   -3.367165    1.109189
     88          6           0        8.808865   -2.513355    1.543064
     89          6           0        9.218947   -1.042762    1.141804
     90          6           0        7.452279   -3.042222    1.013141
     91          6           0       10.615510   -4.217269    2.280634
     92          6           0       10.450118   -5.708269    1.991810
     93          1           0        9.731002   -6.574212    3.069780
     94          7           0        9.834467    1.937749    0.432537
     95          6           0        8.638606    1.461033    0.967498
     96          6           0        7.762685    2.622329    1.054616
     97          6           0        8.451927    3.820245    0.548588
     98          6           0        9.792521    3.305500    0.125363
     99          6           0        6.479921    2.585507    1.721702
    100          6           0        7.876424    5.170284    0.668744
    101          8           0        6.775897    5.405562    1.121970
    102          6           0        8.615730    6.420136    0.339864
    103          7           0       12.723428    2.536945   -0.315971
    104          6           0       12.164751    3.745930   -0.645054
    105          6           0       13.250780    4.769409   -0.901280
    106          6           0       14.501381    4.082518   -0.497052
    107          6           0       14.081300    2.702625   -0.374558
    108          6           0       13.239324    5.413951   -2.347743
    109          6           0       15.017684    4.521120    0.916266
    110          6           0       16.458963    4.464317    1.133714
    111          7           0       13.334886   -0.176635   -0.229404
    112          6           0       14.645941    0.250389   -0.477770
    113          6           0       15.455526   -0.886454   -0.786047
    114          6           0       14.639149   -1.982423   -0.532852
    115          6           0       13.337774   -1.498311   -0.149167
    116          6           0       16.874847   -0.802296   -1.211770
    117          6           0       14.607422   -3.389506   -0.471969
    118          8           0       15.478223   -4.199562   -0.699005
    119          6           0       13.156011   -3.781669   -0.116132
    120          6           0       12.627609   -4.668951   -1.164455
    121          8           0       12.086710   -4.299954   -2.220519
    122          8           0       12.964059   -5.971876   -0.876946
    123          6           0       12.472034   -7.057399   -1.709605
    124          1           0        7.449437   -0.233101    1.731187
    125          1           0       10.826512    5.172850   -0.327660
    126          1           0       16.028295    1.935670   -0.708846
    127          1           0        9.703724   -3.851238    0.201995
    128          1           0        8.637247   -2.506766    2.619010
    129          1           0        7.692897   -4.073176    0.750838
    130          1           0        6.978164   -2.463963    0.220019
    131          1           0        6.722431   -3.063751    1.822069
    132          1           0       10.064960   -4.096505    3.213411
    133          1           0       11.659572   -3.928783    2.400969
    134          1           0       11.496225   -6.010620    2.037929
    135          1           0       10.044843   -5.798847    0.985095
    136          1           0        6.299940    1.560939    2.047929
    137          1           0        5.611657    2.809367    1.101216
    138          1           0        6.516686    3.218849    2.608756
    139          1           0        9.018427    6.130409   -0.630717
    140          1           0        9.410888    6.557356    1.073139
    141          1           0        7.938771    7.270759    0.257790
    142          1           0       12.986448    5.579295   -0.222340
    143          1           0       15.315861    4.038426   -1.220158
    144          1           0       12.324891    5.146658   -2.877664
    145          1           0       14.150177    5.259887   -2.927338
    146          1           0       13.098341    6.494354   -2.334125
    147          1           0       14.509549    3.932907    1.680502
    148          1           0       14.735973    5.553167    1.124521
    149          1           0       16.898597    5.403988    0.797524
    150          1           0       16.917735    3.603277    0.646548
    151          1           0       16.671259    4.535653    2.200946
    152          1           0       17.036417    0.043904   -1.879422
    153          1           0       17.256849   -1.718127   -1.663085
    154          1           0       17.399484   -0.533428   -0.294896
    155          1           0       13.094941   -4.438342    0.751813
    156          1           0       12.890129   -7.191928   -2.707254
    157          1           0       11.385528   -7.002015   -1.773857
    158          1           0       12.790565   -7.955836   -1.182279
 ---------------------------------------------------------------------

 SCF Done:  E(RCAM-B3LYP) =  -4069.73438166     A.U. after   18 cycles

 Excitation energies and oscillator strengths:

 Excited State   1:      Singlet-A      1.6734 eV  740.92 nm  f=0.5428  <S**2>=0.000
     309 -> 316        0.17355
     311 -> 313        0.63196
     312 -> 314        0.25957
     309 <- 316        0.10243
 This state for optimization and/or second-order correction.
 Total Energy, E(TD-HF/TD-DFT) =  -4069.67288573
 Copying the excited state density for this state as the 1-particle RhoCI density.

 Excited State   2:      Singlet-A      1.6860 eV  735.36 nm  f=0.1937  <S**2>=0.000
     310 -> 315        0.18284
     311 -> 313       -0.26014
     312 -> 314        0.62876
     310 <- 315        0.10375

 Excited State   3:      Singlet-A      2.1860 eV  567.18 nm  f=0.0917  <S**2>=0.000
     309 -> 313        0.63259
     311 -> 316       -0.29616

 Excited State   4:      Singlet-A      2.1918 eV  565.68 nm  f=0.0652  <S**2>=0.000
     310 -> 314        0.61159
     312 -> 315       -0.33796

 Excited State   5:      Singlet-A      2.8413 eV  436.37 nm  f=0.0000  <S**2>=0.000
     312 -> 313        0.70703

 The electronic state is 1-A.
 Alpha  occ. eigenvalues --  -46.91289 -46.88900 -19.24834 -19.24716 -19.21402
 Alpha  occ. eigenvalues --  -19.19326 -19.18901 -19.18317 -19.17564 -19.17336
 Alpha  occ. eigenvalues --  -14.42394 -14.42282 -14.41932 -14.41890 -14.40230
 Alpha  occ. eigenvalues --  -14.40224 -14.39750 -14.39127 -10.40593 -10.39053
 Alpha  occ. eigenvalues --  -10.34550 -10.34170 -10.34117 -10.33661 -10.31816
 Alpha  occ. eigenvalues --  -10.31645 -10.31574 -10.31529 -10.31526 -10.31415
 Alpha  occ. eigenvalues --  -10.31392 -10.31299 -10.31070 -10.31019 -10.31014
 Alpha  occ. eigenvalues --  -10.30961 -10.30818 -10.30432 -10.30068 -10.29822
 Alpha  occ. eigenvalues --  -10.29456 -10.29377 -10.29048 -10.28942 -10.28764
 Alpha  occ. eigenvalues --  -10.28512 -10.28503 -10.28502 -10.28408 -10.28371
 Alpha  occ. eigenvalues --  -10.28318 -10.28267 -10.28211 -10.28187 -10.28134
 Alpha  occ. eigenvalues --  -10.28076 -10.27926 -10.27902 -10.27771 -10.27652
 Alpha  occ. eigenvalues --  -10.27592 -10.27544 -10.27344 -10.27319 -10.27262
 Alpha  occ. eigenvalues --  -10.27163 -10.27130 -10.27130 -10.27100 -10.27082
 Alpha  occ. eigenvalues --  -10.27082 -10.26768 -10.26766 -10.26411 -10.26399
 Alpha  occ. eigenvalues --  -10.26359 -10.26237 -10.26189 -10.25761 -10.25639
 Alpha  occ. eigenvalues --  -10.25526 -10.25265 -10.25151 -10.24963 -10.24798
 Alpha  occ. eigenvalues --  -10.24680  -3.19489  -3.17390  -1.94330  -1.93996
 Alpha  occ. eigenvalues --   -1.93744  -1.92293  -1.91854  -1.91679  -1.15824
 Alpha  occ. eigenvalues --   -1.15413  -1.10018  -1.09798  -1.09589  -1.09348
 Alpha  occ. eigenvalues --   -1.08654  -1.06671  -1.04946  -1.04190  -1.03758
 Alpha  occ. eigenvalues --   -1.03438  -1.02943  -1.02825  -1.01529  -1.01263
 Alpha  occ. eigenvalues --   -0.94370  -0.92611  -0.90731  -0.89544  -0.89168
 Alpha  occ. eigenvalues --   -0.89011  -0.88705  -0.87783  -0.87664  -0.87252
 Alpha  occ. eigenvalues --   -0.87200  -0.86835  -0.86246  -0.85562  -0.85223
 Alpha  occ. eigenvalues --   -0.84771  -0.84507  -0.83648  -0.83412  -0.82693
 Alpha  occ. eigenvalues --   -0.82530  -0.81632  -0.81371  -0.80848  -0.80782
 Alpha  occ. eigenvalues --   -0.80261  -0.78636  -0.78019  -0.77935  -0.77260
 Alpha  occ. eigenvalues --   -0.77069  -0.76871  -0.76268  -0.75998  -0.75336
 Alpha  occ. eigenvalues --   -0.75191  -0.73366  -0.72732  -0.71990  -0.71829
 Alpha  occ. eigenvalues --   -0.69896  -0.69297  -0.69073  -0.68703  -0.67948
 Alpha  occ. eigenvalues --   -0.67472  -0.67316  -0.66860  -0.66430  -0.65883
 Alpha  occ. eigenvalues --   -0.65337  -0.65230  -0.64952  -0.64701  -0.64641
 Alpha  occ. eigenvalues --   -0.64533  -0.62208  -0.61994  -0.60700  -0.59921
 Alpha  occ. eigenvalues --   -0.59756  -0.59450  -0.59421  -0.59261  -0.58919
 Alpha  occ. eigenvalues --   -0.58896  -0.58247  -0.57873  -0.57371  -0.57024
 Alpha  occ. eigenvalues --   -0.56360  -0.56194  -0.55943  -0.55858  -0.55629
 Alpha  occ. eigenvalues --   -0.55449  -0.55101  -0.54938  -0.54553  -0.54390
 Alpha  occ. eigenvalues --   -0.54198  -0.53669  -0.53372  -0.53153  -0.53024
 Alpha  occ. eigenvalues --   -0.52797  -0.52633  -0.52509  -0.52248  -0.52167
 Alpha  occ. eigenvalues --   -0.52051  -0.51951  -0.51698  -0.51658  -0.51646
 Alpha  occ. eigenvalues --   -0.51382  -0.51296  -0.51246  -0.51190  -0.50542
 Alpha  occ. eigenvalues --   -0.50365  -0.50165  -0.49963  -0.49949  -0.49605
 Alpha  occ. eigenvalues --   -0.49392  -0.49345  -0.49217  -0.49070  -0.48937
 Alpha  occ. eigenvalues --   -0.48806  -0.48526  -0.48470  -0.48464  -0.48246
 Alpha  occ. eigenvalues --   -0.47746  -0.47586  -0.47454  -0.47148  -0.47084
 Alpha  occ. eigenvalues --   -0.46957  -0.46836  -0.46741  -0.46553  -0.46274
 Alpha  occ. eigenvalues --   -0.46158  -0.46076  -0.45930  -0.45896  -0.45851
 Alpha  occ. eigenvalues --   -0.45697  -0.45425  -0.45291  -0.45265  -0.45137
 Alpha  occ. eigenvalues --   -0.44894  -0.44556  -0.44545  -0.44436  -0.44430
 Alpha  occ. eigenvalues --   -0.44127  -0.44010  -0.43781  -0.43643  -0.43461
 Alpha  occ. eigenvalues --   -0.43386  -0.43293  -0.43186  -0.43019  -0.42984
 Alpha  occ. eigenvalues --   -0.42925  -0.42517  -0.42318  -0.42041  -0.42028
 Alpha  occ. eigenvalues --   -0.41624  -0.41591  -0.41546  -0.41290  -0.41287
 Alpha  occ. eigenvalues --   -0.41122  -0.41012  -0.40970  -0.40625  -0.40404
 Alpha  occ. eigenvalues --   -0.40230  -0.40073  -0.39177  -0.39148  -0.38555
 Alpha  occ. eigenvalues --   -0.38439  -0.38249  -0.37916  -0.37692  -0.37626
 Alpha  occ. eigenvalues --   -0.37287  -0.36929  -0.36511  -0.36341  -0.36319
 Alpha  occ. eigenvalues --   -0.36281  -0.35765  -0.35213  -0.34303  -0.34203
 Alpha  occ. eigenvalues --   -0.33673  -0.33332  -0.32986  -0.31450  -0.31340
 Alpha  occ. eigenvalues --   -0.30793  -0.30638  -0.30553  -0.30204  -0.29838
 Alpha  occ. eigenvalues --   -0.29612  -0.29465  -0.29393  -0.24266  -0.24036
 Alpha  occ. eigenvalues --   -0.21531  -0.21023
 Alpha virt. eigenvalues --   -0.09119  -0.08516  -0.02601  -0.02469  -0.00591
 Alpha virt. eigenvalues --    0.00147   0.00294   0.02182   0.02391   0.02719
 Alpha virt. eigenvalues --    0.04129   0.04711   0.05034   0.05173   0.05500

 Mulliken charges:
               1
     1  Mg  11.999207
     2  C    5.990760
     3  C    6.007444
     4  C    6.007791
     5  C    5.991367
     6  N    6.998604
     7  C    6.010802
     8  C    5.998859
     9  C    6.000665
    10  C    5.988406
    11  C    6.000710
    12  C    5.997974
    13  C    5.999811
    14  H    1.002091
    15  N    7.005619
    16  C    5.980044
    17  C    5.993655
    18  C    5.994736
    19  C    5.984579
    20  C    6.002423
    21  C    5.996510
    22  O    7.991088
    23  C    6.001312
    24  N    6.998411
    25  C    5.987225
    26  C    6.004928
    27  C    5.994342
    28  C    6.015471
    29  C    6.001281
    30  C    6.000362
    31  C    5.996494
    32  N    6.996979
    33  C    6.020641
    34  C    6.009984
    35  C    6.001603
    36  C    6.012536
    37  C    6.000253
    38  C    6.006634
    39  O    8.012801
    40  C    5.999110
    41  C    6.000910
    42  O    8.001927
    43  O    8.000514
    44  C    5.999012
    45  H    0.996296
    46  H    0.998756
    47  H    1.004091
    48  H    0.999523
    49  H    0.999459
    50  H    0.994280
    51  H    1.000791
    52  H    0.998963
    53  H    1.004870
    54  H    0.999168
    55  H    0.998069
    56  H    1.000961
    57  H    0.991913
    58  H    0.993401
    59  H    0.992735
    60  H    0.995647
    61  H    0.995551
    62  H    0.995134
    63  H    0.999661
    64  H    1.002058
    65  H    1.003199
    66  H    0.997424
    67  H    0.998016
    68  H    1.004008
    69  H    1.000356
    70  H    1.003624
    71  H    0.999097
    72  H    1.000674
    73  H    1.007002
    74  H    1.005829
    75  H    1.006310
    76  H    1.003291
    77  H    1.001668
    78  H    1.001910
    79  H    1.000389
    80  Mg  11.998802
    81  C    5.983502
    82  C    6.019054
    83  C    6.022773
    84  C    5.978056
    85  N    6.995783
    86  C    6.031393
    87  C    5.986900
    88  C    6.008396
    89  C    5.972348
    90  C    6.002906
    91  C    5.998999
    92  C    5.998877
    93  H    1.007565
    94  N    7.013179
    95  C    5.953073
    96  C    5.980869
    97  C    5.988257
    98  C    5.958551
    99  C    6.011298
   100  C    5.993694
   101  O    7.982803
   102  C    6.001127
   103  N    6.993074
   104  C    5.967862
   105  C    6.007310
   106  C    5.992853
   107  C    6.035989
   108  C    6.001089
   109  C    5.992345
   110  C    5.999190
   111  N    6.994530
   112  C    6.044984
   113  C    6.022246
   114  C    6.004742
   115  C    6.033528
   116  C    5.998144
   117  C    6.016161
   118  O    8.030521
   119  C    5.997489
   120  C    6.004585
   121  O    8.007411
   122  O    7.999610
   123  C    5.996510
   124  H    0.990682
   125  H    0.989805
   126  H    1.008389
   127  H    1.003701
   128  H    0.999113
   129  H    0.988597
   130  H    1.002303
   131  H    0.999912
   132  H    1.007511
   133  H    0.993223
   134  H    0.996183
   135  H    1.000569
   136  H    0.980679
   137  H    0.978087
   138  H    0.980347
   139  H    0.994577
   140  H    0.990254
   141  H    0.988383
   142  H    1.000328
   143  H    0.998027
   144  H    1.002267
   145  H    0.988061
   146  H    0.998087
   147  H    1.005229
   148  H    1.013769
   149  H    1.005138
   150  H    0.994282
   151  H    1.003594
   152  H    1.018197
   153  H    1.013386
   154  H    1.017709
   155  H    1.008811
   156  H    1.002795
   157  H    1.005815
   158  H    1.003813
 Sum of Mulliken charges = 624.00000

 Dipole moment (field-independent basis, Debye):
    X=             12.1216    Y=             -4.5106    Z=             -1.9444  Tot=             13.0789
 Quadrupole moment (field-independent basis, Debye-Ang):
   XX=             91.6810   YY=             -4.6803   ZZ=             -0.2851
   XY=            -70.5455   XZ=             -7.7196   YZ=             -0.8065

 Normal termination of Gaussian 16 at Wed Sep 22 13:34:56 2021.
