 Gaussian 16, Revision A.03,
 Gaussian 16:  ES64L-G16RevA.03 25-Dec-2016

 ----------------------------------------------------------
 #p cam-b3lyp/Def2SVP td=(nstates=5) density=(transition=1)
 ----------------------------------------------------------

 --------------------------------
 TDDFT excited states in gaussian
 --------------------------------
 Symbolic Z-matrix:
 Charge =  0 Multiplicity = 1

                         Standard orientation:
 ---------------------------------------------------------------------
 Center     Atomic      Atomic             Coordinates (Angstroms)
 Number     Number       Type             X           Y           Z
 ---------------------------------------------------------------------
      1         12           0      -13.839200   -0.158742    0.112380
      2          6           0      -10.532780    1.250350   -0.323994
      3          6           0      -14.567208    1.213046   -2.720566
      4          6           0      -16.851896   -1.288073    0.827094
      5          6           0      -13.058672   -0.899353    3.583967
      6          7           0      -12.589661    1.008825   -1.421643
      7          6           0      -11.296255    1.488251   -1.431682
      8          6           0      -11.043951    2.268081   -2.671472
      9          6           0      -12.466937    2.641334   -3.160774
     10          6           0      -13.287789    1.596695   -2.368357
     11          6           0      -12.909195    4.076530   -2.800337
     12          6           0      -10.359313    1.356709   -3.735239
     13          6           0       -9.152304    1.989581   -4.530354
     14          1           0       -8.110357    1.053628   -5.262723
     15          7           0      -15.538670   -0.067083   -0.923668
     16          6           0      -15.647930    0.435240   -2.124677
     17          6           0      -16.991172    0.171276   -2.604994
     18          6           0      -17.563535   -0.653478   -1.608065
     19          6           0      -16.645483   -0.668798   -0.501629
     20          6           0      -17.428802    0.611479   -4.013790
     21          6           0      -18.907307   -1.324653   -1.669783
     22          8           0      -19.297244   -1.975009   -0.746555
     23          6           0      -19.700531   -1.253361   -2.933743
     24          7           0      -14.879411   -0.735732    2.117315
     25          6           0      -16.080027   -1.294500    1.979719
     26          6           0      -16.487856   -2.045941    3.190962
     27          6           0      -15.296093   -1.722590    4.146760
     28          6           0      -14.291002   -1.051116    3.248630
     29          6           0      -17.924169   -1.783558    3.770970
     30          6           0      -14.765159   -3.028556    4.857013
     31          6           0      -15.082880   -3.272191    6.358723
     32          7           0      -12.261424    0.073569    1.378811
     33          6           0      -12.015337   -0.320139    2.713159
     34          6           0      -10.622779    0.015771    3.075100
     35          6           0      -10.060993    0.584135    1.939674
     36          6           0      -11.043736    0.654150    0.966836
     37          6           0      -10.014863   -0.107841    4.493283
     38          6           0       -8.776555    1.166388    1.433542
     39          8           0       -7.672448    1.297883    1.906639
     40          6           0       -9.083347    1.787363   -0.020077
     41          6           0       -8.062394    1.475708   -0.951708
     42          8           0       -8.121600    0.477122   -1.682709
     43          8           0       -6.959731    2.323817   -0.980800
     44          6           0       -5.951102    2.162680   -2.072664
     45          1           0      -14.931002    1.583152   -3.680715
     46          1           0      -17.831081   -1.720502    1.042650
     47          1           0      -12.805483   -1.124295    4.621152
     48          1           0      -10.542593    3.204476   -2.425321
     49          1           0      -12.648218    2.565281   -4.232723
     50          1           0      -13.123418    4.648332   -3.703739
     51          1           0      -12.084146    4.533806   -2.254965
     52          1           0      -13.772824    4.133542   -2.137173
     53          1           0      -11.151576    1.119894   -4.445644
     54          1           0      -10.080950    0.444476   -3.207948
     55          1           0       -8.625532    2.657824   -3.849672
     56          1           0       -9.665678    2.591073   -5.281468
     57          1           0      -17.614312   -0.282445   -4.610674
     58          1           0      -16.753272    1.290090   -4.533473
     59          1           0      -18.421517    1.059003   -3.974795
     60          1           0      -19.191344   -1.726790   -3.772795
     61          1           0      -19.871596   -0.261196   -3.351263
     62          1           0      -20.623328   -1.818157   -2.798917
     63          1           0      -16.444962   -3.107596    2.947719
     64          1           0      -15.599021   -0.944886    4.848174
     65          1           0      -18.424806   -1.129805    3.057534
     66          1           0      -17.991980   -1.430101    4.800444
     67          1           0      -18.450728   -2.736621    3.823808
     68          1           0      -13.676081   -3.039173    4.805639
     69          1           0      -14.992371   -3.831888    4.156215
     70          1           0      -15.416739   -4.299430    6.504159
     71          1           0      -15.841541   -2.562439    6.688992
     72          1           0      -14.186902   -3.142887    6.967037
     73          1           0      -10.485644   -0.960780    4.981313
     74          1           0      -10.310743    0.759274    5.084221
     75          1           0       -8.931685   -0.228838    4.466397
     76          1           0       -9.150744    2.869523    0.087740
     77          1           0       -6.396652    2.354258   -3.049844
     78          1           0       -5.360255    1.256996   -1.941143
     79          1           0       -5.296823    3.032605   -2.017082
     80         12           0       13.385345    0.536279   -0.089134
     81          6           0       12.323686   -2.727030   -0.700073
     82          6           0       10.100429    1.578227   -0.179986
     83          6           0       14.594769    3.509475    0.593287
     84          6           0       16.574492   -0.832521    1.023639
     85          7           0       11.392558   -0.544403   -0.486063
     86          6           0       11.190898   -1.881916   -0.681038
     87          6           0        9.753123   -2.172668   -0.928031
     88          6           0        9.034724   -0.780828   -0.714891
     89          6           0       10.236963    0.203672   -0.437041
     90          6           0        8.038566   -0.387422   -1.834599
     91          6           0        9.184643   -3.262594    0.012885
     92          6           0        8.482607   -4.357461   -0.788532
     93          1           0        7.021154   -4.718942   -0.385428
     94          7           0       12.465645    2.316697    0.140431
     95          6           0       11.102386    2.585282    0.026799
     96          6           0       10.978315    4.029789    0.173218
     97          6           0       12.303977    4.638394    0.369037
     98          6           0       13.241686    3.473055    0.306131
     99          6           0        9.700182    4.696761    0.288841
    100          6           0       12.475440    6.059808    0.713173
    101          8           0       11.564644    6.857019    0.795847
    102          6           0       13.778004    6.669262    1.098863
    103          7           0       15.232031    1.181409    0.709313
    104          6           0       15.563014    2.509765    0.619988
    105          6           0       16.975891    2.729442    1.118127
    106          6           0       17.368182    1.418919    1.690716
    107          6           0       16.335896    0.533249    1.195184
    108          6           0       17.971272    3.360062    0.060132
    109          6           0       17.281334    1.377663    3.255056
    110          6           0       18.206836    0.481312    3.939015
    111          7           0       14.330284   -1.382487    0.110833
    112          6           0       15.616770   -1.778099    0.499867
    113          6           0       15.809928   -3.148935    0.144380
    114          6           0       14.561311   -3.583508   -0.284373
    115          6           0       13.656533   -2.463019   -0.252190
    116          6           0       17.095420   -3.873372    0.304054
    117          6           0       13.830253   -4.711993   -0.704697
    118          8           0       14.186997   -5.858578   -0.859964
    119          6           0       12.406157   -4.214221   -1.038132
    120          6           0       12.092886   -4.555688   -2.434814
    121          8           0       12.380050   -3.869204   -3.429941
    122          8           0       11.573527   -5.828676   -2.491731
    123          6           0       11.088012   -6.367200   -3.751904
    124          1           0        9.047315    1.845470   -0.284314
    125          1           0       15.117663    4.421840    0.890836
    126          1           0       17.554109   -1.194444    1.342797
    127          1           0        9.688223   -2.292518   -2.009844
    128          1           0        8.396602   -0.750851    0.167752
    129          1           0        7.843478   -1.345797   -2.317324
    130          1           0        8.349674    0.412017   -2.507147
    131          1           0        7.105380   -0.038264   -1.393285
    132          1           0        8.392254   -2.910387    0.673061
    133          1           0       10.031869   -3.641642    0.584113
    134          1           0        9.081930   -5.212328   -0.475647
    135          1           0        8.623950   -4.126192   -1.843265
    136          1           0        8.917762    3.946352    0.173681
    137          1           0        9.468587    5.424781   -0.489202
    138          1           0        9.607658    5.128091    1.286203
    139          1           0       14.398575    6.268143    0.297533
    140          1           0       14.076096    6.268978    2.068250
    141          1           0       13.731074    7.757967    1.065886
    142          1           0       16.847378    3.493067    1.884356
    143          1           0       18.290678    0.961468    1.333022
    144          1           0       17.425553    3.709690   -0.816452
    145          1           0       18.842663    2.747489   -0.173859
    146          1           0       18.382417    4.318154    0.376915
    147          1           0       16.258861    1.141282    3.549886
    148          1           0       17.472704    2.364494    3.676239
    149          1           0       19.143518    1.013025    4.109865
    150          1           0       18.361415   -0.449850    3.392906
    151          1           0       17.885686    0.342026    4.971780
    152          1           0       17.941871   -3.233401    0.055307
    153          1           0       17.150094   -4.807039   -0.255977
    154          1           0       17.170645   -4.022772    1.381185
    155          1           0       11.628871   -4.772443   -0.516124
    156          1           0       11.807694   -6.649329   -4.520453
    157          1           0       10.348636   -5.688217   -4.176162
    158          1           0       10.635707   -7.318013   -3.472443
 ---------------------------------------------------------------------

 SCF Done:  E(RCAM-B3LYP) =  -4069.75322057     A.U. after   19 cycles

 Excitation energies and oscillator strengths:

 Excited State   1:      Singlet-A      1.6751 eV  740.16 nm  f=0.3716  <S**2>=0.000
     309 -> 315       -0.18817
     312 -> 313        0.68327
     309 <- 315       -0.11085
 This state for optimization and/or second-order correction.
 Total Energy, E(TD-HF/TD-DFT) =  -4069.69166195
 Copying the excited state density for this state as the 1-particle RhoCI density.

 Excited State   2:      Singlet-A      1.7383 eV  713.24 nm  f=0.3812  <S**2>=0.000
     310 -> 316        0.16381
     311 -> 314        0.68878
     310 <- 316        0.10274

 Excited State   3:      Singlet-A      2.1858 eV  567.22 nm  f=0.1037  <S**2>=0.000
     309 -> 313        0.63559
     312 -> 315        0.29750

 Excited State   4:      Singlet-A      3.0369 eV  408.26 nm  f=0.0000  <S**2>=0.000
     312 -> 314        0.70706

 Excited State   5:      Singlet-A      3.0608 eV  405.07 nm  f=0.0000  <S**2>=0.000
     311 -> 313        0.70708

 The electronic state is 1-A.
 Alpha  occ. eigenvalues --  -46.89469 -46.88878 -19.24804 -19.24013 -19.19675
 Alpha  occ. eigenvalues --  -19.19300 -19.19283 -19.18569 -19.18293 -19.17320
 Alpha  occ. eigenvalues --  -14.42259 -14.41867 -14.41788 -14.40204 -14.40199
 Alpha  occ. eigenvalues --  -14.39851 -14.39800 -14.39105 -10.39026 -10.38556
 Alpha  occ. eigenvalues --  -10.35990 -10.35156 -10.34146 -10.33644 -10.31666
 Alpha  occ. eigenvalues --  -10.31614 -10.31550 -10.31507 -10.31503 -10.31167
 Alpha  occ. eigenvalues --  -10.31051 -10.30997 -10.30990 -10.30625 -10.30412
 Alpha  occ. eigenvalues --  -10.30067 -10.30052 -10.29866 -10.29802 -10.29401
 Alpha  occ. eigenvalues --  -10.29343 -10.29027 -10.28978 -10.28887 -10.28740
 Alpha  occ. eigenvalues --  -10.28488 -10.28483 -10.28289 -10.28278 -10.28235
 Alpha  occ. eigenvalues --  -10.28214 -10.28164 -10.28131 -10.28055 -10.28030
 Alpha  occ. eigenvalues --  -10.27936 -10.27906 -10.27744 -10.27298 -10.27292
 Alpha  occ. eigenvalues --  -10.27239 -10.27190 -10.27167 -10.27145 -10.27084
 Alpha  occ. eigenvalues --  -10.27078 -10.26830 -10.26746 -10.26549 -10.26386
 Alpha  occ. eigenvalues --  -10.26380 -10.26378 -10.26316 -10.26309 -10.26167
 Alpha  occ. eigenvalues --  -10.26079 -10.25947 -10.25759 -10.25732 -10.25558
 Alpha  occ. eigenvalues --  -10.25499 -10.25469 -10.25131 -10.25131 -10.24794
 Alpha  occ. eigenvalues --  -10.24659  -3.17992  -3.17368  -1.92879  -1.92455
 Alpha  occ. eigenvalues --   -1.92291  -1.92271  -1.91832  -1.91658  -1.15384
 Alpha  occ. eigenvalues --   -1.14225  -1.12192  -1.10884  -1.09994  -1.09783
 Alpha  occ. eigenvalues --   -1.06645  -1.06437  -1.05696  -1.04983  -1.04924
 Alpha  occ. eigenvalues --   -1.04911  -1.03735  -1.02920  -1.01508  -1.01014
 Alpha  occ. eigenvalues --   -0.92587  -0.91287  -0.90707  -0.89509  -0.89286
 Alpha  occ. eigenvalues --   -0.88989  -0.88897  -0.88017  -0.87823  -0.87665
 Alpha  occ. eigenvalues --   -0.87642  -0.87179  -0.86230  -0.85222  -0.85199
 Alpha  occ. eigenvalues --   -0.84482  -0.84373  -0.83383  -0.83084  -0.82505
 Alpha  occ. eigenvalues --   -0.82166  -0.82041  -0.81348  -0.80986  -0.80758
 Alpha  occ. eigenvalues --   -0.80432  -0.78795  -0.78613  -0.77910  -0.77159
 Alpha  occ. eigenvalues --   -0.77046  -0.76726  -0.76251  -0.76242  -0.75433
 Alpha  occ. eigenvalues --   -0.75317  -0.73345  -0.72803  -0.71968  -0.71128
 Alpha  occ. eigenvalues --   -0.69274  -0.69242  -0.69049  -0.68809  -0.67964
 Alpha  occ. eigenvalues --   -0.67913  -0.67442  -0.67368  -0.66407  -0.66138
 Alpha  occ. eigenvalues --   -0.65857  -0.65649  -0.65207  -0.65002  -0.64617
 Alpha  occ. eigenvalues --   -0.64251  -0.61968  -0.61465  -0.61078  -0.60677
 Alpha  occ. eigenvalues --   -0.60133  -0.59423  -0.59400  -0.59091  -0.58897
 Alpha  occ. eigenvalues --   -0.58082  -0.57852  -0.57599  -0.57345  -0.57209
 Alpha  occ. eigenvalues --   -0.56575  -0.56340  -0.55832  -0.55777  -0.55534
 Alpha  occ. eigenvalues --   -0.55424  -0.55078  -0.54362  -0.54168  -0.54040
 Alpha  occ. eigenvalues --   -0.53900  -0.53420  -0.53128  -0.53061  -0.52772
 Alpha  occ. eigenvalues --   -0.52668  -0.52484  -0.52464  -0.52227  -0.52026
 Alpha  occ. eigenvalues --   -0.52013  -0.51880  -0.51669  -0.51621  -0.51340
 Alpha  occ. eigenvalues --   -0.51220  -0.51167  -0.50573  -0.50342  -0.50266
 Alpha  occ. eigenvalues --   -0.50111  -0.49938  -0.49886  -0.49732  -0.49589
 Alpha  occ. eigenvalues --   -0.49584  -0.49322  -0.49299  -0.49044  -0.48861
 Alpha  occ. eigenvalues --   -0.48785  -0.48767  -0.48505  -0.48445  -0.48335
 Alpha  occ. eigenvalues --   -0.47967  -0.47807  -0.47584  -0.47563  -0.47465
 Alpha  occ. eigenvalues --   -0.47064  -0.46935  -0.46719  -0.46531  -0.46457
 Alpha  occ. eigenvalues --   -0.46260  -0.46252  -0.46143  -0.45811  -0.45672
 Alpha  occ. eigenvalues --   -0.45557  -0.45432  -0.45239  -0.44947  -0.44871
 Alpha  occ. eigenvalues --   -0.44807  -0.44577  -0.44519  -0.44490  -0.44410
 Alpha  occ. eigenvalues --   -0.44052  -0.43986  -0.43619  -0.43466  -0.43360
 Alpha  occ. eigenvalues --   -0.43360  -0.43160  -0.43019  -0.42997  -0.42901
 Alpha  occ. eigenvalues --   -0.42775  -0.42688  -0.42485  -0.42243  -0.42020
 Alpha  occ. eigenvalues --   -0.41901  -0.41603  -0.41517  -0.41325  -0.41272
 Alpha  occ. eigenvalues --   -0.41099  -0.41068  -0.40672  -0.40600  -0.40392
 Alpha  occ. eigenvalues --   -0.40222  -0.40207  -0.39921  -0.39879  -0.39152
 Alpha  occ. eigenvalues --   -0.38397  -0.38352  -0.37688  -0.37663  -0.37259
 Alpha  occ. eigenvalues --   -0.37067  -0.36899  -0.36548  -0.36315  -0.36250
 Alpha  occ. eigenvalues --   -0.36088  -0.35767  -0.34279  -0.33648  -0.33620
 Alpha  occ. eigenvalues --   -0.33090  -0.32963  -0.32634  -0.31869  -0.31553
 Alpha  occ. eigenvalues --   -0.31317  -0.31125  -0.30773  -0.30614  -0.29817
 Alpha  occ. eigenvalues --   -0.29707  -0.29596  -0.29376  -0.24243  -0.23560
 Alpha  occ. eigenvalues --   -0.21649  -0.21509
 Alpha virt. eigenvalues --   -0.09098  -0.09096  -0.02447  -0.00378   0.00315
 Alpha virt. eigenvalues --    0.00911   0.02291   0.02412   0.02634   0.02733
 Alpha virt. eigenvalues --    0.04178   0.04498   0.05062   0.05123   0.05536

 Mulliken charges:
               1
     1  Mg  12.000042
     2  C    6.000438
     3  C    5.999616
     4  C    5.999850
     5  C    6.000490
     6  N    7.000185
     7  C    5.999407
     8  C    6.000112
     9  C    5.999843
    10  C    6.000648
    11  C    5.999944
    12  C    6.000074
    13  C    6.000040
    14  H    0.999945
    15  N    6.999676
    16  C    6.000926
    17  C    6.000402
    18  C    6.000334
    19  C    6.000745
    20  C    5.999882
    21  C    6.000304
    22  O    8.000565
    23  C    5.999808
    24  N    7.000156
    25  C    6.000586
    26  C    5.999692
    27  C    6.000209
    28  C    5.999436
    29  C    5.999965
    30  C    5.999981
    31  C    5.999972
    32  N    6.999999
    33  C    5.999069
    34  C    5.999498
    35  C    5.999798
    36  C    5.999296
    37  C    5.999978
    38  C    5.999713
    39  O    7.999138
    40  C    5.999789
    41  C    5.999932
    42  O    8.000013
    43  O    7.999849
    44  C    6.000254
    45  H    1.000183
    46  H    1.000329
    47  H    0.999875
    48  H    0.999791
    49  H    1.000042
    50  H    1.000016
    51  H    1.000104
    52  H    1.000002
    53  H    0.999853
    54  H    1.000192
    55  H    0.999814
    56  H    0.999877
    57  H    1.000503
    58  H    1.000370
    59  H    1.000435
    60  H    1.000236
    61  H    1.000129
    62  H    1.000432
    63  H    1.000195
    64  H    0.999953
    65  H    0.999859
    66  H    1.000255
    67  H    1.000199
    68  H    1.000185
    69  H    0.999975
    70  H    1.000073
    71  H    0.999915
    72  H    1.000081
    73  H    0.999784
    74  H    0.999439
    75  H    0.999555
    76  H    0.999597
    77  H    0.999937
    78  H    0.999938
    79  H    0.999273
    80  Mg  12.001296
    81  C    6.017887
    82  C    5.979310
    83  C    5.975384
    84  C    6.023913
    85  N    7.004592
    86  C    5.966002
    87  C    6.014191
    88  C    5.990975
    89  C    6.029862
    90  C    5.996884
    91  C    6.001064
    92  C    6.001154
    93  H    0.991906
    94  N    6.985779
    95  C    6.050776
    96  C    6.020566
    97  C    6.012684
    98  C    6.044777
    99  C    5.987874
   100  C    6.006772
   101  O    8.018357
   102  C    5.998808
   103  N    7.007563
   104  C    6.034744
   105  C    5.992093
   106  C    6.007715
   107  C    5.961009
   108  C    5.998813
   109  C    6.008238
   110  C    6.000828
   111  N    7.005886
   112  C    5.951321
   113  C    5.976017
   114  C    5.994861
   115  C    5.963761
   116  C    6.001997
   117  C    5.982602
   118  O    7.967150
   119  C    6.002678
   120  C    5.995049
   121  O    7.991934
   122  O    8.000449
   123  C    6.003751
   124  H    1.009840
   125  H    1.011066
   126  H    0.991081
   127  H    0.995947
   128  H    1.000964
   129  H    1.012395
   130  H    0.997253
   131  H    0.999932
   132  H    0.991889
   133  H    1.007412
   134  H    1.004234
   135  H    0.999338
   136  H    1.020786
   137  H    1.023234
   138  H    1.021256
   139  H    1.005882
   140  H    1.010696
   141  H    1.012479
   142  H    0.999663
   143  H    1.002216
   144  H    0.997463
   145  H    1.013016
   146  H    1.002109
   147  H    0.994338
   148  H    0.985154
   149  H    0.994534
   150  H    1.006211
   151  H    0.996201
   152  H    0.980366
   153  H    0.985620
   154  H    0.980949
   155  H    0.990546
   156  H    0.997044
   157  H    0.993636
   158  H    0.995979
 Sum of Mulliken charges = 624.00000

 Dipole moment (field-independent basis, Debye):
    X=             -4.4685    Y=              9.8496    Z=              0.0809  Tot=             10.8162
 Quadrupole moment (field-independent basis, Debye-Ang):
   XX=           -106.1291   YY=              7.3680   ZZ=             -2.4925
   XY=            130.0421   XZ=              0.8818   YZ=             -0.7577

 Normal termination of Gaussian 16 at Wed Sep 22 14:39:42 2021.
