 Gaussian 16, Revision A.03,
 Gaussian 16:  ES64L-G16RevA.03 25-Dec-2016

 -----------------------------------
 #p cam-b3lyp/Def2SVP td=(nstates=5)
 -----------------------------------

 --------------------------------
 TDDFT excited states in gaussian
 --------------------------------
 Symbolic Z-matrix:
 Charge =  0 Multiplicity = 1

                         Standard orientation:
 ---------------------------------------------------------------------
 Center     Atomic      Atomic             Coordinates (Angstroms)
 Number     Number       Type             X           Y           Z
 ---------------------------------------------------------------------
      1         12           0       30.788415    0.416477   -0.672272
      2          6           0       28.105093   -1.717794    0.556392
      3          6           0       28.997697    3.096138    0.511925
      4          6           0       33.657296    2.111640   -0.392346
      5          6           0       32.353513   -2.336470   -1.904381
      6          7           0       28.840595    0.608947    0.598932
      7          6           0       27.872263   -0.412207    0.911192
      8          6           0       26.600749    0.243538    1.457112
      9          6           0       26.752958    1.749195    1.090134
     10          6           0       28.285607    1.892017    0.684569
     11          6           0       25.809736    2.214201   -0.118084
     12          6           0       26.214925   -0.077454    2.871491
     13          6           0       27.301921   -0.687883    3.787409
     14          1           0       27.162106   -1.031905    5.281583
     15          7           0       31.252304    2.415151   -0.151222
     16          6           0       30.363793    3.350672    0.330993
     17          6           0       31.090975    4.650386    0.474751
     18          6           0       32.430944    4.303764    0.321437
     19          6           0       32.543507    2.892099   -0.037879
     20          6           0       30.365961    5.895462    0.845296
     21          6           0       33.622392    5.284935    0.522508
     22          8           0       33.372626    6.408288    0.922231
     23          6           0       35.061772    4.906918    0.405397
     24          7           0       32.737020   -0.162437   -0.960053
     25          6           0       33.729287    0.815783   -0.906281
     26          6           0       35.063296    0.271751   -1.417492
     27          6           0       34.631152   -1.030952   -2.183315
     28          6           0       33.182605   -1.171314   -1.710090
     29          6           0       35.949491    1.191498   -2.296362
     30          6           0       35.505979   -2.300392   -1.929806
     31          6           0       36.462414   -2.740938   -3.130419
     32          7           0       30.329635   -1.624648   -0.772854
     33          6           0       31.059041   -2.625534   -1.397965
     34          6           0       30.272179   -3.833938   -1.425750
     35          6           0       29.181666   -3.504859   -0.609259
     36          6           0       29.272511   -2.132919   -0.267492
     37          6           0       30.747005   -5.147854   -2.070098
     38          6           0       27.950778   -3.978407   -0.054393
     39          8           0       27.476510   -5.119228   -0.227625
     40          6           0       27.092877   -2.818865    0.621345
     41          6           0       26.752626   -3.346857    1.957603
     42          8           0       27.530031   -3.861163    2.768551
     43          8           0       25.449058   -3.042609    2.171186
     44          6           0       24.818144   -3.644530    3.387461
     45          1           0       28.434961    3.945092    0.904497
     46          1           0       34.584476    2.682872   -0.308634
     47          1           0       32.827518   -3.174558   -2.418816
     48          1           0       25.899284   -0.220770    0.763912
     49          1           0       26.679417    2.407830    1.955701
     50          1           0       25.109660    2.895653    0.363629
     51          1           0       25.349851    1.338464   -0.576633
     52          1           0       26.458941    2.766525   -0.798405
     53          1           0       25.314036   -0.687242    2.805703
     54          1           0       25.909584    0.907671    3.225779
     55          1           0       28.147023   -0.003917    3.703202
     56          1           0       27.607970   -1.657080    3.393086
     57          1           0       30.692815    6.140441    1.855445
     58          1           0       29.296535    5.693441    0.793275
     59          1           0       30.580218    6.670709    0.108806
     60          1           0       35.466489    4.192344    1.121108
     61          1           0       35.732760    5.744325    0.594512
     62          1           0       35.103452    4.615942   -0.644127
     63          1           0       35.516468    0.094729   -0.441408
     64          1           0       34.618203   -0.736460   -3.232934
     65          1           0       36.767623    1.660262   -1.748593
     66          1           0       35.352095    2.021917   -2.671209
     67          1           0       36.291532    0.599069   -3.145673
     68          1           0       34.938343   -3.185523   -1.641337
     69          1           0       36.077022   -2.048533   -1.036087
     70          1           0       37.388957   -2.970113   -2.604617
     71          1           0       36.629284   -1.977428   -3.890376
     72          1           0       35.958301   -3.555965   -3.648525
     73          1           0       29.954813   -5.793046   -2.450556
     74          1           0       31.215696   -5.633466   -1.214858
     75          1           0       31.321692   -4.938476   -2.972050
     76          1           0       26.217731   -2.613355    0.003163
     77          1           0       23.778701   -3.320610    3.450191
     78          1           0       25.320857   -3.314793    4.296865
     79          1           0       24.923378   -4.710424    3.190179
     80         12           0      -31.155545    0.003331   -0.402024
     81          6           0      -27.704244    0.624653   -0.092314
     82          6           0      -30.446139   -3.292200    0.452395
     83          6           0      -34.423155   -0.615715   -0.225750
     84          6           0      -31.668170    3.434469   -0.313139
     85          7           0      -29.253622   -1.110365    0.277475
     86          6           0      -27.929290   -0.722580    0.216981
     87          6           0      -26.919764   -1.850564    0.256266
     88          6           0      -27.803602   -3.111573    0.407658
     89          6           0      -29.249981   -2.516898    0.398975
     90          6           0      -27.582678   -4.202440   -0.717402
     91          6           0      -25.822273   -1.783561    1.410028
     92          6           0      -26.218349   -1.131445    2.744746
     93          1           0      -26.508305   -2.058089    3.962462
     94          7           0      -32.248266   -1.683214    0.032977
     95          6           0      -31.785967   -2.941203    0.296551
     96          6           0      -32.913912   -3.877413    0.402513
     97          6           0      -34.099931   -3.106925    0.201469
     98          6           0      -33.600283   -1.712509   -0.002290
     99          6           0      -32.750140   -5.371248    0.656296
    100          6           0      -35.502604   -3.805193    0.353291
    101          8           0      -35.523129   -4.984917    0.675597
    102          6           0      -36.837045   -2.964489    0.181450
    103          7           0      -32.764468    1.221612   -0.162146
    104          6           0      -34.068862    0.746397   -0.276907
    105          6           0      -35.129795    1.984867   -0.332070
    106          6           0      -34.115117    3.244996   -0.195223
    107          6           0      -32.776195    2.581417   -0.233764
    108          6           0      -35.977370    1.991411   -1.638259
    109          6           0      -34.296099    4.122715    1.116683
    110          6           0      -34.451144    5.645140    0.978161
    111          7           0      -29.953746    1.739147   -0.360492
    112          6           0      -30.267173    3.073457   -0.315435
    113          6           0      -29.010677    3.848254   -0.238901
    114          6           0      -27.973039    2.878329   -0.270144
    115          6           0      -28.631252    1.617063   -0.294776
    116          6           0      -28.854820    5.339753   -0.129496
    117          6           0      -26.507079    2.741093   -0.180891
    118          8           0      -25.580909    3.564830   -0.203861
    119          6           0      -26.291620    1.237365   -0.265633
    120          6           0      -25.591666    0.842509   -1.441370
    121          8           0      -26.163151    0.750148   -2.558589
    122          8           0      -24.241175    0.550456   -1.165272
    123          6           0      -23.426691   -0.024637   -2.230944
    124          1           0      -30.272771   -4.366024    0.545407
    125          1           0      -35.493327   -0.803030   -0.331856
    126          1           0      -31.912641    4.497713   -0.349323
    127          1           0      -26.439888   -1.770290   -0.718384
    128          1           0      -27.659454   -3.445760    1.434466
    129          1           0      -27.105199   -5.080283   -0.282166
    130          1           0      -26.941304   -3.734622   -1.464801
    131          1           0      -28.529387   -4.520275   -1.155498
    132          1           0      -25.070640   -1.143825    0.945812
    133          1           0      -25.399980   -2.777792    1.557669
    134          1           0      -27.091438   -0.491097    2.614840
    135          1           0      -25.433514   -0.429244    3.022788
    136          1           0      -32.970267   -5.688413    1.675659
    137          1           0      -31.812071   -5.739012    0.240323
    138          1           0      -33.425676   -5.946256    0.023200
    139          1           0      -36.727000   -2.384131   -0.734930
    140          1           0      -36.930445   -2.321787    1.056438
    141          1           0      -37.748511   -3.552255    0.290364
    142          1           0      -35.849713    1.794041    0.463239
    143          1           0      -34.225820    3.839247   -1.102541
    144          1           0      -35.479770    2.654531   -2.345600
    145          1           0      -37.024084    2.239888   -1.462522
    146          1           0      -36.086258    1.011897   -2.103580
    147          1           0      -33.461205    3.874339    1.772726
    148          1           0      -35.228521    3.721346    1.513643
    149          1           0      -34.220908    6.166682    1.907592
    150          1           0      -35.505282    5.745893    0.720801
    151          1           0      -33.755540    5.910971    0.181913
    152          1           0      -29.780655    5.666807    0.342985
    153          1           0      -28.871454    5.649990   -1.174265
    154          1           0      -27.922730    5.679361    0.323099
    155          1           0      -25.701928    1.056029    0.632696
    156          1           0      -23.238209    0.594654   -3.107941
    157          1           0      -23.871411   -0.958577   -2.575825
    158          1           0      -22.518147   -0.394465   -1.755397
 ---------------------------------------------------------------------

 SCF Done:  E(RCAM-B3LYP) =  -4069.76723477     A.U. after   19 cycles

 Excitation energies and oscillator strengths:

 Excited State   1:      Singlet-A      1.6562 eV  748.62 nm  f=0.3572  <S**2>=0.000
     309 -> 316       -0.15661
     312 -> 313        0.69071
     309 <- 316       -0.10158
 This state for optimization and/or second-order correction.
 Total Energy, E(TD-HF/TD-DFT) =  -4069.70637204
 Copying the excited state density for this state as the 1-particle RhoCI density.

 Excited State   2:      Singlet-A      1.7180 eV  721.69 nm  f=0.3764  <S**2>=0.000
     310 -> 315        0.18149
     311 -> 314        0.68506
     310 <- 315        0.10791

 Excited State   3:      Singlet-A      2.2760 eV  544.76 nm  f=0.0764  <S**2>=0.000
     309 -> 313        0.61914
     312 -> 316        0.32532

 Excited State   4:      Singlet-A      2.3104 eV  536.64 nm  f=0.0713  <S**2>=0.000
     310 -> 314        0.61633
     311 -> 315       -0.33582

 Excited State   5:      Singlet-A      3.1799 eV  389.90 nm  f=0.0000  <S**2>=0.000
     311 -> 313        0.70711

 The electronic state is 1-A.
 Alpha  occ. eigenvalues --  -46.89307 -46.88933 -19.25799 -19.25364 -19.20243
 Alpha  occ. eigenvalues --  -19.19621 -19.19425 -19.19199 -19.19079 -19.17077
 Alpha  occ. eigenvalues --  -14.42644 -14.42472 -14.42089 -14.41548 -14.39965
 Alpha  occ. eigenvalues --  -14.39729 -14.39321 -14.38744 -10.40030 -10.39137
 Alpha  occ. eigenvalues --  -10.36500 -10.35505 -10.35357 -10.33536 -10.32130
 Alpha  occ. eigenvalues --  -10.32123 -10.31937 -10.31886 -10.31656 -10.31355
 Alpha  occ. eigenvalues --  -10.31007 -10.30942 -10.30877 -10.30814 -10.30644
 Alpha  occ. eigenvalues --  -10.30592 -10.30503 -10.30095 -10.29846 -10.29306
 Alpha  occ. eigenvalues --  -10.29010 -10.29007 -10.28838 -10.28718 -10.28519
 Alpha  occ. eigenvalues --  -10.28480 -10.28471 -10.28395 -10.28376 -10.28313
 Alpha  occ. eigenvalues --  -10.28312 -10.28311 -10.28038 -10.27880 -10.27861
 Alpha  occ. eigenvalues --  -10.27768 -10.27748 -10.27676 -10.27638 -10.27611
 Alpha  occ. eigenvalues --  -10.27559 -10.27475 -10.27397 -10.27301 -10.27239
 Alpha  occ. eigenvalues --  -10.27169 -10.27160 -10.27145 -10.27124 -10.26924
 Alpha  occ. eigenvalues --  -10.26894 -10.26802 -10.26789 -10.26738 -10.26665
 Alpha  occ. eigenvalues --  -10.26590 -10.26576 -10.26394 -10.26261 -10.26061
 Alpha  occ. eigenvalues --  -10.26035 -10.25944 -10.25866 -10.25463 -10.25180
 Alpha  occ. eigenvalues --  -10.23979  -3.17795  -3.17559  -1.92668  -1.92417
 Alpha  occ. eigenvalues --   -1.92272  -1.92077  -1.92030  -1.91864  -1.16084
 Alpha  occ. eigenvalues --   -1.14979  -1.10688  -1.10421  -1.09063  -1.07483
 Alpha  occ. eigenvalues --   -1.07029  -1.06680  -1.04840  -1.04153  -1.04024
 Alpha  occ. eigenvalues --   -1.03554  -1.02824  -1.02619  -1.01886  -1.00353
 Alpha  occ. eigenvalues --   -0.93140  -0.91938  -0.89348  -0.89171  -0.88975
 Alpha  occ. eigenvalues --   -0.88854  -0.88609  -0.88055  -0.86824  -0.86813
 Alpha  occ. eigenvalues --   -0.86651  -0.86087  -0.86086  -0.85567  -0.84530
 Alpha  occ. eigenvalues --   -0.84377  -0.83920  -0.83701  -0.82807  -0.82733
 Alpha  occ. eigenvalues --   -0.82353  -0.81668  -0.81015  -0.80968  -0.80169
 Alpha  occ. eigenvalues --   -0.80089  -0.78175  -0.78024  -0.77758  -0.77224
 Alpha  occ. eigenvalues --   -0.76777  -0.76527  -0.76492  -0.76001  -0.75250
 Alpha  occ. eigenvalues --   -0.74910  -0.73033  -0.72339  -0.71756  -0.71683
 Alpha  occ. eigenvalues --   -0.69639  -0.69300  -0.69014  -0.68917  -0.68440
 Alpha  occ. eigenvalues --   -0.67609  -0.66912  -0.66817  -0.66188  -0.65786
 Alpha  occ. eigenvalues --   -0.65369  -0.65194  -0.64666  -0.64585  -0.64207
 Alpha  occ. eigenvalues --   -0.63542  -0.62448  -0.62121  -0.60239  -0.59630
 Alpha  occ. eigenvalues --   -0.59627  -0.59119  -0.59071  -0.59047  -0.58659
 Alpha  occ. eigenvalues --   -0.58026  -0.57746  -0.57500  -0.57199  -0.57190
 Alpha  occ. eigenvalues --   -0.56773  -0.56283  -0.56149  -0.55610  -0.55177
 Alpha  occ. eigenvalues --   -0.54953  -0.54570  -0.54438  -0.54243  -0.54199
 Alpha  occ. eigenvalues --   -0.53771  -0.53669  -0.53458  -0.53091  -0.52859
 Alpha  occ. eigenvalues --   -0.52622  -0.52551  -0.52348  -0.52294  -0.52131
 Alpha  occ. eigenvalues --   -0.51836  -0.51569  -0.51381  -0.51208  -0.51192
 Alpha  occ. eigenvalues --   -0.51045  -0.50952  -0.50715  -0.50653  -0.50306
 Alpha  occ. eigenvalues --   -0.49985  -0.49975  -0.49664  -0.49534  -0.49364
 Alpha  occ. eigenvalues --   -0.49357  -0.49262  -0.48970  -0.48945  -0.48780
 Alpha  occ. eigenvalues --   -0.48578  -0.48352  -0.48350  -0.48142  -0.48115
 Alpha  occ. eigenvalues --   -0.47756  -0.47605  -0.47371  -0.47206  -0.47153
 Alpha  occ. eigenvalues --   -0.46909  -0.46793  -0.46617  -0.46547  -0.46453
 Alpha  occ. eigenvalues --   -0.46244  -0.46238  -0.46165  -0.45774  -0.45714
 Alpha  occ. eigenvalues --   -0.45461  -0.45386  -0.45188  -0.44972  -0.44955
 Alpha  occ. eigenvalues --   -0.44794  -0.44616  -0.44560  -0.44444  -0.44185
 Alpha  occ. eigenvalues --   -0.43990  -0.43944  -0.43928  -0.43479  -0.43417
 Alpha  occ. eigenvalues --   -0.43232  -0.43036  -0.42932  -0.42824  -0.42733
 Alpha  occ. eigenvalues --   -0.42679  -0.42558  -0.42396  -0.42280  -0.42264
 Alpha  occ. eigenvalues --   -0.42122  -0.42100  -0.41926  -0.41747  -0.41566
 Alpha  occ. eigenvalues --   -0.41074  -0.41066  -0.40765  -0.40609  -0.40277
 Alpha  occ. eigenvalues --   -0.39920  -0.39860  -0.39700  -0.39351  -0.39084
 Alpha  occ. eigenvalues --   -0.38907  -0.38505  -0.37647  -0.37514  -0.37407
 Alpha  occ. eigenvalues --   -0.37097  -0.37081  -0.37014  -0.36629  -0.36583
 Alpha  occ. eigenvalues --   -0.36344  -0.35838  -0.34758  -0.34411  -0.34379
 Alpha  occ. eigenvalues --   -0.33826  -0.33199  -0.32693  -0.31527  -0.31414
 Alpha  occ. eigenvalues --   -0.31203  -0.31173  -0.30980  -0.30264  -0.30106
 Alpha  occ. eigenvalues --   -0.29603  -0.29433  -0.29234  -0.24455  -0.24142
 Alpha  occ. eigenvalues --   -0.20830  -0.20755
 Alpha virt. eigenvalues --   -0.08586  -0.08185  -0.01806  -0.01794   0.00277
 Alpha virt. eigenvalues --    0.00923   0.01468   0.01650   0.02053   0.02497
 Alpha virt. eigenvalues --    0.03437   0.04884   0.05034   0.05221   0.05407

 Mulliken charges:
               1
     1  Mg   0.820289
     2  C   -0.030358
     3  C   -0.063568
     4  C   -0.071120
     5  C   -0.075648
     6  N   -0.309249
     7  C   -0.098378
     8  C    0.032402
     9  C   -0.088976
    10  C    0.018003
    11  C    0.083157
    12  C    0.077570
    13  C   -0.046997
    14  H    0.019773
    15  N   -0.391652
    16  C    0.125445
    17  C   -0.145328
    18  C   -0.034509
    19  C    0.142953
    20  C    0.154397
    21  C   -0.013490
    22  O   -0.198115
    23  C    0.066665
    24  N   -0.314483
    25  C    0.069845
    26  C   -0.078983
    27  C    0.038555
    28  C   -0.001187
    29  C    0.080944
    30  C    0.022884
    31  C   -0.006872
    32  N   -0.284804
    33  C    0.084278
    34  C   -0.172571
    35  C    0.043283
    36  C    0.082315
    37  C    0.114721
    38  C    0.003074
    39  O   -0.216411
    40  C    0.045268
    41  C    0.197716
    42  O   -0.231864
    43  O   -0.339252
    44  C    0.180677
    45  H   -0.019393
    46  H   -0.063784
    47  H   -0.033488
    48  H    0.001487
    49  H    0.014764
    50  H    0.026239
    51  H    0.029003
    52  H    0.019948
    53  H    0.006712
    54  H   -0.008003
    55  H    0.024303
    56  H    0.048669
    57  H    0.049569
    58  H   -0.000639
    59  H    0.036250
    60  H    0.054900
    61  H    0.021113
    62  H    0.037898
    63  H    0.025849
    64  H    0.005563
    65  H    0.018956
    66  H    0.015436
    67  H    0.020815
    68  H    0.021151
    69  H   -0.000057
    70  H    0.029353
    71  H    0.015086
    72  H    0.025944
    73  H    0.027717
    74  H    0.049106
    75  H    0.018930
    76  H    0.043777
    77  H    0.041298
    78  H    0.050537
    79  H    0.054592
    80  Mg   0.851582
    81  C   -0.100120
    82  C   -0.078304
    83  C   -0.099242
    84  C   -0.088957
    85  N   -0.279369
    86  C   -0.081221
    87  C   -0.019317
    88  C   -0.002823
    89  C   -0.000106
    90  C    0.073894
    91  C    0.027084
    92  C   -0.064895
    93  H    0.020891
    94  N   -0.362099
    95  C    0.140192
    96  C   -0.140667
    97  C   -0.078374
    98  C    0.187255
    99  C    0.142631
   100  C    0.026520
   101  O   -0.197129
   102  C    0.035350
   103  N   -0.347400
   104  C    0.055857
   105  C   -0.054214
   106  C   -0.028379
   107  C    0.061091
   108  C    0.055233
   109  C    0.021396
   110  C    0.018569
   111  N   -0.317877
   112  C    0.107213
   113  C   -0.195294
   114  C   -0.057897
   115  C    0.233627
   116  C    0.136018
   117  C    0.071836
   118  O   -0.182089
   119  C    0.008137
   120  C    0.252096
   121  O   -0.249968
   122  O   -0.351333
   123  C    0.193049
   124  H   -0.033190
   125  H   -0.057980
   126  H   -0.041244
   127  H    0.023636
   128  H    0.018852
   129  H    0.021283
   130  H    0.018759
   131  H    0.026160
   132  H    0.015707
   133  H    0.022984
   134  H    0.041899
   135  H    0.033120
   136  H    0.040411
   137  H    0.001803
   138  H    0.020846
   139  H    0.054660
   140  H    0.038698
   141  H    0.026077
   142  H    0.018361
   143  H    0.011701
   144  H    0.016644
   145  H    0.016004
   146  H    0.011107
   147  H    0.024244
   148  H    0.000205
   149  H    0.028355
   150  H    0.019644
   151  H    0.018973
   152  H    0.013662
   153  H    0.031443
   154  H    0.042854
   155  H    0.030563
   156  H    0.050919
   157  H    0.016631
   158  H    0.033762
 Sum of Mulliken charges =  -0.00000

 Dipole moment (field-independent basis, Debye):
    X=             -0.7420    Y=              2.2468    Z=             -3.6340  Tot=              4.3364
 Quadrupole moment (field-independent basis, Debye-Ang):
   XX=           -231.4867   YY=           -564.5839   ZZ=           -513.7204
   XY=             46.4976   XZ=            -83.5421   YZ=              7.0520

 Normal termination of Gaussian 16 at Tue Aug 31 19:29:53 2021.
