 Gaussian 16, Revision A.03,
 Gaussian 16:  ES64L-G16RevA.03 25-Dec-2016

 ---------------------------------------------------
 #p cam-b3lyp/Def2SVP td=(nstates=5) density=(CIS=1)
 ---------------------------------------------------

 --------------------------------
 TDDFT excited states in gaussian
 --------------------------------
 Symbolic Z-matrix:
 Charge =  0 Multiplicity = 1

                         Standard orientation:
 ---------------------------------------------------------------------
 Center     Atomic      Atomic             Coordinates (Angstroms)
 Number     Number       Type             X           Y           Z
 ---------------------------------------------------------------------
      1         12           0       -0.721465    0.083827    0.271087
      2          6           0        2.776786    0.265344    0.189044
      3          6           0       -0.444416   -3.420093   -0.155274
      4          6           0       -4.101628   -0.087705   -0.001969
      5          6           0       -0.839268    3.518800   -0.057708
      6          7           0        0.965991   -1.351960    0.217015
      7          6           0        2.311061   -1.010956    0.385829
      8          6           0        3.126041   -2.301278    0.759386
      9          6           0        2.097614   -3.417995    0.545808
     10          6           0        0.774056   -2.689968    0.123170
     11          6           0        2.588404   -4.403900   -0.548428
     12          6           0        3.666673   -2.142131    2.175150
     13          6           0        4.949496   -2.872852    2.536539
     14          1           0        5.460237   -3.971892    1.577557
     15          7           0       -2.122708   -1.498682   -0.021537
     16          6           0       -1.803942   -2.857762   -0.204180
     17          6           0       -3.008227   -3.640320   -0.420282
     18          6           0       -4.136315   -2.734302   -0.319397
     19          6           0       -3.471896   -1.374552   -0.125376
     20          6           0       -3.038745   -5.170751   -0.520739
     21          6           0       -5.628890   -2.995230   -0.385549
     22          8           0       -6.423369   -2.073438   -0.255915
     23          6           0       -6.104151   -4.397304   -0.394217
     24          7           0       -2.248696    1.558569    0.073989
     25          6           0       -3.570113    1.228018    0.074507
     26          6           0       -4.431391    2.515057    0.162590
     27          6           0       -3.385897    3.695949    0.211477
     28          6           0       -2.048256    2.912091    0.184385
     29          6           0       -5.403095    2.591750   -1.028639
     30          6           0       -3.453816    4.576945    1.487152
     31          6           0       -4.180613    5.877666    1.159732
     32          7           0        0.627990    1.657240   -0.013494
     33          6           0        0.475543    2.990035   -0.204284
     34          6           0        1.806222    3.541272   -0.558114
     35          6           0        2.732270    2.568550   -0.318944
     36          6           0        1.948417    1.421889   -0.031989
     37          6           0        1.991754    5.010571   -0.897926
     38          6           0        4.158823    2.224650   -0.250950
     39          8           0        5.135894    2.924898   -0.487227
     40          6           0        4.200642    0.765958    0.161652
     41          6           0        5.093628    0.109321   -0.806092
     42          8           0        4.883634   -0.252063   -1.971871
     43          8           0        6.335257    0.000402   -0.214022
     44          6           0        7.395029   -0.560724   -1.023435
     45          1           0       -0.318353   -4.503463   -0.204493
     46          1           0       -5.182730   -0.241308    0.010189
     47          1           0       -0.964422    4.586777   -0.248407
     48          1           0        3.895199   -2.276202   -0.013487
     49          1           0        2.114012   -4.014231    1.458079
     50          1           0        2.019245   -4.379338   -1.477860
     51          1           0        2.308798   -5.398808   -0.203063
     52          1           0        3.634064   -4.242470   -0.809692
     53          1           0        2.824880   -2.413592    2.812895
     54          1           0        3.791959   -1.080618    2.385403
     55          1           0        4.844615   -3.281516    3.540665
     56          1           0        5.653556   -2.042073    2.595215
     57          1           0       -2.051693   -5.630326   -0.575346
     58          1           0       -3.588488   -5.472511   -1.413268
     59          1           0       -3.636800   -5.559816    0.302466
     60          1           0       -5.836663   -4.859619    0.556276
     61          1           0       -5.816089   -4.903724   -1.315414
     62          1           0       -7.192626   -4.455720   -0.391611
     63          1           0       -5.046791    2.436222    1.058494
     64          1           0       -3.515579    4.226824   -0.732539
     65          1           0       -5.336704    3.479881   -1.656395
     66          1           0       -6.342610    2.640868   -0.478601
     67          1           0       -5.294705    1.787389   -1.755666
     68          1           0       -2.465886    4.971386    1.725538
     69          1           0       -3.935389    4.087974    2.334180
     70          1           0       -4.892393    5.985581    1.978017
     71          1           0       -4.833350    5.819278    0.289078
     72          1           0       -3.547390    6.761917    1.082217
     73          1           0        1.072441    5.564781   -1.088946
     74          1           0        2.647412    5.163243   -1.754316
     75          1           0        2.351383    5.522145   -0.004448
     76          1           0        4.592346    0.721452    1.177346
     77          1           0        7.408051   -0.018817   -1.969439
     78          1           0        7.266969   -1.622788   -1.233680
     79          1           0        8.310925   -0.163636   -0.587081
 ---------------------------------------------------------------------

 SCF Done:  E(RCAM-B3LYP) =  -2034.90061015     A.U. after   19 cycles

 Excitation energies and oscillator strengths:

 Excited State   1:      Singlet-A      1.6782 eV  738.80 nm  f=0.0000  <S**2>=0.000
     155 ->158        -0.17309
     156 ->157         0.68710
     155 <-158        -0.10458
 This state for optimization and/or second-order correction.
 Total Energy, E(TD-HF/TD-DFT) =  -2034.83893771
 Copying the excited state density for this state as the 1-particle RhoCI density.

 Excited State   2:      Singlet-A      2.1968 eV  564.39 nm  f=0.0000  <S**2>=0.000
     155 ->157         0.64515
     156 ->158         0.27389

 Excited State   3:      Singlet-A      3.4265 eV  361.84 nm  f=0.0000  <S**2>=0.000
     153 ->157         0.25042
     154 ->157         0.55459
     156 ->158        -0.32535

 Excited State   4:      Singlet-A      3.5590 eV  348.36 nm  f=0.0000  <S**2>=0.000
     154 ->157         0.37853
     155 ->157        -0.24212
     156 ->158         0.53075

 Excited State   5:      Singlet-A      3.6615 eV  338.62 nm  f=0.0000  <S**2>=0.000
     150 ->157         0.55413
     150 ->158        -0.18372
     150 ->159        -0.24808
     150 ->160        -0.22729
     150 ->161         0.12295

 The electronic state is 1-A.
 Alpha  occ. eigenvalues --  -46.89113 -19.24451 -19.19789 -19.19293 -19.19202
 Alpha  occ. eigenvalues --  -14.42185 -14.41736 -14.40115 -14.39198 -10.39357
 Alpha  occ. eigenvalues --  -10.35476 -10.35399 -10.31988 -10.31201 -10.31152
 Alpha  occ. eigenvalues --  -10.30987 -10.30965 -10.30645 -10.30080 -10.29534
 Alpha  occ. eigenvalues --  -10.29342 -10.29052 -10.28589 -10.28400 -10.28166
 Alpha  occ. eigenvalues --  -10.28042 -10.27772 -10.27765 -10.27665 -10.27610
 Alpha  occ. eigenvalues --  -10.27592 -10.27559 -10.27394 -10.26790 -10.26523
 Alpha  occ. eigenvalues --  -10.26490 -10.26287 -10.26223 -10.25523 -10.25503
 Alpha  occ. eigenvalues --  -10.25257 -10.25003 -10.24770  -3.17511  -1.92424
 Alpha  occ. eigenvalues --   -1.91925  -1.91843  -1.15789  -1.10454  -1.10006
 Alpha  occ. eigenvalues --   -1.06860  -1.04317  -1.02784  -1.02634  -1.01623
 Alpha  occ. eigenvalues --   -0.93365  -0.89264  -0.88777  -0.87961  -0.87104
 Alpha  occ. eigenvalues --   -0.86850  -0.85593  -0.84305  -0.83878  -0.82723
 Alpha  occ. eigenvalues --   -0.82379  -0.80891  -0.80017  -0.78093  -0.77256
 Alpha  occ. eigenvalues --   -0.76810  -0.75953  -0.74532  -0.72531  -0.71003
 Alpha  occ. eigenvalues --   -0.69057  -0.68485  -0.67920  -0.67067  -0.65421
 Alpha  occ. eigenvalues --   -0.64913  -0.64629  -0.63892  -0.62123  -0.60119
 Alpha  occ. eigenvalues --   -0.59642  -0.59089  -0.58790  -0.58347  -0.57634
 Alpha  occ. eigenvalues --   -0.55883  -0.55762  -0.55084  -0.54770  -0.53628
 Alpha  occ. eigenvalues --   -0.53595  -0.53411  -0.53313  -0.52905  -0.52813
 Alpha  occ. eigenvalues --   -0.51884  -0.51717  -0.51371  -0.50767  -0.50328
 Alpha  occ. eigenvalues --   -0.49823  -0.49614  -0.49301  -0.49246  -0.49020
 Alpha  occ. eigenvalues --   -0.48641  -0.48160  -0.47856  -0.47394  -0.47127
 Alpha  occ. eigenvalues --   -0.46728  -0.46393  -0.46028  -0.45882  -0.45229
 Alpha  occ. eigenvalues --   -0.44985  -0.44730  -0.44446  -0.44386  -0.44215
 Alpha  occ. eigenvalues --   -0.43589  -0.43395  -0.43172  -0.43033  -0.42799
 Alpha  occ. eigenvalues --   -0.42615  -0.42358  -0.41874  -0.41525  -0.41239
 Alpha  occ. eigenvalues --   -0.41066  -0.40431  -0.39971  -0.38924  -0.38461
 Alpha  occ. eigenvalues --   -0.38019  -0.37956  -0.37753  -0.36444  -0.36305
 Alpha  occ. eigenvalues --   -0.35842  -0.34360  -0.34083  -0.32614  -0.31572
 Alpha  occ. eigenvalues --   -0.31454  -0.31271  -0.30272  -0.29980  -0.23800
 Alpha  occ. eigenvalues --   -0.20933
 Alpha virt. eigenvalues --   -0.08665  -0.01460   0.00188   0.01827   0.02512
 Alpha virt. eigenvalues --    0.05140   0.05208   0.05874   0.06833   0.07799
 Alpha virt. eigenvalues --    0.08787   0.09099   0.09291   0.09656   0.10223

 Mulliken charges:
               1
     1  Mg   0.808638
     2  C   -0.039586
     3  C   -0.103108
     4  C   -0.107859
     5  C   -0.089001
     6  N   -0.360972
     7  C   -0.062415
     8  C    0.024391
     9  C   -0.070809
    10  C    0.126569
    11  C    0.049207
    12  C    0.045444
    13  C   -0.030227
    14  H    0.030276
    15  N   -0.368588
    16  C    0.145854
    17  C   -0.191418
    18  C   -0.068377
    19  C    0.099795
    20  C    0.127677
    21  C    0.000013
    22  O   -0.210144
    23  C    0.049058
    24  N   -0.354857
    25  C    0.106168
    26  C   -0.057082
    27  C   -0.009008
    28  C    0.098167
    29  C    0.055986
    30  C    0.059386
    31  C   -0.010536
    32  N   -0.322072
    33  C    0.161688
    34  C   -0.177408
    35  C    0.026941
    36  C    0.168578
    37  C    0.108897
    38  C    0.029544
    39  O   -0.167240
    40  C    0.039416
    41  C    0.196543
    42  O   -0.232441
    43  O   -0.337787
    44  C    0.191722
    45  H   -0.028181
    46  H   -0.005539
    47  H   -0.030996
    48  H    0.013868
    49  H    0.016651
    50  H    0.011322
    51  H    0.007248
    52  H    0.029633
    53  H   -0.005065
    54  H    0.003340
    55  H    0.027381
    56  H    0.033798
    57  H    0.020925
    58  H    0.018105
    59  H    0.027388
    60  H    0.047135
    61  H    0.036815
    62  H    0.017525
    63  H    0.017726
    64  H    0.020417
    65  H    0.007321
    66  H    0.021100
    67  H    0.033377
    68  H    0.010785
    69  H    0.016402
    70  H    0.002448
    71  H    0.006603
    72  H    0.025369
    73  H   -0.003253
    74  H    0.038005
    75  H    0.028624
    76  H    0.052519
    77  H    0.027330
    78  H    0.040729
    79  H    0.034127
 Sum of Mulliken charges =  -0.00000

 Dipole moment (field-independent basis, Debye):
    X=              0.3643    Y=             -0.1078    Z=              3.4185  Tot=              3.4396
 Quadrupole moment (field-independent basis, Debye-Ang):
   XX=           -277.7531   YY=           -227.1738   ZZ=           -257.6722
   XY=            -23.1336   XZ=              6.5147   YZ=              0.7241

 Normal termination of Gaussian 16 at Fri Oct  8 19:32:52 2021.
