 Gaussian 16, Revision A.03,
 Gaussian 16:  ES64L-G16RevA.03 25-Dec-2016

 ----------------------------------------------------------
 #p cam-b3lyp/Def2SVP td=(nstates=5) density=(transition=1)
 ----------------------------------------------------------

 --------------------------------
 TDDFT excited states in gaussian
 --------------------------------
 Symbolic Z-matrix:
 Charge =  0 Multiplicity = 1

                         Standard orientation:
 ---------------------------------------------------------------------
 Center     Atomic      Atomic             Coordinates (Angstroms)
 Number     Number       Type             X           Y           Z
 ---------------------------------------------------------------------
      1         12           0      -22.002977   -0.726123   -0.083199
      2          6           0      -23.724297    2.047655    1.280311
      3          6           0      -19.898675    1.465258   -1.720709
      4          6           0      -20.560006   -3.388618   -1.603257
      5          6           0      -24.295531   -2.905363    1.428261
      6          7           0      -21.978970    1.483416   -0.222388
      7          6           0      -22.622993    2.421712    0.580655
      8          6           0      -22.081256    3.884605    0.308846
      9          6           0      -21.072416    3.640320   -0.844879
     10          6           0      -20.992227    2.105171   -1.000731
     11          6           0      -21.353402    4.325890   -2.234186
     12          6           0      -21.582427    4.703669    1.569007
     13          6           0      -22.309621    5.989252    1.823626
     14          1           0      -21.432913    7.187070    2.365017
     15          7           0      -20.485863   -0.875888   -1.441481
     16          6           0      -19.677488    0.113531   -1.963331
     17          6           0      -18.724600   -0.478640   -2.889093
     18          6           0      -18.872910   -1.894548   -2.890845
     19          6           0      -20.008610   -2.126485   -1.924354
     20          6           0      -17.613940    0.313166   -3.608222
     21          6           0      -18.078080   -2.965761   -3.630607
     22          8           0      -18.247907   -4.158196   -3.480176
     23          6           0      -16.864664   -2.662795   -4.602111
     24          7           0      -22.447559   -2.864011   -0.156074
     25          6           0      -21.710297   -3.726846   -0.842983
     26          6           0      -22.206912   -5.205016   -0.657241
     27          6           0      -23.293833   -5.056713    0.479789
     28          6           0      -23.351235   -3.506530    0.631197
     29          6           0      -22.647548   -5.845910   -2.005034
     30          6           0      -22.926755   -5.835729    1.727315
     31          6           0      -24.100387   -6.573170    2.369575
     32          7           0      -23.770133   -0.574726    1.009300
     33          6           0      -24.543119   -1.530041    1.640980
     34          6           0      -25.634503   -0.848871    2.266596
     35          6           0      -25.361146    0.540189    2.207320
     36          6           0      -24.192003    0.690021    1.410433
     37          6           0      -26.788104   -1.487755    2.942180
     38          6           0      -25.793853    1.866018    2.682335
     39          8           0      -26.793393    2.251596    3.281624
     40          6           0      -24.610943    2.940400    2.060978
     41          6           0      -25.243524    3.940744    1.259076
     42          8           0      -25.223434    3.968179    0.047625
     43          8           0      -25.764432    4.941939    2.047260
     44          6           0      -26.481555    5.975609    1.259883
     45          1           0      -19.136334    2.114295   -2.157079
     46          1           0      -20.165831   -4.276226   -2.101445
     47          1           0      -24.909011   -3.655697    1.932642
     48          1           0      -22.905117    4.379861   -0.203907
     49          1           0      -20.073926    3.970986   -0.558755
     50          1           0      -20.389896    4.672189   -2.609431
     51          1           0      -22.053848    5.145932   -2.077966
     52          1           0      -21.786912    3.663051   -2.983323
     53          1           0      -20.514694    4.861136    1.415900
     54          1           0      -21.753758    4.071381    2.440356
     55          1           0      -23.089200    5.828592    2.569463
     56          1           0      -22.758147    6.220657    0.857924
     57          1           0      -16.683864   -0.048423   -3.171126
     58          1           0      -17.667409    1.357476   -3.299638
     59          1           0      -17.556539    0.178193   -4.689024
     60          1           0      -16.123195   -2.091177   -4.042880
     61          1           0      -17.185694   -2.310753   -5.582919
     62          1           0      -16.527372   -3.646866   -4.926215
     63          1           0      -21.448569   -5.869437   -0.243527
     64          1           0      -24.235913   -5.372786    0.031378
     65          1           0      -23.640148   -6.276677   -1.870523
     66          1           0      -21.925144   -6.559762   -2.401630
     67          1           0      -22.723486   -5.073602   -2.768704
     68          1           0      -22.458522   -5.205567    2.482749
     69          1           0      -22.138557   -6.575236    1.577696
     70          1           0      -25.049846   -6.276410    1.923854
     71          1           0      -24.111497   -6.271549    3.417330
     72          1           0      -23.952882   -7.653044    2.391119
     73          1           0      -26.824090   -2.577085    2.950595
     74          1           0      -27.671841   -0.941716    2.609908
     75          1           0      -26.551892   -1.349306    3.997505
     76          1           0      -24.090029    3.412651    2.894369
     77          1           0      -27.305005    5.517451    0.711603
     78          1           0      -25.725163    6.461732    0.643776
     79          1           0      -26.948563    6.736515    1.883988
     80         12           0       22.268581   -0.657068    0.487913
     81          6           0       21.396333    2.288726   -1.393647
     82          6           0       22.817794    1.259886    3.167362
     83          6           0       23.876799   -3.268132    1.839478
     84          6           0       22.097292   -2.419427   -2.540124
     85          7           0       22.172073    1.493044    0.803368
     86          6           0       21.616699    2.491962   -0.014319
     87          6           0       21.416077    3.838622    0.779920
     88          6           0       21.943451    3.472002    2.200143
     89          6           0       22.286156    1.963330    2.078262
     90          6           0       23.103225    4.272561    2.735894
     91          6           0       19.889711    4.382355    0.718315
     92          6           0       19.731762    5.836168    0.256116
     93          1           0       19.002828    6.763042    1.298670
     94          7           0       23.099167   -1.002502    2.325492
     95          6           0       23.249112   -0.105003    3.304879
     96          6           0       23.923821   -0.684037    4.467886
     97          6           0       24.313030   -1.993254    4.019101
     98          6           0       23.777982   -2.146595    2.662158
     99          6           0       24.132283    0.041822    5.727211
    100          6           0       25.224986   -2.956611    4.841962
    101          8           0       25.482853   -4.085839    4.460007
    102          6           0       25.822966   -2.577418    6.159159
    103          7           0       22.865329   -2.504067   -0.239369
    104          6           0       23.419972   -3.482873    0.578245
    105          6           0       23.600190   -4.827483   -0.200041
    106          6           0       22.701904   -4.613850   -1.475099
    107          6           0       22.483286   -3.102552   -1.407664
    108          6           0       25.056554   -5.344458   -0.437009
    109          6           0       21.353274   -5.383662   -1.439568
    110          6           0       20.845899   -6.014628   -2.711642
    111          7           0       21.889967   -0.188935   -1.569361
    112          6           0       21.859240   -1.009559   -2.660964
    113          6           0       21.346253   -0.209062   -3.857156
    114          6           0       21.107129    1.061912   -3.393285
    115          6           0       21.518476    1.045991   -2.016402
    116          6           0       21.079339   -0.836582   -5.206385
    117          6           0       20.675476    2.410713   -3.714080
    118          8           0       20.284358    2.769860   -4.844364
    119          6           0       20.941492    3.346049   -2.389578
    120          6           0       22.018841    4.396639   -2.560237
    121          8           0       23.161518    4.082814   -2.948385
    122          8           0       21.527844    5.694890   -2.415740
    123          6           0       22.427872    6.692852   -2.981938
    124          1           0       22.913040    1.804162    4.109025
    125          1           0       24.354781   -4.087785    2.379374
    126          1           0       21.950260   -3.059911   -3.412793
    127          1           0       22.059564    4.528689    0.234535
    128          1           0       21.146723    3.785029    2.876332
    129          1           0       23.481035    5.009009    2.026538
    130          1           0       23.863207    3.492040    2.748838
    131          1           0       22.871532    4.802596    3.660226
    132          1           0       19.543140    4.234762    1.740778
    133          1           0       19.292235    3.691735    0.123789
    134          1           0       19.236605    5.801082   -0.714289
    135          1           0       20.720055    6.272389    0.105366
    136          1           0       25.136594    0.154652    6.134340
    137          1           0       23.736896   -0.626898    6.490944
    138          1           0       23.522392    0.935584    5.860645
    139          1           0       24.969743   -2.382245    6.809895
    140          1           0       26.332316   -1.625690    6.005337
    141          1           0       26.467904   -3.409441    6.439031
    142          1           0       23.112571   -5.560957    0.442143
    143          1           0       23.239443   -4.787857   -2.406935
    144          1           0       25.677417   -4.664169    0.145505
    145          1           0       25.341111   -5.417703   -1.486269
    146          1           0       25.243827   -6.291351    0.070884
    147          1           0       20.721738   -4.551015   -1.130389
    148          1           0       21.279372   -6.142119   -0.659953
    149          1           0       20.467763   -6.994500   -2.419922
    150          1           0       21.631043   -6.182907   -3.449458
    151          1           0       19.957755   -5.447226   -2.990865
    152          1           0       21.358999   -1.887292   -5.131771
    153          1           0       21.767318   -0.394344   -5.926602
    154          1           0       20.047893   -0.644541   -5.501230
    155          1           0       19.989729    3.778211   -2.080560
    156          1           0       22.065647    7.190776   -3.880293
    157          1           0       23.428475    6.318688   -3.198962
    158          1           0       22.554371    7.454733   -2.213189
 ---------------------------------------------------------------------

 SCF Done:  E(RCAM-B3LYP) =  -4069.79926099     A.U. after   18 cycles

 Excitation energies and oscillator strengths:

 Excited State   1:      Singlet-A      1.6980 eV  730.19 nm  f=0.4154  <S**2>=0.000
     309 -> 316       -0.17307
     312 -> 314        0.68838
     309 <- 316       -0.10784
 This state for optimization and/or second-order correction.
 Total Energy, E(TD-HF/TD-DFT) =  -4069.73686207
 Copying the excited state density for this state as the 1-particle RhoCI density.

 Excited State   2:      Singlet-A      1.7837 eV  695.09 nm  f=0.3741  <S**2>=0.000
     310 -> 315       -0.17650
     311 -> 313        0.68528
     310 <- 315       -0.10145

 Excited State   3:      Singlet-A      2.2587 eV  548.93 nm  f=0.1134  <S**2>=0.000
     310 -> 313        0.63967
     311 -> 315        0.28424

 Excited State   4:      Singlet-A      2.2865 eV  542.24 nm  f=0.0922  <S**2>=0.000
     309 -> 314        0.63010
     312 -> 316        0.31285

 Excited State   5:      Singlet-A      3.1305 eV  396.06 nm  f=0.0000  <S**2>=0.000
     312 -> 313        0.70710

 The electronic state is 1-A.
 Alpha  occ. eigenvalues --  -46.88410 -46.88234 -19.26728 -19.24333 -19.20882
 Alpha  occ. eigenvalues --  -19.19956 -19.19885 -19.19387 -19.19225 -19.18575
 Alpha  occ. eigenvalues --  -14.42595 -14.42272 -14.41764 -14.41678 -14.40342
 Alpha  occ. eigenvalues --  -14.39712 -14.39396 -14.38722 -10.40864 -10.38323
 Alpha  occ. eigenvalues --  -10.36534 -10.36402 -10.35996 -10.34954 -10.32520
 Alpha  occ. eigenvalues --  -10.31978 -10.31773 -10.31620 -10.31272 -10.31269
 Alpha  occ. eigenvalues --  -10.31129 -10.30989 -10.30677 -10.30363 -10.30188
 Alpha  occ. eigenvalues --  -10.30171 -10.30149 -10.29983 -10.29811 -10.29810
 Alpha  occ. eigenvalues --  -10.29531 -10.29164 -10.29034 -10.28892 -10.28866
 Alpha  occ. eigenvalues --  -10.28709 -10.28656 -10.28591 -10.28497 -10.28266
 Alpha  occ. eigenvalues --  -10.28076 -10.28027 -10.27996 -10.27809 -10.27784
 Alpha  occ. eigenvalues --  -10.27746 -10.27666 -10.27611 -10.27493 -10.27391
 Alpha  occ. eigenvalues --  -10.27366 -10.27321 -10.27250 -10.27126 -10.27106
 Alpha  occ. eigenvalues --  -10.26972 -10.26908 -10.26780 -10.26721 -10.26535
 Alpha  occ. eigenvalues --  -10.26498 -10.26336 -10.26250 -10.26173 -10.26171
 Alpha  occ. eigenvalues --  -10.25983 -10.25949 -10.25823 -10.25749 -10.25558
 Alpha  occ. eigenvalues --  -10.25526 -10.25458 -10.25292 -10.25246 -10.25146
 Alpha  occ. eigenvalues --  -10.24878  -3.17062  -3.16764  -1.91943  -1.91672
 Alpha  occ. eigenvalues --   -1.91501  -1.91390  -1.91214  -1.91071  -1.16372
 Alpha  occ. eigenvalues --   -1.15877  -1.11515  -1.10138  -1.09266  -1.09072
 Alpha  occ. eigenvalues --   -1.07988  -1.07434  -1.04089  -1.03948  -1.03326
 Alpha  occ. eigenvalues --   -1.02673  -1.02471  -1.01966  -1.01912  -1.00944
 Alpha  occ. eigenvalues --   -0.92663  -0.91853  -0.89145  -0.89141  -0.88775
 Alpha  occ. eigenvalues --   -0.88439  -0.88062  -0.88046  -0.87359  -0.87257
 Alpha  occ. eigenvalues --   -0.87224  -0.86897  -0.86151  -0.85612  -0.84383
 Alpha  occ. eigenvalues --   -0.84317  -0.83692  -0.83644  -0.82748  -0.82510
 Alpha  occ. eigenvalues --   -0.81963  -0.81235  -0.81042  -0.80723  -0.80261
 Alpha  occ. eigenvalues --   -0.80104  -0.78461  -0.78438  -0.77638  -0.76959
 Alpha  occ. eigenvalues --   -0.76945  -0.76458  -0.76254  -0.75768  -0.74735
 Alpha  occ. eigenvalues --   -0.74723  -0.72479  -0.72249  -0.71306  -0.71001
 Alpha  occ. eigenvalues --   -0.69060  -0.69031  -0.68853  -0.68434  -0.67944
 Alpha  occ. eigenvalues --   -0.67429  -0.67243  -0.66747  -0.65635  -0.65369
 Alpha  occ. eigenvalues --   -0.65022  -0.64926  -0.64806  -0.64592  -0.64384
 Alpha  occ. eigenvalues --   -0.64357  -0.62623  -0.61151  -0.60319  -0.60041
 Alpha  occ. eigenvalues --   -0.59803  -0.59173  -0.58949  -0.58803  -0.58554
 Alpha  occ. eigenvalues --   -0.58363  -0.58030  -0.57815  -0.57349  -0.57011
 Alpha  occ. eigenvalues --   -0.56287  -0.55951  -0.55771  -0.55459  -0.55147
 Alpha  occ. eigenvalues --   -0.54954  -0.54743  -0.54248  -0.53801  -0.53701
 Alpha  occ. eigenvalues --   -0.53546  -0.53248  -0.53214  -0.53164  -0.53044
 Alpha  occ. eigenvalues --   -0.52630  -0.52559  -0.52486  -0.52134  -0.51862
 Alpha  occ. eigenvalues --   -0.51702  -0.51648  -0.51517  -0.51416  -0.51304
 Alpha  occ. eigenvalues --   -0.51165  -0.51024  -0.50920  -0.50856  -0.50594
 Alpha  occ. eigenvalues --   -0.50278  -0.50150  -0.49639  -0.49582  -0.49521
 Alpha  occ. eigenvalues --   -0.49471  -0.49403  -0.49187  -0.48821  -0.48654
 Alpha  occ. eigenvalues --   -0.48653  -0.48550  -0.48351  -0.48175  -0.48072
 Alpha  occ. eigenvalues --   -0.48010  -0.47984  -0.47741  -0.47499  -0.47267
 Alpha  occ. eigenvalues --   -0.47053  -0.46787  -0.46785  -0.46514  -0.46428
 Alpha  occ. eigenvalues --   -0.46222  -0.46051  -0.46003  -0.45977  -0.45706
 Alpha  occ. eigenvalues --   -0.45533  -0.45399  -0.45148  -0.44852  -0.44684
 Alpha  occ. eigenvalues --   -0.44601  -0.44476  -0.44358  -0.44172  -0.44063
 Alpha  occ. eigenvalues --   -0.44000  -0.43937  -0.43845  -0.43644  -0.43573
 Alpha  occ. eigenvalues --   -0.43294  -0.43230  -0.43201  -0.43027  -0.42968
 Alpha  occ. eigenvalues --   -0.42880  -0.42699  -0.42414  -0.42301  -0.42001
 Alpha  occ. eigenvalues --   -0.41755  -0.41735  -0.41513  -0.41180  -0.41152
 Alpha  occ. eigenvalues --   -0.40816  -0.40590  -0.40568  -0.40290  -0.40207
 Alpha  occ. eigenvalues --   -0.40031  -0.39682  -0.39531  -0.39437  -0.39163
 Alpha  occ. eigenvalues --   -0.38691  -0.38323  -0.37840  -0.37668  -0.37458
 Alpha  occ. eigenvalues --   -0.37446  -0.37179  -0.36872  -0.36448  -0.36252
 Alpha  occ. eigenvalues --   -0.36138  -0.35918  -0.35183  -0.34466  -0.34292
 Alpha  occ. eigenvalues --   -0.33850  -0.33088  -0.32915  -0.31662  -0.31582
 Alpha  occ. eigenvalues --   -0.31487  -0.31419  -0.30724  -0.30651  -0.30418
 Alpha  occ. eigenvalues --   -0.30235  -0.29809  -0.28664  -0.24199  -0.24069
 Alpha  occ. eigenvalues --   -0.21319  -0.20806
 Alpha virt. eigenvalues --   -0.08522  -0.08455  -0.01781  -0.01346  -0.00073
 Alpha virt. eigenvalues --    0.00039   0.01756   0.02096   0.02299   0.02775
 Alpha virt. eigenvalues --    0.02958   0.04504   0.04533   0.05393   0.05514

 Mulliken charges:
               1
     1  Mg  12.000045
     2  C    5.999971
     3  C    6.000065
     4  C    6.000087
     5  C    5.999942
     6  N    6.999965
     7  C    6.000058
     8  C    5.999970
     9  C    6.000049
    10  C    5.999843
    11  C    6.000037
    12  C    5.999996
    13  C    5.999985
    14  H    1.000033
    15  N    6.999998
    16  C    5.999774
    17  C    5.999928
    18  C    5.999856
    19  C    5.999842
    20  C    6.000033
    21  C    5.999971
    22  O    7.999882
    23  C    6.000028
    24  N    7.000028
    25  C    5.999874
    26  C    6.000036
    27  C    5.999960
    28  C    6.000097
    29  C    6.000018
    30  C    5.999958
    31  C    5.999997
    32  N    7.000018
    33  C    6.000248
    34  C    6.000091
    35  C    6.000074
    36  C    6.000150
    37  C    5.999946
    38  C    6.000112
    39  O    8.000166
    40  C    6.000027
    41  C    5.999989
    42  O    8.000040
    43  O    8.000008
    44  C    5.999984
    45  H    0.999898
    46  H    0.999974
    47  H    1.000098
    48  H    1.000015
    49  H    0.999967
    50  H    0.999951
    51  H    0.999926
    52  H    0.999985
    53  H    1.000033
    54  H    0.999990
    55  H    0.999999
    56  H    0.999997
    57  H    0.999868
    58  H    0.999893
    59  H    0.999846
    60  H    0.999933
    61  H    0.999915
    62  H    0.999897
    63  H    0.999996
    64  H    1.000017
    65  H    0.999967
    66  H    0.999992
    67  H    0.999994
    68  H    1.000011
    69  H    1.000064
    70  H    0.999987
    71  H    1.000022
    72  H    1.000046
    73  H    1.000132
    74  H    1.000117
    75  H    1.000151
    76  H    1.000058
    77  H    1.000017
    78  H    1.000017
    79  H    1.000045
    80  Mg  11.996944
    81  C    5.971185
    82  C    6.021968
    83  C    6.019062
    84  C    5.975059
    85  N    6.993364
    86  C    6.040846
    87  C    5.989333
    88  C    6.013630
    89  C    5.965478
    90  C    6.000796
    91  C    5.995224
    92  C    5.996952
    93  H    1.010590
    94  N    7.007963
    95  C    5.954807
    96  C    5.976202
    97  C    5.988029
    98  C    5.956036
    99  C    6.008392
   100  C    5.987000
   101  O    7.976168
   102  C    6.002320
   103  N    6.999350
   104  C    5.968569
   105  C    6.008379
   106  C    5.990047
   107  C    6.033622
   108  C    5.998161
   109  C    5.998413
   110  C    5.997726
   111  N    6.997567
   112  C    6.048190
   113  C    6.031091
   114  C    6.002476
   115  C    6.038954
   116  C    5.995137
   117  C    6.016490
   118  O    8.029230
   119  C    6.006380
   120  C    6.005471
   121  O    8.003499
   122  O    8.002908
   123  C    5.996230
   124  H    0.991834
   125  H    0.991913
   126  H    1.009195
   127  H    1.001835
   128  H    0.994148
   129  H    0.987231
   130  H    1.006922
   131  H    0.997706
   132  H    1.011872
   133  H    0.995605
   134  H    0.996261
   135  H    1.001947
   136  H    0.975620
   137  H    0.979351
   138  H    0.979572
   139  H    0.994422
   140  H    0.994828
   141  H    0.985036
   142  H    0.999938
   143  H    0.999344
   144  H    1.005600
   145  H    0.987716
   146  H    0.998185
   147  H    0.999201
   148  H    1.012782
   149  H    1.005273
   150  H    1.001183
   151  H    0.995900
   152  H    1.020487
   153  H    1.021336
   154  H    1.020042
   155  H    1.008915
   156  H    1.003032
   157  H    1.003437
   158  H    1.007095
 Sum of Mulliken charges = 624.00000

 Dipole moment (field-independent basis, Debye):
    X=             -4.1095    Y=              2.7842    Z=            -10.2176  Tot=             11.3595
 Quadrupole moment (field-independent basis, Debye-Ang):
   XX=           -181.9391   YY=              2.0175   ZZ=             -7.2901
   XY=             65.5267   XZ=           -235.5586   YZ=              4.6710

 Normal termination of Gaussian 16 at Thu Sep 23 09:36:40 2021.
