 Gaussian 16, Revision A.03,
 Gaussian 16:  ES64L-G16RevA.03 25-Dec-2016

 -----------------------------------
 #p cam-b3lyp/Def2SVP td=(nstates=5)
 -----------------------------------

 --------------------------------
 TDDFT excited states in gaussian
 --------------------------------
 Symbolic Z-matrix:
 Charge =  0 Multiplicity = 1

                         Standard orientation:
 ---------------------------------------------------------------------
 Center     Atomic      Atomic             Coordinates (Angstroms)
 Number     Number       Type             X           Y           Z
 ---------------------------------------------------------------------
      1         12           0       23.643688    0.534284   -0.071456
      2          6           0       22.567539   -2.555605   -1.153363
      3          6           0       23.779468   -0.770272    3.088725
      4          6           0       24.416816    3.626897    1.043185
      5          6           0       22.910107    1.885335   -3.190053
      6          7           0       23.058579   -1.471529    0.820332
      7          6           0       22.858217   -2.571450    0.202652
      8          6           0       22.756316   -3.902241    1.112043
      9          6           0       22.858830   -3.207768    2.527250
     10          6           0       23.179416   -1.679879    2.168012
     11          6           0       21.499766   -3.234119    3.404370
     12          6           0       23.878395   -4.997618    0.848611
     13          6           0       23.494888   -6.504113    1.067730
     14          1           0       22.188166   -6.772146    1.751294
     15          7           0       24.107113    1.294571    1.736276
     16          6           0       24.202859    0.567368    2.987349
     17          6           0       24.660059    1.508049    4.004881
     18          6           0       24.740962    2.810902    3.453082
     19          6           0       24.460079    2.614582    2.012879
     20          6           0       24.959807    0.953268    5.350843
     21          6           0       25.155130    4.160608    4.084765
     22          8           0       25.093881    5.228536    3.551852
     23          6           0       25.506368    4.094584    5.584879
     24          7           0       23.579105    2.547189   -0.874842
     25          6           0       23.925928    3.634768   -0.262340
     26          6           0       23.573245    4.901191   -1.093016
     27          6           0       23.199519    4.338100   -2.485166
     28          6           0       23.239431    2.817063   -2.206575
     29          6           0       22.444280    5.709932   -0.419317
     30          6           0       24.159698    4.835780   -3.608794
     31          6           0       24.000547    6.316466   -3.990132
     32          7           0       22.885696   -0.159792   -1.860420
     33          6           0       22.744892    0.500808   -3.067906
     34          6           0       22.316113   -0.483875   -4.026014
     35          6           0       22.173830   -1.734465   -3.353488
     36          6           0       22.586723   -1.426031   -2.028656
     37          6           0       22.021470   -0.219899   -5.386512
     38          6           0       21.893547   -3.131693   -3.448469
     39          8           0       21.454850   -3.781104   -4.444154
     40          6           0       22.031935   -3.679799   -1.975288
     41          6           0       20.745911   -4.224197   -1.595080
     42          8           0       19.800828   -3.552545   -1.182222
     43          8           0       20.755531   -5.554275   -1.930228
     44          6           0       19.421426   -6.184463   -1.839960
     45          1           0       23.807814   -1.151201    4.111284
     46          1           0       24.700098    4.591876    1.470245
     47          1           0       22.763141    2.345472   -4.169876
     48          1           0       21.737253   -4.248699    0.938183
     49          1           0       23.626687   -3.694561    3.128194
     50          1           0       20.666269   -3.418411    2.725969
     51          1           0       21.365983   -2.273889    3.902287
     52          1           0       21.451364   -3.978969    4.199368
     53          1           0       24.653705   -4.745022    1.571440
     54          1           0       24.483179   -4.864957   -0.049121
     55          1           0       24.243284   -7.072291    1.620025
     56          1           0       23.359751   -6.979296    0.096069
     57          1           0       24.052210    0.891767    5.952015
     58          1           0       25.810136    1.437051    5.831669
     59          1           0       25.323800   -0.062282    5.196881
     60          1           0       26.473663    3.642342    5.805992
     61          1           0       24.670895    3.512848    5.973012
     62          1           0       25.467976    5.040727    6.123908
     63          1           0       24.525585    5.429826   -1.126559
     64          1           0       22.164669    4.591566   -2.715136
     65          1           0       21.788106    5.145511    0.243589
     66          1           0       21.689846    6.168265   -1.059603
     67          1           0       22.951330    6.488621    0.150387
     68          1           0       23.953305    4.274209   -4.518862
     69          1           0       25.193871    4.643042   -3.321417
     70          1           0       23.281984    6.757986   -3.299589
     71          1           0       23.443659    6.379695   -4.925121
     72          1           0       24.893459    6.927499   -4.120008
     73          1           0       22.835951    0.422880   -5.720735
     74          1           0       21.097298    0.322759   -5.584659
     75          1           0       21.897039   -1.171754   -5.903862
     76          1           0       22.744707   -4.497165   -2.087811
     77          1           0       18.814908   -5.717262   -2.616332
     78          1           0       19.022112   -6.149705   -0.826874
     79          1           0       19.544684   -7.237012   -2.095482
     80         12           0      -23.717196    0.551692    0.259310
     81          6           0      -21.122109   -1.809318    0.712689
     82          6           0      -25.572590   -1.912301   -0.862937
     83          6           0      -25.608877    2.913326   -1.073453
     84          6           0      -21.234359    3.024335    0.850858
     85          7           0      -23.339660   -1.679480    0.155341
     86          6           0      -22.325740   -2.410862    0.444029
     87          6           0      -22.706861   -3.905596    0.441076
     88          6           0      -23.994101   -3.948440   -0.529855
     89          6           0      -24.314494   -2.396312   -0.492114
     90          6           0      -23.758344   -4.496630   -1.992761
     91          6           0      -23.133260   -4.391412    1.923322
     92          6           0      -22.844325   -5.854314    2.391896
     93          1           0      -22.812144   -6.951299    1.264757
     94          7           0      -25.477557    0.519106   -0.642356
     95          6           0      -26.123695   -0.662710   -0.972456
     96          6           0      -27.436916   -0.316251   -1.621815
     97          6           0      -27.448074    1.140891   -1.643718
     98          6           0      -26.178265    1.661811   -1.130230
     99          6           0      -28.374333   -1.396903   -2.126647
    100          6           0      -28.573480    2.034831   -2.116033
    101          8           0      -28.520591    3.271938   -2.155673
    102          6           0      -29.845712    1.413058   -2.528716
    103          7           0      -23.490267    2.761618    0.020814
    104          6           0      -24.426534    3.445030   -0.612225
    105          6           0      -24.210129    5.007090   -0.385089
    106          6           0      -22.712801    4.995153    0.243363
    107          6           0      -22.473932    3.497899    0.418980
    108          6           0      -24.397859    5.867636   -1.678073
    109          6           0      -22.468823    5.777688    1.575340
    110          6           0      -21.606930    7.011505    1.496160
    111          7           0      -21.635099    0.659628    0.911047
    112          6           0      -20.814336    1.755382    1.090099
    113          6           0      -19.502790    1.335334    1.359502
    114          6           0      -19.574083   -0.059007    1.179174
    115          6           0      -20.855694   -0.454106    0.876722
    116          6           0      -18.343978    2.147397    1.654311
    117          6           0      -18.766706   -1.210367    1.300368
    118          8           0      -17.586744   -1.453066    1.673151
    119          6           0      -19.685858   -2.382014    0.729905
    120          6           0      -19.530711   -3.606669    1.554826
    121          8           0      -19.818292   -3.760289    2.740078
    122          8           0      -19.080779   -4.646781    0.681719
    123          6           0      -18.843728   -5.966846    1.279728
    124          1           0      -26.195413   -2.779156   -1.095232
    125          1           0      -26.273730    3.686205   -1.463060
    126          1           0      -20.498646    3.790083    1.108038
    127          1           0      -21.946629   -4.425981   -0.140880
    128          1           0      -24.707965   -4.659633   -0.115696
    129          1           0      -22.698188   -4.571809   -2.233705
    130          1           0      -24.163716   -3.820498   -2.745298
    131          1           0      -24.223166   -5.482201   -2.016607
    132          1           0      -24.187051   -4.185186    2.111312
    133          1           0      -22.663145   -3.720873    2.642950
    134          1           0      -23.556896   -6.228233    3.127804
    135          1           0      -21.799272   -5.878857    2.703194
    136          1           0      -29.411282   -1.204052   -1.849268
    137          1           0      -28.106544   -2.394451   -1.778312
    138          1           0      -28.217238   -1.537937   -3.195723
    139          1           0      -29.691963    0.707134   -3.345374
    140          1           0      -30.550125    2.184744   -2.839350
    141          1           0      -30.384634    0.878026   -1.746788
    142          1           0      -24.855497    5.411671    0.394515
    143          1           0      -21.953082    5.236577   -0.501496
    144          1           0      -24.548596    5.223146   -2.544292
    145          1           0      -23.501399    6.486754   -1.638574
    146          1           0      -25.216202    6.558034   -1.477845
    147          1           0      -21.973871    5.093816    2.265216
    148          1           0      -23.428130    6.037998    2.023081
    149          1           0      -21.480458    7.157739    0.424262
    150          1           0      -20.633419    6.763080    1.920431
    151          1           0      -22.082944    7.900284    1.908534
    152          1           0      -18.629441    2.816544    2.465571
    153          1           0      -18.084878    2.899216    0.908777
    154          1           0      -17.521317    1.508623    1.976244
    155          1           0      -19.379538   -2.581928   -0.297384
    156          1           0      -18.421215   -6.653009    0.545257
    157          1           0      -19.808807   -6.425486    1.495874
    158          1           0      -18.122634   -5.867746    2.090401
 ---------------------------------------------------------------------

 SCF Done:  E(RCAM-B3LYP) =  -4069.79278628     A.U. after   19 cycles

 Excitation energies and oscillator strengths:

 Excited State   1:      Singlet-A      1.7724 eV  699.52 nm  f=0.3825  <S**2>=0.000
     310 -> 316        0.19902
     312 -> 314        0.67935
     310 <- 316        0.10974
 This state for optimization and/or second-order correction.
 Total Energy, E(TD-HF/TD-DFT) =  -4069.72765072
 Copying the excited state density for this state as the 1-particle RhoCI density.

 Excited State   2:      Singlet-A      1.7997 eV  688.91 nm  f=0.3654  <S**2>=0.000
     309 -> 315        0.21210
     311 -> 313        0.67498
     309 <- 315        0.10952

 Excited State   3:      Singlet-A      2.2144 eV  559.90 nm  f=0.1098  <S**2>=0.000
     310 -> 314        0.64301
     312 -> 316       -0.28128

 Excited State   4:      Singlet-A      2.2245 eV  557.36 nm  f=0.0819  <S**2>=0.000
     309 -> 313        0.62926
     311 -> 315       -0.30804

 Excited State   5:      Singlet-A      3.2236 eV  384.61 nm  f=0.0000  <S**2>=0.000
     312 -> 313        0.70710

 The electronic state is 1-A.
 Alpha  occ. eigenvalues --  -46.89395 -46.88357 -19.24754 -19.23945 -19.20222
 Alpha  occ. eigenvalues --  -19.20125 -19.19264 -19.19001 -19.18455 -19.18199
 Alpha  occ. eigenvalues --  -14.42179 -14.42155 -14.41726 -14.41498 -14.39976
 Alpha  occ. eigenvalues --  -14.39638 -14.38904 -14.38570 -10.39296 -10.38511
 Alpha  occ. eigenvalues --  -10.36235 -10.35128 -10.34720 -10.34491 -10.31799
 Alpha  occ. eigenvalues --  -10.31526 -10.31228 -10.31090 -10.30968 -10.30755
 Alpha  occ. eigenvalues --  -10.30711 -10.30642 -10.30630 -10.30623 -10.30436
 Alpha  occ. eigenvalues --  -10.30384 -10.30312 -10.30297 -10.30251 -10.29394
 Alpha  occ. eigenvalues --  -10.29335 -10.29174 -10.28947 -10.28888 -10.28882
 Alpha  occ. eigenvalues --  -10.28665 -10.28648 -10.28574 -10.28396 -10.28389
 Alpha  occ. eigenvalues --  -10.28310 -10.28147 -10.28054 -10.28015 -10.27840
 Alpha  occ. eigenvalues --  -10.27747 -10.27727 -10.27599 -10.27576 -10.27543
 Alpha  occ. eigenvalues --  -10.27520 -10.27494 -10.27471 -10.27137 -10.27097
 Alpha  occ. eigenvalues --  -10.27064 -10.26978 -10.26879 -10.26641 -10.26525
 Alpha  occ. eigenvalues --  -10.26385 -10.26378 -10.26237 -10.26233 -10.26115
 Alpha  occ. eigenvalues --  -10.26030 -10.25911 -10.25830 -10.25814 -10.25628
 Alpha  occ. eigenvalues --  -10.25409 -10.25358 -10.25289 -10.24644 -10.24613
 Alpha  occ. eigenvalues --  -10.24412  -3.17849  -3.16970  -1.92753  -1.92315
 Alpha  occ. eigenvalues --   -1.92135  -1.91863  -1.91431  -1.91273  -1.15480
 Alpha  occ. eigenvalues --   -1.13969  -1.12479  -1.09425  -1.07290  -1.07183
 Alpha  occ. eigenvalues --   -1.06729  -1.06707  -1.05786  -1.05345  -1.05214
 Alpha  occ. eigenvalues --   -1.04277  -1.03492  -1.03418  -1.01472  -1.00833
 Alpha  occ. eigenvalues --   -0.92960  -0.92483  -0.89501  -0.89282  -0.88614
 Alpha  occ. eigenvalues --   -0.88320  -0.87901  -0.87803  -0.87555  -0.87444
 Alpha  occ. eigenvalues --   -0.87379  -0.86922  -0.86913  -0.86816  -0.84277
 Alpha  occ. eigenvalues --   -0.83977  -0.83873  -0.83443  -0.82727  -0.82286
 Alpha  occ. eigenvalues --   -0.82062  -0.81701  -0.81514  -0.81011  -0.80672
 Alpha  occ. eigenvalues --   -0.80239  -0.78972  -0.78509  -0.77716  -0.77351
 Alpha  occ. eigenvalues --   -0.76972  -0.76344  -0.75892  -0.75712  -0.75240
 Alpha  occ. eigenvalues --   -0.74801  -0.73226  -0.72259  -0.72167  -0.71425
 Alpha  occ. eigenvalues --   -0.69376  -0.68934  -0.68751  -0.68599  -0.68143
 Alpha  occ. eigenvalues --   -0.67929  -0.67230  -0.66953  -0.65928  -0.65781
 Alpha  occ. eigenvalues --   -0.65664  -0.65598  -0.65369  -0.64715  -0.64603
 Alpha  occ. eigenvalues --   -0.64041  -0.61511  -0.61259  -0.60539  -0.60149
 Alpha  occ. eigenvalues --   -0.59984  -0.59329  -0.59291  -0.59093  -0.58350
 Alpha  occ. eigenvalues --   -0.58242  -0.57839  -0.57745  -0.57625  -0.57341
 Alpha  occ. eigenvalues --   -0.56998  -0.55952  -0.55770  -0.55679  -0.55483
 Alpha  occ. eigenvalues --   -0.55120  -0.54511  -0.54451  -0.53937  -0.53797
 Alpha  occ. eigenvalues --   -0.53535  -0.53314  -0.53223  -0.53115  -0.52969
 Alpha  occ. eigenvalues --   -0.52910  -0.52686  -0.52610  -0.52476  -0.52244
 Alpha  occ. eigenvalues --   -0.52030  -0.51869  -0.51558  -0.51333  -0.51113
 Alpha  occ. eigenvalues --   -0.51076  -0.50921  -0.50902  -0.50677  -0.50553
 Alpha  occ. eigenvalues --   -0.50350  -0.50346  -0.49870  -0.49563  -0.49393
 Alpha  occ. eigenvalues --   -0.49204  -0.49102  -0.48917  -0.48790  -0.48669
 Alpha  occ. eigenvalues --   -0.48490  -0.48424  -0.48384  -0.48153  -0.48047
 Alpha  occ. eigenvalues --   -0.47813  -0.47794  -0.47747  -0.47618  -0.47316
 Alpha  occ. eigenvalues --   -0.47035  -0.46996  -0.46796  -0.46589  -0.46414
 Alpha  occ. eigenvalues --   -0.46304  -0.46195  -0.46107  -0.45993  -0.45589
 Alpha  occ. eigenvalues --   -0.45564  -0.45344  -0.45081  -0.44916  -0.44818
 Alpha  occ. eigenvalues --   -0.44368  -0.44243  -0.44230  -0.44126  -0.43932
 Alpha  occ. eigenvalues --   -0.43915  -0.43701  -0.43561  -0.43483  -0.43339
 Alpha  occ. eigenvalues --   -0.43167  -0.42991  -0.42882  -0.42736  -0.42626
 Alpha  occ. eigenvalues --   -0.42610  -0.42225  -0.41939  -0.41691  -0.41670
 Alpha  occ. eigenvalues --   -0.41628  -0.41584  -0.41424  -0.41175  -0.41149
 Alpha  occ. eigenvalues --   -0.41061  -0.40758  -0.40650  -0.40615  -0.40293
 Alpha  occ. eigenvalues --   -0.40164  -0.40057  -0.39770  -0.39354  -0.39033
 Alpha  occ. eigenvalues --   -0.38491  -0.38179  -0.37942  -0.37833  -0.37579
 Alpha  occ. eigenvalues --   -0.37402  -0.36842  -0.36516  -0.36450  -0.36281
 Alpha  occ. eigenvalues --   -0.36110  -0.35641  -0.34480  -0.34270  -0.33905
 Alpha  occ. eigenvalues --   -0.33853  -0.33552  -0.33398  -0.31798  -0.31716
 Alpha  occ. eigenvalues --   -0.31298  -0.31159  -0.30506  -0.30345  -0.30249
 Alpha  occ. eigenvalues --   -0.30106  -0.29297  -0.29129  -0.24163  -0.23629
 Alpha  occ. eigenvalues --   -0.21674  -0.21201
 Alpha virt. eigenvalues --   -0.08615  -0.08382  -0.02652  -0.01654  -0.00239
 Alpha virt. eigenvalues --    0.00006   0.02131   0.02256   0.02321   0.02641
 Alpha virt. eigenvalues --    0.04578   0.05505   0.05507   0.05605   0.05979

 Mulliken charges:
               1
     1  Mg   0.834086
     2  C    0.046719
     3  C   -0.061062
     4  C   -0.071301
     5  C   -0.093689
     6  N   -0.207329
     7  C   -0.140064
     8  C    0.027038
     9  C   -0.087886
    10  C    0.045291
    11  C    0.043943
    12  C    0.065420
    13  C   -0.077258
    14  H    0.020468
    15  N   -0.449218
    16  C    0.144333
    17  C   -0.127419
    18  C   -0.063074
    19  C    0.122876
    20  C    0.101061
    21  C    0.037215
    22  O   -0.159086
    23  C    0.015503
    24  N   -0.261528
    25  C    0.011096
    26  C    0.001207
    27  C   -0.019817
    28  C    0.031457
    29  C    0.063916
    30  C    0.026421
    31  C    0.015649
    32  N   -0.333840
    33  C    0.151051
    34  C   -0.161002
    35  C    0.054045
    36  C    0.083198
    37  C    0.103585
    38  C    0.016007
    39  O   -0.220078
    40  C   -0.011498
    41  C    0.205081
    42  O   -0.233885
    43  O   -0.336073
    44  C    0.186335
    45  H   -0.027682
    46  H   -0.015380
    47  H   -0.031269
    48  H    0.025848
    49  H    0.014647
    50  H    0.026823
    51  H    0.017652
    52  H    0.017625
    53  H   -0.007427
    54  H    0.015246
    55  H    0.035023
    56  H    0.042409
    57  H    0.043235
    58  H    0.020450
    59  H    0.020674
    60  H    0.049355
    61  H    0.033224
    62  H    0.022824
    63  H    0.011351
    64  H    0.008412
    65  H    0.021667
    66  H    0.013258
    67  H    0.028432
    68  H    0.004135
    69  H    0.007191
    70  H    0.004359
    71  H    0.003660
    72  H    0.027879
    73  H    0.017337
    74  H    0.026293
    75  H    0.033194
    76  H    0.032830
    77  H    0.049832
    78  H    0.038683
    79  H    0.030317
    80  Mg   0.815639
    81  C    0.016295
    82  C   -0.078641
    83  C   -0.039488
    84  C   -0.091660
    85  N   -0.224067
    86  C   -0.122423
    87  C    0.024865
    88  C   -0.108499
    89  C    0.025543
    90  C    0.065580
    91  C    0.060416
    92  C   -0.072474
    93  H   -0.016568
    94  N   -0.489182
    95  C    0.213727
    96  C   -0.139460
    97  C   -0.019707
    98  C    0.151503
    99  C    0.115735
   100  C    0.006984
   101  O   -0.211187
   102  C    0.033111
   103  N   -0.209855
   104  C    0.015556
   105  C   -0.071815
   106  C   -0.031117
   107  C   -0.009409
   108  C    0.089626
   109  C    0.026591
   110  C    0.020969
   111  N   -0.334491
   112  C    0.141011
   113  C   -0.143461
   114  C    0.021190
   115  C    0.107333
   116  C    0.141235
   117  C    0.060022
   118  O   -0.216300
   119  C   -0.028744
   120  C    0.225832
   121  O   -0.218491
   122  O   -0.379500
   123  C    0.184893
   124  H   -0.030784
   125  H   -0.007170
   126  H   -0.039813
   127  H    0.000450
   128  H    0.019255
   129  H    0.015704
   130  H    0.018146
   131  H    0.022278
   132  H    0.004562
   133  H    0.033030
   134  H    0.042166
   135  H    0.060418
   136  H    0.034354
   137  H    0.008026
   138  H    0.037102
   139  H    0.032545
   140  H    0.024246
   141  H    0.038674
   142  H    0.021642
   143  H    0.009474
   144  H    0.040276
   145  H    0.007218
   146  H    0.016214
   147  H    0.010553
   148  H   -0.000272
   149  H    0.002919
   150  H    0.018929
   151  H    0.023630
   152  H    0.007313
   153  H    0.021813
   154  H    0.047030
   155  H    0.051811
   156  H    0.025073
   157  H    0.027277
   158  H    0.048796
 Sum of Mulliken charges =  -0.00000

 Dipole moment (field-independent basis, Debye):
    X=             -1.5110    Y=             -0.6747    Z=              2.1943  Tot=              2.7483
 Quadrupole moment (field-independent basis, Debye-Ang):
   XX=           -213.0249   YY=           -480.6065   ZZ=           -511.5505
   XY=             36.2057   XZ=            118.0680   YZ=            -13.0568

 Normal termination of Gaussian 16 at Thu Sep 16 05:33:35 2021.
