 Gaussian 16, Revision A.03,
 Gaussian 16:  ES64L-G16RevA.03 25-Dec-2016

 ----------------------------------------------------------
 #p cam-b3lyp/Def2SVP td=(nstates=5) density=(transition=1)
 ----------------------------------------------------------

 --------------------------------
 TDDFT excited states in gaussian
 --------------------------------
 Symbolic Z-matrix:
 Charge =  0 Multiplicity = 1

                         Standard orientation:
 ---------------------------------------------------------------------
 Center     Atomic      Atomic             Coordinates (Angstroms)
 Number     Number       Type             X           Y           Z
 ---------------------------------------------------------------------
      1         12           0      -29.685542    0.107617    0.379242
      2          6           0      -26.952681   -1.454206   -0.865305
      3          6           0      -31.079109    0.203492   -2.800934
      4          6           0      -32.416105    1.675316    1.623355
      5          6           0      -28.098497    0.451812    3.436343
      6          7           0      -29.093353   -0.648019   -1.494759
      7          6           0      -27.917167   -1.236268   -1.829328
      8          6           0      -27.926735   -1.785045   -3.232237
      9          6           0      -29.121047   -1.013017   -3.911281
     10          6           0      -29.837828   -0.465741   -2.633599
     11          6           0      -28.840148    0.065395   -5.039503
     12          6           0      -28.209320   -3.354606   -3.251685
     13          6           0      -27.654928   -4.044541   -4.532886
     14          1           0      -27.492825   -3.283870   -5.859629
     15          7           0      -31.503036    0.934007   -0.458716
     16          6           0      -31.862612    0.833985   -1.828349
     17          6           0      -33.148612    1.431195   -2.027949
     18          6           0      -33.570217    1.896390   -0.731494
     19          6           0      -32.463805    1.477694    0.201486
     20          6           0      -33.886564    1.444018   -3.320618
     21          6           0      -34.852734    2.618676   -0.334211
     22          8           0      -35.104795    3.100852    0.808922
     23          6           0      -35.945269    2.820442   -1.370483
     24          7           0      -30.167178    1.003050    2.224594
     25          6           0      -31.448738    1.432392    2.573083
     26          6           0      -31.675848    1.622783    4.100644
     27          6           0      -30.209785    1.147442    4.632140
     28          6           0      -29.442816    0.820035    3.403620
     29          6           0      -32.005889    3.095019    4.378198
     30          6           0      -30.248164    0.048231    5.652526
     31          6           0      -29.544290    0.394692    6.933340
     32          7           0      -27.931862   -0.241530    1.174910
     33          6           0      -27.378558   -0.095937    2.440978
     34          6           0      -26.052152   -0.591335    2.454189
     35          6           0      -25.777959   -1.113622    1.161640
     36          6           0      -26.981056   -0.981430    0.436643
     37          6           0      -25.084876   -0.640596    3.573952
     38          6           0      -24.749604   -1.654700    0.300156
     39          8           0      -23.565562   -1.900478    0.423026
     40          6           0      -25.556086   -1.955999   -1.050894
     41          6           0      -24.765266   -1.630812   -2.266645
     42          8           0      -24.091204   -0.648651   -2.445013
     43          8           0      -24.823118   -2.584812   -3.208848
     44          6           0      -24.050243   -2.276970   -4.445744
     45          1           0      -31.342533    0.335764   -3.852514
     46          1           0      -33.240059    2.295993    1.981327
     47          1           0      -27.571246    0.418236    4.391950
     48          1           0      -27.051679   -1.478701   -3.805168
     49          1           0      -29.812837   -1.748461   -4.320694
     50          1           0      -27.772490    0.033672   -5.257074
     51          1           0      -29.130272    1.095369   -4.838078
     52          1           0      -29.447039   -0.221817   -5.898371
     53          1           0      -29.292201   -3.431513   -3.152372
     54          1           0      -27.726017   -3.778869   -2.371531
     55          1           0      -28.350430   -4.873476   -4.665477
     56          1           0      -26.722068   -4.524123   -4.237632
     57          1           0      -34.436169    0.534286   -3.562529
     58          1           0      -33.136510    1.675174   -4.075943
     59          1           0      -34.521306    2.321065   -3.443541
     60          1           0      -35.662668    3.711763   -1.930442
     61          1           0      -36.844084    3.027998   -0.790356
     62          1           0      -36.059668    1.987240   -2.064098
     63          1           0      -32.552035    1.024095    4.349869
     64          1           0      -29.729579    1.996294    5.120088
     65          1           0      -31.890736    3.776331    3.534936
     66          1           0      -31.478254    3.410468    5.277994
     67          1           0      -33.076834    3.123546    4.581176
     68          1           0      -29.745016   -0.861367    5.324276
     69          1           0      -31.249332   -0.289869    5.920128
     70          1           0      -30.138167    0.177198    7.820634
     71          1           0      -29.294306    1.454488    6.974991
     72          1           0      -28.590486   -0.128739    6.860927
     73          1           0      -25.164672    0.158476    4.311585
     74          1           0      -24.146967   -0.345911    3.102339
     75          1           0      -25.111987   -1.622274    4.047017
     76          1           0      -25.565959   -3.041701   -0.950398
     77          1           0      -22.979316   -2.434683   -4.310236
     78          1           0      -24.319922   -1.307245   -4.864417
     79          1           0      -24.352723   -2.984555   -5.218099
     80         12           0       29.767772    0.124823   -0.564387
     81          6           0       26.852484   -1.184390    0.795795
     82          6           0       28.148021    3.265979   -0.825358
     83          6           0       32.736249    1.645770   -0.761926
     84          6           0       31.400173   -2.848857    0.395384
     85          7           0       27.767749    1.038124    0.282891
     86          6           0       26.707191    0.204458    0.544717
     87          6           0       25.432736    0.971928    0.706980
     88          6           0       25.780231    2.332473   -0.054955
     89          6           0       27.341244    2.266888   -0.205687
     90          6           0       25.041831    2.557024   -1.469529
     91          6           0       25.010625    1.052175    2.263522
     92          6           0       23.595794    1.222389    2.499094
     93          1           0       23.257297    2.449817    3.371417
     94          7           0       30.376123    2.115555   -0.942270
     95          6           0       29.550895    3.271995   -1.023915
     96          6           0       30.410157    4.400657   -1.339319
     97          6           0       31.757421    3.964641   -1.351755
     98          6           0       31.666661    2.488290   -1.093171
     99          6           0       29.886693    5.785231   -1.434457
    100          6           0       33.005395    4.922984   -1.550437
    101          8           0       32.767263    6.117441   -1.722350
    102          6           0       34.401885    4.382992   -1.839054
    103          7           0       31.731551   -0.524091   -0.124947
    104          6           0       32.772476    0.294590   -0.421759
    105          6           0       34.236591   -0.366924   -0.034207
    106          6           0       33.802819   -1.901697    0.132848
    107          6           0       32.243572   -1.819695    0.118837
    108          6           0       35.365400   -0.223534   -1.124094
    109          6           0       34.319186   -2.535069    1.426151
    110          6           0       35.224606   -3.789522    1.388814
    111          7           0       29.201895   -1.738560    0.122216
    112          6           0       29.960090   -2.832929    0.422034
    113          6           0       29.092402   -3.930060    0.751070
    114          6           0       27.827983   -3.261652    0.961678
    115          6           0       27.997138   -1.915469    0.595462
    116          6           0       29.513131   -5.328106    1.101365
    117          6           0       26.484734   -3.461530    1.464227
    118          8           0       25.905325   -4.471945    1.724487
    119          6           0       25.705695   -2.094825    1.335802
    120          6           0       24.537869   -2.109514    0.324961
    121          8           0       24.618674   -2.512921   -0.815345
    122          8           0       23.355541   -1.680613    0.962694
    123          6           0       22.140157   -1.799186    0.215199
    124          1           0       27.574058    4.185978   -0.948078
    125          1           0       33.702524    2.120833   -0.580982
    126          1           0       31.945647   -3.756384    0.660546
    127          1           0       24.636667    0.596254    0.063306
    128          1           0       25.522713    3.161946    0.604636
    129          1           0       24.468090    3.475621   -1.347302
    130          1           0       24.398695    1.723273   -1.749492
    131          1           0       25.833084    2.708573   -2.204301
    132          1           0       25.535799    1.938646    2.618743
    133          1           0       25.498682    0.159456    2.655547
    134          1           0       23.262143    0.311185    2.994118
    135          1           0       23.075777    1.380548    1.554322
    136          1           0       28.798648    5.800625   -1.495344
    137          1           0       30.211100    6.241739   -2.369917
    138          1           0       30.169069    6.376282   -0.562922
    139          1           0       34.840257    3.830810   -1.007177
    140          1           0       35.029979    5.232343   -2.109756
    141          1           0       34.325684    3.747588   -2.721486
    142          1           0       34.457665    0.074740    0.937086
    143          1           0       34.013353   -2.535093   -0.729162
    144          1           0       36.154187    0.429682   -0.752100
    145          1           0       34.942543    0.214747   -2.028881
    146          1           0       35.748644   -1.227740   -1.308350
    147          1           0       33.511240   -2.718141    2.134172
    148          1           0       34.870392   -1.856489    2.076953
    149          1           0       34.800828   -4.727540    1.748504
    150          1           0       36.041626   -3.563598    2.074466
    151          1           0       35.591183   -3.982894    0.379965
    152          1           0       28.632675   -5.961564    0.990726
    153          1           0       29.642789   -5.518710    2.166245
    154          1           0       30.403587   -5.685291    0.584730
    155          1           0       25.294335   -1.957061    2.336147
    156          1           0       21.555491   -1.000917    0.673551
    157          1           0       21.591813   -2.706613    0.467566
    158          1           0       22.334183   -1.743088   -0.855178
 ---------------------------------------------------------------------

 SCF Done:  E(RCAM-B3LYP) =  -4069.78431419     A.U. after   18 cycles

 Excitation energies and oscillator strengths:

 Excited State   1:      Singlet-A      1.6462 eV  753.17 nm  f=0.3913  <S**2>=0.000
     310 -> 316       -0.17001
     312 -> 313        0.68912
     310 <- 316       -0.10749
 This state for optimization and/or second-order correction.
 Total Energy, E(TD-HF/TD-DFT) =  -4069.72381839
 Copying the excited state density for this state as the 1-particle RhoCI density.

 Excited State   2:      Singlet-A      1.6845 eV  736.02 nm  f=0.3891  <S**2>=0.000
     309 -> 315       -0.17409
     311 -> 314        0.68816
     309 <- 315       -0.10834

 Excited State   3:      Singlet-A      2.2270 eV  556.73 nm  f=0.1136  <S**2>=0.000
     310 -> 313        0.63821
     312 -> 316        0.29158

 Excited State   4:      Singlet-A      2.2457 eV  552.09 nm  f=0.1072  <S**2>=0.000
     309 -> 314        0.63696
     311 -> 315        0.29186

 Excited State   5:      Singlet-A      3.1617 eV  392.15 nm  f=0.0000  <S**2>=0.000
     311 -> 313        0.70710

 The electronic state is 1-A.
 Alpha  occ. eigenvalues --  -46.89793 -46.87141 -19.25160 -19.25122 -19.20735
 Alpha  occ. eigenvalues --  -19.19690 -19.19216 -19.18753 -19.18488 -19.18250
 Alpha  occ. eigenvalues --  -14.42847 -14.42304 -14.42005 -14.41678 -14.40190
 Alpha  occ. eigenvalues --  -14.39518 -14.39074 -14.38751 -10.40074 -10.38584
 Alpha  occ. eigenvalues --  -10.36373 -10.35217 -10.35139 -10.34011 -10.32036
 Alpha  occ. eigenvalues --  -10.31803 -10.31613 -10.31447 -10.31347 -10.31181
 Alpha  occ. eigenvalues --  -10.30962 -10.30945 -10.30721 -10.30552 -10.30475
 Alpha  occ. eigenvalues --  -10.30468 -10.30106 -10.29847 -10.29646 -10.29337
 Alpha  occ. eigenvalues --  -10.29274 -10.28940 -10.28847 -10.28737 -10.28643
 Alpha  occ. eigenvalues --  -10.28501 -10.28500 -10.28471 -10.28241 -10.28214
 Alpha  occ. eigenvalues --  -10.28154 -10.28136 -10.28127 -10.28109 -10.28025
 Alpha  occ. eigenvalues --  -10.27859 -10.27850 -10.27804 -10.27789 -10.27645
 Alpha  occ. eigenvalues --  -10.27643 -10.27610 -10.27527 -10.27506 -10.27468
 Alpha  occ. eigenvalues --  -10.27193 -10.27034 -10.26859 -10.26807 -10.26687
 Alpha  occ. eigenvalues --  -10.26431 -10.26425 -10.26390 -10.26282 -10.25991
 Alpha  occ. eigenvalues --  -10.25854 -10.25832 -10.25752 -10.25689 -10.25598
 Alpha  occ. eigenvalues --  -10.25469 -10.25452 -10.25377 -10.25231 -10.25113
 Alpha  occ. eigenvalues --  -10.24624  -3.18211  -3.16000  -1.93061  -1.92721
 Alpha  occ. eigenvalues --   -1.92478  -1.90890  -1.90434  -1.90345  -1.17301
 Alpha  occ. eigenvalues --   -1.16071  -1.10788  -1.10285  -1.10133  -1.08727
 Alpha  occ. eigenvalues --   -1.07401  -1.07250  -1.04905  -1.04518  -1.03563
 Alpha  occ. eigenvalues --   -1.02908  -1.02711  -1.02377  -1.01589  -1.01404
 Alpha  occ. eigenvalues --   -0.93367  -0.92237  -0.89710  -0.89210  -0.88804
 Alpha  occ. eigenvalues --   -0.88581  -0.88364  -0.88178  -0.87674  -0.87219
 Alpha  occ. eigenvalues --   -0.86867  -0.86422  -0.86409  -0.85807  -0.84326
 Alpha  occ. eigenvalues --   -0.84084  -0.83813  -0.83363  -0.82692  -0.82474
 Alpha  occ. eigenvalues --   -0.82226  -0.81655  -0.81142  -0.81052  -0.80502
 Alpha  occ. eigenvalues --   -0.80247  -0.78354  -0.77829  -0.77774  -0.77355
 Alpha  occ. eigenvalues --   -0.77325  -0.76757  -0.76525  -0.76118  -0.75213
 Alpha  occ. eigenvalues --   -0.74929  -0.72880  -0.72656  -0.71844  -0.71339
 Alpha  occ. eigenvalues --   -0.69236  -0.69088  -0.68684  -0.68431  -0.68188
 Alpha  occ. eigenvalues --   -0.67447  -0.66698  -0.66500  -0.65914  -0.65858
 Alpha  occ. eigenvalues --   -0.65351  -0.64808  -0.64772  -0.64497  -0.64088
 Alpha  occ. eigenvalues --   -0.64075  -0.62814  -0.62334  -0.60319  -0.59930
 Alpha  occ. eigenvalues --   -0.59645  -0.59472  -0.58987  -0.58964  -0.58559
 Alpha  occ. eigenvalues --   -0.58370  -0.58002  -0.57997  -0.57707  -0.57459
 Alpha  occ. eigenvalues --   -0.56325  -0.56085  -0.55496  -0.55326  -0.55182
 Alpha  occ. eigenvalues --   -0.54973  -0.54960  -0.54826  -0.54001  -0.53940
 Alpha  occ. eigenvalues --   -0.53341  -0.53239  -0.52996  -0.52888  -0.52715
 Alpha  occ. eigenvalues --   -0.52591  -0.52552  -0.52442  -0.52430  -0.52143
 Alpha  occ. eigenvalues --   -0.52086  -0.51972  -0.51730  -0.51635  -0.51307
 Alpha  occ. eigenvalues --   -0.51148  -0.51036  -0.50792  -0.50309  -0.50197
 Alpha  occ. eigenvalues --   -0.50095  -0.50080  -0.49976  -0.49698  -0.49609
 Alpha  occ. eigenvalues --   -0.49607  -0.49211  -0.49143  -0.49003  -0.48872
 Alpha  occ. eigenvalues --   -0.48756  -0.48443  -0.48383  -0.48222  -0.48007
 Alpha  occ. eigenvalues --   -0.47993  -0.47887  -0.47763  -0.47320  -0.47300
 Alpha  occ. eigenvalues --   -0.47211  -0.47021  -0.46945  -0.46705  -0.46598
 Alpha  occ. eigenvalues --   -0.46416  -0.46353  -0.46163  -0.45918  -0.45916
 Alpha  occ. eigenvalues --   -0.45671  -0.45230  -0.45192  -0.44951  -0.44907
 Alpha  occ. eigenvalues --   -0.44769  -0.44759  -0.44543  -0.44504  -0.44069
 Alpha  occ. eigenvalues --   -0.44047  -0.43960  -0.43887  -0.43526  -0.43508
 Alpha  occ. eigenvalues --   -0.43376  -0.43282  -0.43171  -0.43104  -0.42705
 Alpha  occ. eigenvalues --   -0.42676  -0.42488  -0.42406  -0.42344  -0.42188
 Alpha  occ. eigenvalues --   -0.42040  -0.41945  -0.41422  -0.41410  -0.41069
 Alpha  occ. eigenvalues --   -0.40975  -0.40969  -0.40888  -0.40491  -0.40455
 Alpha  occ. eigenvalues --   -0.40429  -0.40386  -0.40046  -0.39798  -0.38647
 Alpha  occ. eigenvalues --   -0.38246  -0.38178  -0.37966  -0.37720  -0.37614
 Alpha  occ. eigenvalues --   -0.37192  -0.37061  -0.37027  -0.36685  -0.36610
 Alpha  occ. eigenvalues --   -0.36222  -0.35599  -0.34779  -0.34591  -0.34256
 Alpha  occ. eigenvalues --   -0.34129  -0.33338  -0.33274  -0.31578  -0.31531
 Alpha  occ. eigenvalues --   -0.31246  -0.30729  -0.30708  -0.30212  -0.29962
 Alpha  occ. eigenvalues --   -0.29944  -0.29572  -0.29167  -0.24310  -0.24310
 Alpha  occ. eigenvalues --   -0.21163  -0.21031
 Alpha virt. eigenvalues --   -0.08960  -0.08777  -0.01642  -0.01614   0.00116
 Alpha virt. eigenvalues --    0.00397   0.01337   0.02169   0.02170   0.03165
 Alpha virt. eigenvalues --    0.04579   0.04676   0.04772   0.05472   0.05840

 Mulliken charges:
               1
     1  Mg  12.004669
     2  C    5.973733
     3  C    6.009395
     4  C    6.035919
     5  C    6.009619
     6  N    6.986796
     7  C    6.036155
     8  C    5.987007
     9  C    6.010822
    10  C    5.963701
    11  C    6.005257
    12  C    5.997010
    13  C    5.999799
    14  H    1.006819
    15  N    7.007058
    16  C    5.950844
    17  C    5.987662
    18  C    5.974954
    19  C    5.963639
    20  C    6.004824
    21  C    5.986912
    22  O    7.961328
    23  C    6.005833
    24  N    7.021030
    25  C    5.961828
    26  C    6.010886
    27  C    5.987022
    28  C    6.018909
    29  C    6.000296
    30  C    5.993143
    31  C    5.999655
    32  N    6.994710
    33  C    6.025637
    34  C    6.035941
    35  C    6.001936
    36  C    6.035672
    37  C    5.995000
    38  C    6.012821
    39  O    8.025315
    40  C    6.004330
    41  C    6.002918
    42  O    8.002446
    43  O    8.002095
    44  C    5.997827
    45  H    0.984357
    46  H    1.002279
    47  H    1.015980
    48  H    0.999758
    49  H    0.995935
    50  H    0.983461
    51  H    1.000675
    52  H    0.996406
    53  H    1.012909
    54  H    0.992181
    55  H    1.002749
    56  H    0.995445
    57  H    0.979574
    58  H    0.985461
    59  H    0.984125
    60  H    0.989132
    61  H    0.984194
    62  H    0.992665
    63  H    1.003322
    64  H    1.004551
    65  H    1.004923
    66  H    0.990998
    67  H    1.004919
    68  H    0.997697
    69  H    1.013764
    70  H    1.007727
    71  H    1.004240
    72  H    0.995328
    73  H    1.019246
    74  H    1.017710
    75  H    1.023848
    76  H    1.003952
    77  H    1.000615
    78  H    1.005443
    79  H    1.005257
    80  Mg  11.999997
    81  C    5.999994
    82  C    5.999850
    83  C    6.000076
    84  C    6.000166
    85  N    6.999951
    86  C    5.999911
    87  C    6.000060
    88  C    5.999943
    89  C    6.000192
    90  C    5.999997
    91  C    5.999996
    92  C    6.000039
    93  H    0.999910
    94  N    7.000011
    95  C    6.000281
    96  C    6.000028
    97  C    6.000129
    98  C    6.000103
    99  C    5.999938
   100  C    6.000083
   101  O    8.000112
   102  C    5.999962
   103  N    7.000058
   104  C    6.000042
   105  C    5.999969
   106  C    6.000022
   107  C    5.999851
   108  C    5.999986
   109  C    6.000005
   110  C    5.999996
   111  N    6.999996
   112  C    5.999726
   113  C    5.999956
   114  C    5.999890
   115  C    5.999886
   116  C    6.000046
   117  C    5.999884
   118  O    7.999840
   119  C    6.000025
   120  C    5.999957
   121  O    7.999981
   122  O    7.999983
   123  C    6.000035
   124  H    1.000034
   125  H    1.000044
   126  H    0.999979
   127  H    0.999962
   128  H    1.000006
   129  H    0.999998
   130  H    1.000044
   131  H    0.999996
   132  H    0.999949
   133  H    1.000055
   134  H    0.999992
   135  H    0.999969
   136  H    1.000083
   137  H    1.000099
   138  H    1.000099
   139  H    1.000067
   140  H    1.000090
   141  H    1.000052
   142  H    1.000022
   143  H    1.000007
   144  H    1.000023
   145  H    0.999986
   146  H    1.000071
   147  H    1.000013
   148  H    0.999972
   149  H    1.000018
   150  H    1.000002
   151  H    0.999999
   152  H    0.999919
   153  H    0.999886
   154  H    0.999924
   155  H    0.999920
   156  H    0.999937
   157  H    0.999943
   158  H    0.999977
 Sum of Mulliken charges = 624.00000

 Dipole moment (field-independent basis, Debye):
    X=              9.2915    Y=             -2.8862    Z=              5.5406  Tot=             11.1965
 Quadrupole moment (field-independent basis, Debye-Ang):
   XX=           -549.6169   YY=             -2.9046   ZZ=              5.9908
   XY=             93.9150   XZ=           -164.2040   YZ=              2.3164

 Normal termination of Gaussian 16 at Wed Sep 22 21:05:09 2021.
