 Gaussian 16, Revision A.03,
 Gaussian 16:  ES64L-G16RevA.03 25-Dec-2016

 -----------------------------------
 #p cam-b3lyp/Def2SVP td=(nstates=5)
 -----------------------------------

 --------------------------------
 TDDFT excited states in gaussian
 --------------------------------
 Symbolic Z-matrix:
 Charge =  0 Multiplicity = 1

                         Standard orientation:
 ---------------------------------------------------------------------
 Center     Atomic      Atomic             Coordinates (Angstroms)
 Number     Number       Type             X           Y           Z
 ---------------------------------------------------------------------
      1         12           0       29.666981   -0.356962    0.016487
      2          6           0       26.731579    1.478372    0.532470
      3          6           0       27.615291   -2.858926   -1.204749
      4          6           0       32.417850   -2.044252   -0.836611
      5          6           0       31.543546    2.556193    0.477375
      6          7           0       27.297988   -0.530486   -0.479177
      7          6           0       26.334844    0.308944   -0.053052
      8          6           0       24.937443   -0.156944   -0.384481
      9          6           0       25.309951   -1.664091   -0.657019
     10          6           0       26.821059   -1.735477   -0.851427
     11          6           0       24.931802   -2.533608    0.571695
     12          6           0       24.312007    0.697812   -1.494075
     13          6           0       25.175544    1.159258   -2.686489
     14          1           0       24.579060    0.929153   -4.070015
     15          7           0       29.978902   -2.173615   -0.870774
     16          6           0       29.000812   -3.082014   -1.177807
     17          6           0       29.611347   -4.411313   -1.309474
     18          6           0       31.047228   -4.202018   -1.366910
     19          6           0       31.183621   -2.759395   -0.999940
     20          6           0       28.786941   -5.693446   -1.712205
     21          6           0       32.114613   -5.241447   -1.718118
     22          8           0       31.821413   -6.396899   -1.851239
     23          6           0       33.551405   -4.826762   -1.852801
     24          7           0       31.705595    0.300453   -0.354202
     25          6           0       32.737099   -0.624114   -0.602234
     26          6           0       34.176612    0.044269   -0.621064
     27          6           0       33.837098    1.529648   -0.124100
     28          6           0       32.251647    1.462674    0.056980
     29          6           0       35.401207   -0.638367    0.170255
     30          6           0       34.322838    2.742369   -1.041896
     31          6           0       34.714153    4.013799   -0.138378
     32          7           0       29.289529    1.645579    0.479965
     33          6           0       30.163604    2.685720    0.722231
     34          6           0       29.408662    3.850247    1.168564
     35          6           0       28.044438    3.461350    1.193179
     36          6           0       28.015181    2.113528    0.682628
     37          6           0       29.978532    5.144163    1.688093
     38          6           0       26.611412    3.851086    1.399005
     39          8           0       26.122871    4.929286    1.653783
     40          6           0       25.772296    2.555749    1.026328
     41          6           0       25.034072    2.149971    2.272294
     42          8           0       24.002311    2.727693    2.697154
     43          8           0       25.576771    0.975401    2.772924
     44          6           0       24.833594    0.352627    3.816884
     45          1           0       26.966095   -3.684315   -1.504588
     46          1           0       33.387899   -2.543184   -0.891221
     47          1           0       32.156925    3.396417    0.809789
     48          1           0       24.297875   -0.174513    0.497783
     49          1           0       24.861024   -2.152354   -1.520923
     50          1           0       25.680883   -3.324493    0.617186
     51          1           0       23.896769   -2.865208    0.502016
     52          1           0       25.049424   -2.118541    1.573180
     53          1           0       24.021009    1.631493   -1.013749
     54          1           0       23.428814    0.176891   -1.864018
     55          1           0       26.111886    0.601849   -2.679511
     56          1           0       25.321158    2.235702   -2.600825
     57          1           0       28.525560   -5.761922   -2.768534
     58          1           0       27.875358   -5.741681   -1.116467
     59          1           0       29.234771   -6.651803   -1.451863
     60          1           0       34.171910   -5.629073   -2.253346
     61          1           0       33.992688   -4.495816   -0.912459
     62          1           0       33.492686   -4.083673   -2.648526
     63          1           0       34.366850    0.021059   -1.693425
     64          1           0       34.241186    1.709996    0.871619
     65          1           0       35.890426   -1.319290   -0.525269
     66          1           0       35.057301   -1.171468    1.056183
     67          1           0       36.075191    0.149894    0.506276
     68          1           0       33.502908    3.127490   -1.648006
     69          1           0       35.130945    2.433902   -1.705614
     70          1           0       34.081178    4.869599   -0.373357
     71          1           0       35.751018    4.288232   -0.330323
     72          1           0       34.564883    3.962879    0.939602
     73          1           0       30.599295    5.583149    0.907772
     74          1           0       30.603768    4.944545    2.558606
     75          1           0       29.204154    5.874011    1.923658
     76          1           0       25.012699    2.927466    0.338982
     77          1           0       25.295152   -0.603046    4.064329
     78          1           0       23.772290    0.305030    3.572407
     79          1           0       24.929638    0.886604    4.762227
     80         12           0      -28.981706    0.338924   -0.571166
     81          6           0      -28.591453   -1.845268    2.038924
     82          6           0      -28.086067    2.885427    1.406844
     83          6           0      -29.645323    2.386703   -3.165269
     84          6           0      -30.437581   -2.377118   -2.500626
     85          7           0      -28.656465    0.505566    1.614774
     86          6           0      -28.428883   -0.507708    2.459192
     87          6           0      -27.949722    0.046020    3.897762
     88          6           0      -27.813568    1.578875    3.564896
     89          6           0      -28.251619    1.715342    2.092727
     90          6           0      -28.542762    2.497169    4.564877
     91          6           0      -26.631579   -0.599533    4.411642
     92          6           0      -25.878613    0.092938    5.594199
     93          1           0      -26.010191   -0.554425    7.024898
     94          7           0      -28.923701    2.385059   -0.825978
     95          6           0      -28.441150    3.245940    0.045801
     96          6           0      -28.457365    4.571898   -0.553161
     97          6           0      -29.012323    4.505406   -1.866505
     98          6           0      -29.215134    3.046626   -2.006465
     99          6           0      -28.108077    5.867084    0.161081
    100          6           0      -29.360666    5.610790   -2.857897
    101          8           0      -30.096059    5.393023   -3.816440
    102          6           0      -28.794581    6.970513   -2.641479
    103          7           0      -29.957428    0.041954   -2.541983
    104          6           0      -30.055341    1.032480   -3.420669
    105          6           0      -30.533379    0.539437   -4.796492
    106          6           0      -30.554151   -0.969645   -4.567697
    107          6           0      -30.335125   -1.095263   -3.106198
    108          6           0      -31.841048    1.118956   -5.356151
    109          6           0      -29.690123   -1.750253   -5.525538
    110          6           0      -30.438249   -2.750851   -6.476926
    111          7           0      -29.378382   -1.654194   -0.348292
    112          6           0      -29.891124   -2.667918   -1.225472
    113          6           0      -29.815010   -3.976067   -0.613092
    114          6           0      -29.286170   -3.642698    0.664873
    115          6           0      -29.061457   -2.263712    0.762229
    116          6           0      -30.038567   -5.340056   -1.164327
    117          6           0      -28.738860   -4.313162    1.817195
    118          8           0      -28.475751   -5.494645    2.086870
    119          6           0      -28.379651   -3.247505    2.822284
    120          6           0      -29.408484   -3.296899    3.973349
    121          8           0      -30.638088   -3.435494    3.884514
    122          8           0      -28.723408   -3.149948    5.142802
    123          6           0      -29.504925   -3.201142    6.418951
    124          1           0      -27.696677    3.775918    1.904718
    125          1           0      -30.071860    2.987612   -3.971144
    126          1           0      -30.758289   -3.163828   -3.185872
    127          1           0      -28.803937   -0.147424    4.545590
    128          1           0      -26.750980    1.821503    3.574368
    129          1           0      -27.873140    3.330834    4.773506
    130          1           0      -28.726685    1.999092    5.516880
    131          1           0      -29.484952    2.854829    4.149418
    132          1           0      -25.920323   -0.475067    3.595126
    133          1           0      -26.817061   -1.627722    4.722118
    134          1           0      -26.346998    1.067320    5.736869
    135          1           0      -24.814544    0.118864    5.361822
    136          1           0      -27.801662    5.683251    1.190823
    137          1           0      -28.977438    6.524054    0.171602
    138          1           0      -27.304702    6.404026   -0.341685
    139          1           0      -27.728781    6.810876   -2.475733
    140          1           0      -29.123785    7.630417   -1.839402
    141          1           0      -28.928986    7.625575   -3.501576
    142          1           0      -29.756738    0.783828   -5.520397
    143          1           0      -31.570259   -1.310039   -4.766300
    144          1           0      -31.638144    1.244554   -6.419422
    145          1           0      -32.116066    2.029939   -4.824772
    146          1           0      -32.722292    0.506246   -5.166416
    147          1           0      -29.091396   -2.383008   -4.871140
    148          1           0      -29.077561   -1.122999   -6.172524
    149          1           0      -31.507667   -2.737429   -6.264850
    150          1           0      -30.061687   -3.749539   -6.253614
    151          1           0      -30.236894   -2.624794   -7.540820
    152          1           0      -30.166243   -5.291433   -2.245410
    153          1           0      -31.011999   -5.644626   -0.781654
    154          1           0      -29.156287   -5.907846   -0.865354
    155          1           0      -27.379835   -3.524541    3.157064
    156          1           0      -30.416020   -2.602398    6.429380
    157          1           0      -28.925805   -2.964965    7.311056
    158          1           0      -29.858033   -4.229181    6.498084
 ---------------------------------------------------------------------

 SCF Done:  E(RCAM-B3LYP) =  -4069.80584968     A.U. after   19 cycles

 Excitation energies and oscillator strengths:

 Excited State   1:      Singlet-A      1.7216 eV  720.18 nm  f=0.3985  <S**2>=0.000
     310 -> 316       -0.17580
     312 -> 314        0.68383
     310 <- 316       -0.10319
 This state for optimization and/or second-order correction.
 Total Energy, E(TD-HF/TD-DFT) =  -4069.74258327
 Copying the excited state density for this state as the 1-particle RhoCI density.

 Excited State   2:      Singlet-A      1.7469 eV  709.75 nm  f=0.3619  <S**2>=0.000
     309 -> 315       -0.19411
     311 -> 313        0.68068
     309 <- 315       -0.10947

 Excited State   3:      Singlet-A      2.2374 eV  554.14 nm  f=0.1044  <S**2>=0.000
     309 -> 313        0.63522
     311 -> 315        0.29910

 Excited State   4:      Singlet-A      2.2690 eV  546.42 nm  f=0.1127  <S**2>=0.000
     310 -> 314        0.63910
     312 -> 316        0.28652

 Excited State   5:      Singlet-A      3.2268 eV  384.24 nm  f=0.0000  <S**2>=0.000
     312 -> 313        0.70711

 The electronic state is 1-A.
 Alpha  occ. eigenvalues --  -46.90410 -46.89174 -19.26055 -19.25610 -19.20028
 Alpha  occ. eigenvalues --  -19.19560 -19.19524 -19.19438 -19.19052 -19.17662
 Alpha  occ. eigenvalues --  -14.42274 -14.42054 -14.41826 -14.41717 -14.40537
 Alpha  occ. eigenvalues --  -14.40073 -14.39488 -14.39264 -10.39989 -10.39540
 Alpha  occ. eigenvalues --  -10.36082 -10.35802 -10.35318 -10.33328 -10.32845
 Alpha  occ. eigenvalues --  -10.32167 -10.31994 -10.31845 -10.31667 -10.31143
 Alpha  occ. eigenvalues --  -10.30955 -10.30864 -10.30600 -10.30475 -10.30370
 Alpha  occ. eigenvalues --  -10.30296 -10.30225 -10.30007 -10.29971 -10.29899
 Alpha  occ. eigenvalues --  -10.29595 -10.29563 -10.29336 -10.29279 -10.28970
 Alpha  occ. eigenvalues --  -10.28790 -10.28568 -10.28553 -10.28539 -10.28456
 Alpha  occ. eigenvalues --  -10.28407 -10.28371 -10.28084 -10.28080 -10.28051
 Alpha  occ. eigenvalues --  -10.28007 -10.27976 -10.27923 -10.27807 -10.27800
 Alpha  occ. eigenvalues --  -10.27759 -10.27756 -10.27735 -10.27525 -10.27479
 Alpha  occ. eigenvalues --  -10.27012 -10.27011 -10.26890 -10.26738 -10.26693
 Alpha  occ. eigenvalues --  -10.26511 -10.26479 -10.26443 -10.26307 -10.26274
 Alpha  occ. eigenvalues --  -10.26244 -10.26232 -10.26231 -10.26212 -10.26190
 Alpha  occ. eigenvalues --  -10.26166 -10.25960 -10.25900 -10.25700 -10.25649
 Alpha  occ. eigenvalues --  -10.24384  -3.18772  -3.17699  -1.93635  -1.93247
 Alpha  occ. eigenvalues --   -1.93062  -1.92590  -1.92148  -1.92012  -1.16472
 Alpha  occ. eigenvalues --   -1.15545  -1.11518  -1.10672  -1.10373  -1.07953
 Alpha  occ. eigenvalues --   -1.07064  -1.06524  -1.05715  -1.04800  -1.04371
 Alpha  occ. eigenvalues --   -1.03901  -1.03862  -1.02977  -1.02941  -1.01911
 Alpha  occ. eigenvalues --   -0.92527  -0.91255  -0.89906  -0.89034  -0.88714
 Alpha  occ. eigenvalues --   -0.88351  -0.88156  -0.87753  -0.87537  -0.87360
 Alpha  occ. eigenvalues --   -0.87141  -0.86988  -0.86063  -0.85679  -0.84865
 Alpha  occ. eigenvalues --   -0.84175  -0.83364  -0.83319  -0.82726  -0.82344
 Alpha  occ. eigenvalues --   -0.82152  -0.81895  -0.81093  -0.80821  -0.80382
 Alpha  occ. eigenvalues --   -0.80025  -0.78521  -0.77551  -0.77542  -0.77304
 Alpha  occ. eigenvalues --   -0.76725  -0.76721  -0.76434  -0.76083  -0.75337
 Alpha  occ. eigenvalues --   -0.75337  -0.72828  -0.72619  -0.72074  -0.71671
 Alpha  occ. eigenvalues --   -0.69947  -0.69430  -0.69418  -0.69097  -0.68235
 Alpha  occ. eigenvalues --   -0.67696  -0.67562  -0.67173  -0.65912  -0.65831
 Alpha  occ. eigenvalues --   -0.64910  -0.64874  -0.64853  -0.64644  -0.64447
 Alpha  occ. eigenvalues --   -0.63929  -0.63733  -0.62622  -0.60716  -0.60045
 Alpha  occ. eigenvalues --   -0.59643  -0.59288  -0.58972  -0.58867  -0.58624
 Alpha  occ. eigenvalues --   -0.58193  -0.57973  -0.57811  -0.57424  -0.57362
 Alpha  occ. eigenvalues --   -0.56309  -0.56296  -0.56107  -0.55646  -0.55506
 Alpha  occ. eigenvalues --   -0.55129  -0.55079  -0.54526  -0.54316  -0.54179
 Alpha  occ. eigenvalues --   -0.53728  -0.53680  -0.53386  -0.53230  -0.53076
 Alpha  occ. eigenvalues --   -0.52802  -0.52786  -0.52559  -0.52151  -0.51945
 Alpha  occ. eigenvalues --   -0.51669  -0.51652  -0.51456  -0.51174  -0.51102
 Alpha  occ. eigenvalues --   -0.51100  -0.50714  -0.50692  -0.50568  -0.50468
 Alpha  occ. eigenvalues --   -0.50062  -0.49955  -0.49954  -0.49776  -0.49733
 Alpha  occ. eigenvalues --   -0.49679  -0.49566  -0.49353  -0.49028  -0.48955
 Alpha  occ. eigenvalues --   -0.48950  -0.48706  -0.48555  -0.48392  -0.48153
 Alpha  occ. eigenvalues --   -0.47779  -0.47644  -0.47586  -0.47329  -0.47287
 Alpha  occ. eigenvalues --   -0.47253  -0.46964  -0.46774  -0.46686  -0.46369
 Alpha  occ. eigenvalues --   -0.46331  -0.46127  -0.46098  -0.45955  -0.45705
 Alpha  occ. eigenvalues --   -0.45573  -0.45341  -0.45220  -0.44970  -0.44899
 Alpha  occ. eigenvalues --   -0.44683  -0.44505  -0.44393  -0.44265  -0.44116
 Alpha  occ. eigenvalues --   -0.43995  -0.43970  -0.43873  -0.43849  -0.43653
 Alpha  occ. eigenvalues --   -0.43580  -0.43400  -0.43282  -0.43000  -0.42908
 Alpha  occ. eigenvalues --   -0.42800  -0.42745  -0.42240  -0.42229  -0.42194
 Alpha  occ. eigenvalues --   -0.42017  -0.42004  -0.41974  -0.41823  -0.41750
 Alpha  occ. eigenvalues --   -0.41515  -0.41250  -0.41083  -0.40825  -0.40413
 Alpha  occ. eigenvalues --   -0.40391  -0.39935  -0.39264  -0.39113  -0.39077
 Alpha  occ. eigenvalues --   -0.38962  -0.38253  -0.38137  -0.37855  -0.37292
 Alpha  occ. eigenvalues --   -0.37207  -0.37039  -0.36799  -0.36666  -0.36334
 Alpha  occ. eigenvalues --   -0.36191  -0.35944  -0.34704  -0.34410  -0.34274
 Alpha  occ. eigenvalues --   -0.33990  -0.33346  -0.33172  -0.31954  -0.31388
 Alpha  occ. eigenvalues --   -0.31221  -0.31095  -0.30919  -0.30624  -0.30577
 Alpha  occ. eigenvalues --   -0.29957  -0.29746  -0.29656  -0.24049  -0.23901
 Alpha  occ. eigenvalues --   -0.21410  -0.21093
 Alpha virt. eigenvalues --   -0.08651  -0.08539  -0.02094  -0.01759   0.00078
 Alpha virt. eigenvalues --    0.00588   0.00748   0.01908   0.01992   0.02563
 Alpha virt. eigenvalues --    0.04419   0.04914   0.05474   0.05691   0.05897

 Mulliken charges:
               1
     1  Mg   0.821351
     2  C    0.141368
     3  C   -0.072429
     4  C   -0.088177
     5  C   -0.079400
     6  N   -0.220288
     7  C   -0.143053
     8  C    0.066470
     9  C   -0.054795
    10  C   -0.010661
    11  C    0.063588
    12  C    0.064037
    13  C   -0.078551
    14  H    0.015473
    15  N   -0.372565
    16  C    0.163242
    17  C   -0.137164
    18  C   -0.058522
    19  C    0.190597
    20  C    0.093535
    21  C   -0.010330
    22  O   -0.168274
    23  C    0.051837
    24  N   -0.300589
    25  C   -0.021018
    26  C   -0.011938
    27  C   -0.040258
    28  C    0.045003
    29  C    0.055027
    30  C    0.036428
    31  C   -0.036870
    32  N   -0.352653
    33  C    0.125110
    34  C   -0.196540
    35  C    0.022514
    36  C    0.045476
    37  C    0.117942
    38  C    0.063996
    39  O   -0.137434
    40  C   -0.139041
    41  C    0.228307
    42  O   -0.237503
    43  O   -0.322909
    44  C    0.183476
    45  H   -0.018135
    46  H   -0.048421
    47  H   -0.045697
    48  H    0.002301
    49  H   -0.000452
    50  H    0.003840
    51  H    0.026695
    52  H    0.004881
    53  H    0.013092
    54  H    0.020335
    55  H    0.050691
    56  H    0.037465
    57  H    0.040189
    58  H    0.005491
    59  H    0.031871
    60  H    0.019359
    61  H    0.059882
    62  H    0.032467
    63  H    0.026040
    64  H    0.015649
    65  H    0.028258
    66  H    0.025964
    67  H    0.028349
    68  H    0.025548
    69  H    0.019007
    70  H    0.017220
    71  H    0.020691
    72  H    0.021744
    73  H    0.015706
    74  H    0.029799
    75  H    0.034184
    76  H    0.055812
    77  H    0.031246
    78  H    0.037695
    79  H    0.027415
    80  Mg   0.832098
    81  C   -0.058949
    82  C   -0.068368
    83  C   -0.048466
    84  C   -0.064232
    85  N   -0.282660
    86  C   -0.070708
    87  C    0.037199
    88  C   -0.103346
    89  C    0.096666
    90  C    0.074352
    91  C    0.030376
    92  C   -0.078904
    93  H   -0.000468
    94  N   -0.351743
    95  C    0.093639
    96  C   -0.163045
    97  C   -0.023576
    98  C    0.114220
    99  C    0.115764
   100  C    0.042806
   101  O   -0.195754
   102  C    0.027071
   103  N   -0.202758
   104  C   -0.029769
   105  C   -0.063757
   106  C   -0.010488
   107  C   -0.014911
   108  C    0.083986
   109  C    0.049329
   110  C   -0.014708
   111  N   -0.364364
   112  C    0.117917
   113  C   -0.165072
   114  C   -0.033217
   115  C    0.166899
   116  C    0.154759
   117  C    0.031393
   118  O   -0.204150
   119  C    0.011461
   120  C    0.227312
   121  O   -0.237193
   122  O   -0.334638
   123  C    0.179439
   124  H   -0.045387
   125  H    0.005815
   126  H   -0.021666
   127  H    0.012728
   128  H    0.012084
   129  H    0.012185
   130  H    0.020276
   131  H    0.026670
   132  H    0.007761
   133  H    0.051200
   134  H    0.027694
   135  H    0.042491
   136  H    0.007546
   137  H    0.029955
   138  H    0.019395
   139  H    0.028811
   140  H    0.041998
   141  H    0.025826
   142  H    0.012607
   143  H   -0.000591
   144  H    0.024223
   145  H    0.022911
   146  H    0.008027
   147  H    0.006257
   148  H    0.012164
   149  H    0.013267
   150  H    0.012264
   151  H    0.019501
   152  H   -0.002872
   153  H    0.041545
   154  H    0.058656
   155  H    0.040264
   156  H    0.041155
   157  H    0.045323
   158  H    0.038476
 Sum of Mulliken charges =  -0.00000

 Dipole moment (field-independent basis, Debye):
    X=              6.8715    Y=              1.8086    Z=              0.0879  Tot=              7.1061
 Quadrupole moment (field-independent basis, Debye-Ang):
   XX=           -379.1584   YY=           -568.5719   ZZ=           -489.0369
   XY=           -154.6548   XZ=             39.2229   YZ=              9.7784

 Normal termination of Gaussian 16 at Thu Sep  2 00:47:47 2021.
