 Gaussian 16, Revision A.03,
 Gaussian 16:  ES64L-G16RevA.03 25-Dec-2016

 -----------------------------------
 #p cam-b3lyp/Def2SVP td=(nstates=5)
 -----------------------------------

 --------------------------------
 TDDFT excited states in gaussian
 --------------------------------
 Symbolic Z-matrix:
 Charge =  0 Multiplicity = 1

                         Standard orientation:
 ---------------------------------------------------------------------
 Center     Atomic      Atomic             Coordinates (Angstroms)
 Number     Number       Type             X           Y           Z
 ---------------------------------------------------------------------
      1         12           0       -9.940921   -0.928632    0.388750
      2          6           0      -10.000024    2.581703   -0.148150
      3          6           0       -7.889043   -0.220029    3.181543
      4          6           0       -9.499079   -4.135531    0.794848
      5          6           0      -11.723506   -1.356852   -2.566857
      6          7           0       -9.020042    1.004756    1.417119
      7          6           0       -9.312272    2.287091    1.021758
      8          6           0       -8.764819    3.343635    1.966395
      9          6           0       -7.975078    2.392682    2.964514
     10          6           0       -8.336461    0.963131    2.532703
     11          6           0       -6.494768    2.759466    3.013167
     12          6           0       -9.914798    4.124511    2.639675
     13          6           0       -9.715013    5.661226    2.927975
     14          1           0       -8.270155    6.211490    2.977033
     15          7           0       -8.907453   -2.045699    1.840607
     16          6           0       -8.067970   -1.559955    2.843517
     17          6           0       -7.546605   -2.710335    3.598579
     18          6           0       -8.100294   -3.867145    2.959111
     19          6           0       -8.906823   -3.338924    1.842191
     20          6           0       -6.610178   -2.585483    4.678396
     21          6           0       -7.900557   -5.336642    3.316097
     22          8           0       -8.371286   -6.237738    2.603924
     23          6           0       -7.295377   -5.725066    4.607686
     24          7           0      -10.441947   -2.523796   -0.787581
     25          6           0      -10.235971   -3.767433   -0.346179
     26          6           0      -10.733522   -4.822762   -1.386661
     27          6           0      -11.599298   -3.935413   -2.336386
     28          6           0      -11.254049   -2.538375   -1.925542
     29          6           0       -9.585264   -5.650151   -2.068856
     30          6           0      -13.094152   -4.285022   -1.978059
     31          6           0      -13.878663   -3.423701   -0.929232
     32          7           0      -10.806414    0.304740   -1.023066
     33          6           0      -11.498769   -0.035794   -2.199241
     34          6           0      -11.829033    1.217050   -2.922900
     35          6           0      -11.212893    2.217320   -2.180033
     36          6           0      -10.637249    1.691255   -1.042894
     37          6           0      -12.367356    1.165428   -4.271220
     38          6           0      -10.892067    3.641177   -2.241255
     39          8           0      -11.173018    4.439211   -3.128333
     40          6           0      -10.051567    3.953071   -0.915320
     41          6           0       -8.718590    4.514082   -1.244204
     42          8           0       -7.673692    3.880020   -1.359422
     43          8           0       -8.831776    5.909908   -1.387528
     44          6           0       -7.700145    6.725054   -1.767356
     45          1           0       -7.467127   -0.087859    4.180424
     46          1           0       -9.407435   -5.220463    0.882779
     47          1           0      -12.314133   -1.617472   -3.447257
     48          1           0       -8.098237    4.048030    1.468131
     49          1           0       -8.325051    2.654656    3.962633
     50          1           0       -6.107392    2.976458    4.008016
     51          1           0       -6.185015    3.592755    2.382421
     52          1           0       -5.947274    1.863931    2.716290
     53          1           0      -10.197666    3.659899    3.584174
     54          1           0      -10.717647    3.945321    1.923693
     55          1           0      -10.087997    5.911119    3.920659
     56          1           0      -10.439612    6.164214    2.287634
     57          1           0       -7.039044   -3.134044    5.517249
     58          1           0       -6.284568   -1.552270    4.795107
     59          1           0       -5.738213   -3.061829    4.229097
     60          1           0       -6.221362   -5.543416    4.657779
     61          1           0       -7.419929   -6.797508    4.756324
     62          1           0       -7.708753   -5.070537    5.374486
     63          1           0      -11.286514   -5.463098   -0.699403
     64          1           0      -11.436492   -4.184016   -3.385397
     65          1           0       -9.457410   -6.603536   -1.556034
     66          1           0       -8.707674   -5.004897   -2.092116
     67          1           0       -9.913450   -5.823757   -3.093540
     68          1           0      -13.185819   -5.361658   -1.833291
     69          1           0      -13.637678   -3.952795   -2.863040
     70          1           0      -14.392285   -4.172435   -0.326861
     71          1           0      -14.633418   -2.780607   -1.383696
     72          1           0      -13.273062   -2.827440   -0.247578
     73          1           0      -11.763232    0.475039   -4.858480
     74          1           0      -12.244058    2.164669   -4.690081
     75          1           0      -13.447379    1.021583   -4.256270
     76          1           0      -10.649406    4.716686   -0.416780
     77          1           0       -7.660744    6.940280   -2.834892
     78          1           0       -6.786270    6.390414   -1.276257
     79          1           0       -7.901854    7.627717   -1.189922
     80         12           0        9.896853   -0.456703   -0.154491
     81          6           0        7.966554    2.344066   -0.181733
     82          6           0       12.602023    1.340866    0.980274
     83          6           0       11.742586   -3.287812   -0.351608
     84          6           0        7.250757   -2.159014   -1.764484
     85          7           0       10.299510    1.666907    0.132442
     86          6           0        9.277298    2.531503    0.370360
     87          6           0        9.702290    3.772465    1.079524
     88          6           0       11.287965    3.484057    1.195626
     89          6           0       11.434070    2.068018    0.743930
     90          6           0       12.162659    4.481264    0.308768
     91          6           0        8.991333    3.817803    2.511770
     92          6           0        8.845556    5.186883    3.179588
     93          1           0        9.596658    6.464467    2.728893
     94          7           0       11.860407   -0.983261    0.337024
     95          6           0       12.832522   -0.068570    0.773854
     96          6           0       14.058548   -0.810530    0.955662
     97          6           0       13.816535   -2.154026    0.603797
     98          6           0       12.410249   -2.172707    0.225341
     99          6           0       15.329728   -0.129739    1.514623
    100          6           0       14.886315   -3.365538    0.537229
    101          8           0       14.551915   -4.542751    0.353351
    102          6           0       16.384412   -3.194649    0.727585
    103          7           0        9.484821   -2.496635   -0.908741
    104          6           0       10.456548   -3.440058   -0.891863
    105          6           0       10.059964   -4.664652   -1.714800
    106          6           0        8.451117   -4.429715   -1.896177
    107          6           0        8.309007   -2.978528   -1.410915
    108          6           0       10.914560   -4.930652   -3.037496
    109          6           0        7.485793   -5.302600   -0.944449
    110          6           0        6.313207   -6.055413   -1.545670
    111          7           0        7.951631   -0.086585   -0.819298
    112          6           0        7.018062   -0.824652   -1.445014
    113          6           0        5.759834   -0.028535   -1.595596
    114          6           0        6.122800    1.220678   -1.038648
    115          6           0        7.498060    1.137040   -0.710593
    116          6           0        4.424290   -0.404261   -2.132909
    117          6           0        5.566701    2.495623   -0.779585
    118          8           0        4.418147    2.934010   -0.995489
    119          6           0        6.739858    3.291483   -0.213172
    120          6           0        6.995837    4.422289   -1.075686
    121          8           0        7.219797    4.475247   -2.244514
    122          8           0        7.055963    5.536913   -0.244513
    123          6           0        7.370935    6.920209   -0.770499
    124          1           0       13.423710    1.786464    1.544135
    125          1           0       12.371141   -4.168506   -0.501414
    126          1           0        6.474347   -2.553187   -2.422559
    127          1           0        9.542783    4.760371    0.647890
    128          1           0       11.632652    3.574120    2.225745
    129          1           0       13.120763    4.779951    0.733487
    130          1           0       11.541879    5.323199    0.002754
    131          1           0       12.408683    3.939498   -0.605083
    132          1           0        9.495965    3.170361    3.229158
    133          1           0        7.997362    3.401312    2.346542
    134          1           0        9.065896    5.020578    4.234812
    135          1           0        7.790851    5.459365    3.181448
    136          1           0       15.192208    0.913680    1.797981
    137          1           0       16.098077   -0.232482    0.749059
    138          1           0       15.653277   -0.717041    2.374290
    139          1           0       16.496051   -2.941169    1.781159
    140          1           0       16.759458   -2.271854    0.284537
    141          1           0       16.923284   -4.027277    0.275887
    142          1           0       10.178903   -5.541737   -1.077539
    143          1           0        8.145956   -4.601666   -2.928550
    144          1           0       10.279324   -4.944369   -3.923468
    145          1           0       11.460343   -5.869191   -2.947684
    146          1           0       11.614833   -4.113654   -3.212999
    147          1           0        7.119478   -4.722619   -0.097500
    148          1           0        8.128512   -6.036767   -0.459576
    149          1           0        5.422906   -5.705299   -1.024448
    150          1           0        6.421725   -7.137520   -1.477871
    151          1           0        6.180282   -5.756097   -2.586248
    152          1           0        4.319516   -1.452977   -2.410481
    153          1           0        4.190143    0.170638   -3.029258
    154          1           0        3.675032   -0.178798   -1.374306
    155          1           0        6.541985    3.655920    0.795283
    156          1           0        7.585877    6.880277   -1.838569
    157          1           0        8.275169    7.296395   -0.290149
    158          1           0        6.484829    7.518256   -0.557934
 ---------------------------------------------------------------------

 SCF Done:  E(RCAM-B3LYP) =  -4069.80877903     A.U. after   19 cycles

 Excitation energies and oscillator strengths:

 Excited State   1:      Singlet-A      1.7388 eV  713.06 nm  f=0.4965  <S**2>=0.000
     309 -> 315        0.18895
     311 -> 313        0.67331
     312 -> 314        0.11436
     309 <- 315        0.10818
 This state for optimization and/or second-order correction.
 Total Energy, E(TD-HF/TD-DFT) =  -4069.74488103
 Copying the excited state density for this state as the 1-particle RhoCI density.

 Excited State   2:      Singlet-A      1.7490 eV  708.88 nm  f=0.2801  <S**2>=0.000
     310 -> 316        0.18720
     311 -> 313       -0.11430
     312 -> 314        0.67166
     310 <- 316        0.10651

 Excited State   3:      Singlet-A      2.2290 eV  556.24 nm  f=0.0966  <S**2>=0.000
     309 -> 313        0.63884
     311 -> 315       -0.29497

 Excited State   4:      Singlet-A      2.2728 eV  545.51 nm  f=0.0738  <S**2>=0.000
     310 -> 314        0.62308
     312 -> 316       -0.32175

 Excited State   5:      Singlet-A      2.8254 eV  438.83 nm  f=0.0000  <S**2>=0.000
     312 -> 313        0.70692

 The electronic state is 1-A.
 Alpha  occ. eigenvalues --  -46.89405 -46.88395 -19.23814 -19.23687 -19.19718
 Alpha  occ. eigenvalues --  -19.19590 -19.19199 -19.19196 -19.18776 -19.18650
 Alpha  occ. eigenvalues --  -14.42483 -14.42008 -14.41674 -14.41178 -14.39577
 Alpha  occ. eigenvalues --  -14.39556 -14.39394 -14.38805 -10.39321 -10.38653
 Alpha  occ. eigenvalues --  -10.36235 -10.35251 -10.35200 -10.34471 -10.31908
 Alpha  occ. eigenvalues --  -10.31753 -10.30999 -10.30888 -10.30679 -10.30665
 Alpha  occ. eigenvalues --  -10.30648 -10.30346 -10.30284 -10.30215 -10.30204
 Alpha  occ. eigenvalues --  -10.30097 -10.29996 -10.29870 -10.29748 -10.29111
 Alpha  occ. eigenvalues --  -10.29079 -10.29045 -10.28926 -10.28854 -10.28777
 Alpha  occ. eigenvalues --  -10.28740 -10.28312 -10.28250 -10.28191 -10.28191
 Alpha  occ. eigenvalues --  -10.28122 -10.27964 -10.27963 -10.27922 -10.27835
 Alpha  occ. eigenvalues --  -10.27518 -10.27485 -10.27471 -10.27462 -10.27405
 Alpha  occ. eigenvalues --  -10.27369 -10.27348 -10.27258 -10.27150 -10.27137
 Alpha  occ. eigenvalues --  -10.27049 -10.26931 -10.26689 -10.26668 -10.26437
 Alpha  occ. eigenvalues --  -10.26433 -10.26325 -10.26286 -10.26184 -10.26177
 Alpha  occ. eigenvalues --  -10.26118 -10.26062 -10.25896 -10.25665 -10.25359
 Alpha  occ. eigenvalues --  -10.25205 -10.25197 -10.25174 -10.24988 -10.24747
 Alpha  occ. eigenvalues --  -10.24582  -3.17812  -3.16938  -1.92731  -1.92249
 Alpha  occ. eigenvalues --   -1.92123  -1.91845  -1.91405  -1.91226  -1.15633
 Alpha  occ. eigenvalues --   -1.14488  -1.09534  -1.09520  -1.09119  -1.08322
 Alpha  occ. eigenvalues --   -1.07204  -1.07079  -1.05566  -1.04645  -1.04465
 Alpha  occ. eigenvalues --   -1.03927  -1.03580  -1.02988  -1.02632  -1.01261
 Alpha  occ. eigenvalues --   -0.93497  -0.91857  -0.89778  -0.88611  -0.88530
 Alpha  occ. eigenvalues --   -0.88291  -0.88278  -0.87521  -0.87217  -0.87064
 Alpha  occ. eigenvalues --   -0.86906  -0.86628  -0.86223  -0.86073  -0.84331
 Alpha  occ. eigenvalues --   -0.84012  -0.83479  -0.83180  -0.82549  -0.82371
 Alpha  occ. eigenvalues --   -0.81883  -0.81615  -0.81192  -0.80717  -0.80314
 Alpha  occ. eigenvalues --   -0.80304  -0.78843  -0.78412  -0.77475  -0.77127
 Alpha  occ. eigenvalues --   -0.77001  -0.76724  -0.76206  -0.75646  -0.75189
 Alpha  occ. eigenvalues --   -0.74664  -0.72589  -0.72011  -0.71989  -0.71185
 Alpha  occ. eigenvalues --   -0.69260  -0.69140  -0.68783  -0.68646  -0.68233
 Alpha  occ. eigenvalues --   -0.67721  -0.66601  -0.65992  -0.65341  -0.65213
 Alpha  occ. eigenvalues --   -0.64874  -0.64570  -0.64518  -0.64350  -0.64257
 Alpha  occ. eigenvalues --   -0.64059  -0.61819  -0.61387  -0.60452  -0.60225
 Alpha  occ. eigenvalues --   -0.59930  -0.59235  -0.59187  -0.58925  -0.58798
 Alpha  occ. eigenvalues --   -0.58477  -0.57931  -0.57757  -0.57757  -0.57039
 Alpha  occ. eigenvalues --   -0.56171  -0.56028  -0.55506  -0.55376  -0.55297
 Alpha  occ. eigenvalues --   -0.55183  -0.54237  -0.54169  -0.53855  -0.53781
 Alpha  occ. eigenvalues --   -0.53706  -0.53210  -0.53052  -0.53026  -0.52976
 Alpha  occ. eigenvalues --   -0.52768  -0.52620  -0.52229  -0.52206  -0.52142
 Alpha  occ. eigenvalues --   -0.51696  -0.51688  -0.51634  -0.51412  -0.51370
 Alpha  occ. eigenvalues --   -0.51183  -0.50804  -0.50673  -0.50547  -0.50488
 Alpha  occ. eigenvalues --   -0.49808  -0.49804  -0.49701  -0.49648  -0.49447
 Alpha  occ. eigenvalues --   -0.49398  -0.49128  -0.48925  -0.48919  -0.48777
 Alpha  occ. eigenvalues --   -0.48386  -0.48309  -0.48282  -0.48144  -0.47965
 Alpha  occ. eigenvalues --   -0.47956  -0.47617  -0.47480  -0.47268  -0.47230
 Alpha  occ. eigenvalues --   -0.46925  -0.46811  -0.46598  -0.46571  -0.46457
 Alpha  occ. eigenvalues --   -0.46247  -0.46172  -0.45983  -0.45866  -0.45582
 Alpha  occ. eigenvalues --   -0.45294  -0.45183  -0.44875  -0.44688  -0.44506
 Alpha  occ. eigenvalues --   -0.44353  -0.44265  -0.44130  -0.44123  -0.43983
 Alpha  occ. eigenvalues --   -0.43940  -0.43905  -0.43807  -0.43693  -0.43553
 Alpha  occ. eigenvalues --   -0.43298  -0.43193  -0.43144  -0.42822  -0.42685
 Alpha  occ. eigenvalues --   -0.42432  -0.42329  -0.41816  -0.41759  -0.41634
 Alpha  occ. eigenvalues --   -0.41592  -0.41301  -0.41207  -0.41137  -0.41058
 Alpha  occ. eigenvalues --   -0.40919  -0.40818  -0.40492  -0.40232  -0.40209
 Alpha  occ. eigenvalues --   -0.39757  -0.39725  -0.39421  -0.39230  -0.38446
 Alpha  occ. eigenvalues --   -0.38422  -0.37790  -0.37633  -0.37551  -0.37306
 Alpha  occ. eigenvalues --   -0.36993  -0.36766  -0.36585  -0.36517  -0.36078
 Alpha  occ. eigenvalues --   -0.35946  -0.35565  -0.34491  -0.34234  -0.34023
 Alpha  occ. eigenvalues --   -0.33904  -0.33175  -0.33158  -0.31249  -0.31104
 Alpha  occ. eigenvalues --   -0.31103  -0.31023  -0.30844  -0.30694  -0.30174
 Alpha  occ. eigenvalues --   -0.30050  -0.30043  -0.29225  -0.23836  -0.23763
 Alpha  occ. eigenvalues --   -0.21135  -0.20666
 Alpha virt. eigenvalues --   -0.08516  -0.08028  -0.01706  -0.01588  -0.00003
 Alpha virt. eigenvalues --    0.00353   0.02297   0.02303   0.02778   0.03439
 Alpha virt. eigenvalues --    0.04649   0.04981   0.05230   0.05326   0.05860

 Mulliken charges:
               1
     1  Mg   0.821170
     2  C    0.030453
     3  C   -0.107467
     4  C   -0.061882
     5  C   -0.079865
     6  N   -0.200741
     7  C   -0.088385
     8  C   -0.039335
     9  C   -0.030791
    10  C    0.038638
    11  C    0.062834
    12  C    0.035519
    13  C   -0.045817
    14  H    0.028468
    15  N   -0.333862
    16  C    0.142468
    17  C   -0.171143
    18  C   -0.049031
    19  C    0.118383
    20  C    0.141103
    21  C    0.013084
    22  O   -0.220468
    23  C    0.057357
    24  N   -0.336826
    25  C    0.016378
    26  C   -0.060033
    27  C    0.004201
    28  C    0.025611
    29  C    0.091686
    30  C   -0.015076
    31  C    0.015253
    32  N   -0.395373
    33  C    0.152246
    34  C   -0.185283
    35  C    0.030616
    36  C    0.122696
    37  C    0.129682
    38  C    0.041259
    39  O   -0.160912
    40  C   -0.039197
    41  C    0.232517
    42  O   -0.216330
    43  O   -0.361940
    44  C    0.186839
    45  H   -0.014670
    46  H   -0.010940
    47  H   -0.032623
    48  H    0.025047
    49  H    0.001858
    50  H    0.002886
    51  H    0.024793
    52  H    0.006431
    53  H    0.006474
    54  H    0.011455
    55  H    0.020634
    56  H    0.029958
    57  H    0.039770
    58  H    0.014678
    59  H    0.038043
    60  H    0.028100
    61  H    0.036706
    62  H    0.029740
    63  H    0.014293
    64  H    0.008448
    65  H    0.034081
    66  H    0.027644
    67  H    0.007388
    68  H    0.020464
    69  H    0.002167
    70  H    0.010268
    71  H    0.021347
    72  H    0.027606
    73  H    0.036558
    74  H    0.019198
    75  H    0.021485
    76  H    0.045089
    77  H    0.053793
    78  H    0.031052
    79  H    0.022076
    80  Mg   0.811894
    81  C   -0.074136
    82  C   -0.059216
    83  C   -0.048964
    84  C   -0.095291
    85  N   -0.287455
    86  C   -0.007322
    87  C   -0.035591
    88  C   -0.060078
    89  C    0.073544
    90  C    0.067929
    91  C    0.021933
    92  C   -0.043564
    93  H    0.021884
    94  N   -0.352725
    95  C    0.090752
    96  C   -0.158012
    97  C   -0.044765
    98  C    0.100172
    99  C    0.108438
   100  C    0.033395
   101  O   -0.220460
   102  C    0.070305
   103  N   -0.263477
   104  C    0.011685
   105  C   -0.016191
   106  C   -0.070678
   107  C    0.089860
   108  C    0.065456
   109  C    0.016637
   110  C    0.018709
   111  N   -0.299351
   112  C    0.080580
   113  C   -0.145570
   114  C   -0.016594
   115  C    0.164980
   116  C    0.124123
   117  C    0.057477
   118  O   -0.192994
   119  C    0.017362
   120  C    0.186411
   121  O   -0.169543
   122  O   -0.386355
   123  C    0.166628
   124  H   -0.032825
   125  H   -0.011507
   126  H   -0.026619
   127  H    0.021775
   128  H    0.005596
   129  H    0.022374
   130  H    0.011911
   131  H    0.017043
   132  H    0.008595
   133  H    0.010027
   134  H    0.019844
   135  H    0.030352
   136  H    0.019194
   137  H    0.030241
   138  H    0.026359
   139  H    0.033344
   140  H    0.005468
   141  H    0.050269
   142  H    0.010883
   143  H    0.010830
   144  H    0.012134
   145  H    0.028765
   146  H    0.024183
   147  H    0.014519
   148  H   -0.003761
   149  H    0.015191
   150  H    0.026202
   151  H    0.004829
   152  H    0.001784
   153  H    0.042687
   154  H    0.040926
   155  H    0.039386
   156  H    0.049556
   157  H    0.037218
   158  H    0.051407
 Sum of Mulliken charges =  -0.00000

 Dipole moment (field-independent basis, Debye):
    X=              3.8210    Y=             -0.2538    Z=              6.7585  Tot=              7.7680
 Quadrupole moment (field-independent basis, Debye-Ang):
   XX=           -462.6653   YY=           -508.1687   ZZ=           -493.2788
   XY=             50.1630   XZ=             -8.1284   YZ=             37.4125

 Normal termination of Gaussian 16 at Wed Sep 15 06:04:39 2021.
