 Gaussian 16, Revision A.03,
 Gaussian 16:  ES64L-G16RevA.03 25-Dec-2016

 ----------------------------------------------------------
 #p cam-b3lyp/Def2SVP td=(nstates=5) density=(transition=1)
 ----------------------------------------------------------

 --------------------------------
 TDDFT excited states in gaussian
 --------------------------------
 Symbolic Z-matrix:
 Charge =  0 Multiplicity = 1

                         Standard orientation:
 ---------------------------------------------------------------------
 Center     Atomic      Atomic             Coordinates (Angstroms)
 Number     Number       Type             X           Y           Z
 ---------------------------------------------------------------------
      1         12           0      -31.929187    0.053518    0.081818
      2          6           0      -28.582610   -0.660001    0.682198
      3          6           0      -30.934284    3.489443   -0.045204
      4          6           0      -34.940439    0.843303   -0.973586
      5          6           0      -32.487773   -3.376294   -0.449309
      6          7           0      -29.963253    1.233155    0.175999
      7          6           0      -28.752211    0.680394    0.527580
      8          6           0      -27.672245    1.764685    0.575061
      9          6           0      -28.528034    3.060968    0.613847
     10          6           0      -29.895401    2.598888    0.183619
     11          6           0      -28.628725    3.857806    1.973511
     12          6           0      -26.704612    1.705106   -0.618316
     13          6           0      -25.539250    2.615989   -0.545025
     14          1           0      -24.281329    2.244808   -1.419642
     15          7           0      -32.844456    1.924510   -0.461091
     16          6           0      -32.282018    3.209782   -0.418195
     17          6           0      -33.288803    4.149550   -0.826020
     18          6           0      -34.437821    3.378378   -1.237316
     19          6           0      -34.104739    1.959908   -0.865325
     20          6           0      -33.022839    5.675949   -0.941197
     21          6           0      -35.697339    4.020443   -1.827537
     22          8           0      -35.856632    5.229695   -1.846135
     23          6           0      -36.755573    3.146147   -2.383626
     24          7           0      -33.549267   -1.135077   -0.398222
     25          6           0      -34.696102   -0.551900   -0.763117
     26          6           0      -35.724760   -1.652952   -1.246129
     27          6           0      -34.961439   -3.029571   -1.148865
     28          6           0      -33.508622   -2.480598   -0.669395
     29          6           0      -37.132112   -1.655252   -0.593436
     30          6           0      -34.890560   -3.700580   -2.537290
     31          6           0      -34.841372   -5.233219   -2.520258
     32          7           0      -30.821055   -1.730131    0.095331
     33          6           0      -31.189375   -3.042202   -0.009257
     34          6           0      -30.031944   -3.877599    0.332708
     35          6           0      -29.050140   -2.992696    0.689618
     36          6           0      -29.520327   -1.716687    0.476616
     37          6           0      -30.015694   -5.407507    0.413148
     38          6           0      -27.685641   -2.895899    1.113182
     39          8           0      -26.866133   -3.733234    1.400683
     40          6           0      -27.329039   -1.372039    1.140217
     41          6           0      -27.032029   -1.006053    2.552409
     42          8           0      -27.695293   -1.253124    3.521164
     43          8           0      -25.893567   -0.181714    2.569624
     44          6           0      -25.516171    0.328339    3.857009
     45          1           0      -30.553154    4.509451    0.031293
     46          1           0      -35.976222    0.951425   -1.303492
     47          1           0      -32.644370   -4.453603   -0.536415
     48          1           0      -27.186264    1.655944    1.543702
     49          1           0      -28.276275    3.820075   -0.125918
     50          1           0      -28.374106    4.880581    1.696478
     51          1           0      -28.235398    3.383116    2.872835
     52          1           0      -29.689572    3.910431    2.217886
     53          1           0      -27.122453    2.006676   -1.579202
     54          1           0      -26.352766    0.682850   -0.757669
     55          1           0      -25.250558    2.667685    0.504777
     56          1           0      -25.864556    3.624069   -0.801443
     57          1           0      -32.963697    5.717862   -2.029252
     58          1           0      -32.039432    6.015754   -0.615688
     59          1           0      -33.707002    6.436441   -0.564351
     60          1           0      -36.224240    2.461109   -3.044303
     61          1           0      -37.415178    3.755953   -3.001218
     62          1           0      -37.185550    2.676989   -1.498348
     63          1           0      -35.920707   -1.423739   -2.293967
     64          1           0      -35.349225   -3.723693   -0.403944
     65          1           0      -37.842051   -1.266832   -1.324345
     66          1           0      -37.079641   -1.103305    0.344434
     67          1           0      -37.459231   -2.681919   -0.429092
     68          1           0      -33.993366   -3.288631   -2.998587
     69          1           0      -35.676044   -3.385328   -3.224410
     70          1           0      -35.706260   -5.509658   -3.124268
     71          1           0      -34.832904   -5.676279   -1.524324
     72          1           0      -33.960760   -5.588859   -3.055321
     73          1           0      -29.155977   -5.906834   -0.032458
     74          1           0      -30.951883   -5.665235   -0.082622
     75          1           0      -30.232319   -5.653765    1.452753
     76          1           0      -26.451024   -1.253439    0.505182
     77          1           0      -24.597078   -0.188300    4.133662
     78          1           0      -26.219181    0.260251    4.687563
     79          1           0      -25.330921    1.395670    3.739299
     80         12           0       31.892927   -0.134970   -0.369484
     81          6           0       29.357384   -1.224735    1.776576
     82          6           0       32.489184    2.455861    1.830243
     83          6           0       33.863229    1.361272   -2.721129
     84          6           0       30.737823   -2.371358   -2.747990
     85          7           0       31.066508    0.427116    1.576773
     86          6           0       30.213630   -0.278032    2.330882
     87          6           0       30.118873    0.181811    3.793057
     88          6           0       30.992567    1.494120    3.762894
     89          6           0       31.677179    1.448619    2.284936
     90          6           0       30.267801    2.831958    4.024810
     91          6           0       30.578532   -0.854715    4.818559
     92          6           0       29.917084   -0.680689    6.197790
     93          1           0       28.927740    0.472746    6.416161
     94          7           0       33.108091    1.585153   -0.421040
     95          6           0       33.277396    2.514422    0.631180
     96          6           0       34.247526    3.505530    0.210970
     97          6           0       34.619208    3.239173   -1.159513
     98          6           0       33.895541    2.011301   -1.485519
     99          6           0       34.771622    4.534089    1.174954
    100          6           0       35.696379    3.948993   -2.096641
    101          8           0       36.014637    3.536762   -3.185617
    102          6           0       36.319430    5.218884   -1.558830
    103          7           0       32.175648   -0.395101   -2.440876
    104          6           0       33.065224    0.307052   -3.200301
    105          6           0       33.136201   -0.223718   -4.679469
    106          6           0       32.195590   -1.425581   -4.609136
    107          6           0       31.673432   -1.384923   -3.185299
    108          6           0       32.906932    0.737358   -5.914774
    109          6           0       32.944310   -2.742170   -4.922702
    110          6           0       33.747516   -3.430526   -3.796899
    111          7           0       30.460025   -1.657846   -0.493898
    112          6           0       30.096824   -2.489656   -1.521198
    113          6           0       29.049154   -3.370668   -1.126818
    114          6           0       28.692284   -2.903051    0.217124
    115          6           0       29.534488   -1.899562    0.500997
    116          6           0       28.386833   -4.472092   -1.828987
    117          6           0       27.736148   -3.021745    1.309231
    118          8           0       26.840387   -3.852629    1.493775
    119          6           0       28.107177   -1.957028    2.383159
    120          6           0       26.989521   -1.059175    2.655793
    121          8           0       26.629940   -0.119888    1.953879
    122          8           0       26.255257   -1.560062    3.701396
    123          6           0       24.870671   -1.094675    3.912146
    124          1           0       32.590476    3.252024    2.571009
    125          1           0       34.623847    1.719577   -3.417886
    126          1           0       30.436068   -3.141925   -3.460414
    127          1           0       29.119519    0.542001    4.036254
    128          1           0       31.881207    1.436749    4.390470
    129          1           0       30.888555    3.234348    4.825143
    130          1           0       29.249252    2.657250    4.370596
    131          1           0       30.246829    3.438938    3.119611
    132          1           0       31.661196   -0.859686    4.938797
    133          1           0       30.336563   -1.859437    4.470992
    134          1           0       30.799744   -0.566479    6.827390
    135          1           0       29.470908   -1.609809    6.555295
    136          1           0       34.135835    4.455277    2.056881
    137          1           0       34.707050    5.519400    0.712843
    138          1           0       35.817806    4.375992    1.441147
    139          1           0       35.704484    6.119314   -1.573864
    140          1           0       37.257859    5.377043   -2.090269
    141          1           0       36.547049    4.935576   -0.531258
    142          1           0       34.183914   -0.517960   -4.736921
    143          1           0       31.410221   -1.242300   -5.341531
    144          1           0       32.210285    0.359699   -6.662281
    145          1           0       33.856546    0.845001   -6.437972
    146          1           0       32.626416    1.715709   -5.523458
    147          1           0       33.597037   -2.506652   -5.762413
    148          1           0       32.171783   -3.414244   -5.297514
    149          1           0       34.664716   -3.762451   -4.282720
    150          1           0       33.259995   -4.321036   -3.400809
    151          1           0       33.916512   -2.807411   -2.919387
    152          1           0       28.250355   -5.283066   -1.114442
    153          1           0       28.907459   -4.851570   -2.708271
    154          1           0       27.355228   -4.201112   -2.054352
    155          1           0       28.391734   -2.549816    3.252359
    156          1           0       24.586016   -0.314922    3.204851
    157          1           0       24.815598   -0.664462    4.912440
    158          1           0       24.319660   -2.023740    3.770419
 ---------------------------------------------------------------------

 SCF Done:  E(RCAM-B3LYP) =  -4069.82832810     A.U. after   19 cycles

 Excitation energies and oscillator strengths:

 Excited State   1:      Singlet-A      1.7177 eV  721.80 nm  f=0.4105  <S**2>=0.000
     310 -> 316        0.18152
     312 -> 314        0.68398
     310 <- 316        0.10677
 This state for optimization and/or second-order correction.
 Total Energy, E(TD-HF/TD-DFT) =  -4069.76520340
 Copying the excited state density for this state as the 1-particle RhoCI density.

 Excited State   2:      Singlet-A      1.7655 eV  702.26 nm  f=0.3966  <S**2>=0.000
     309 -> 315       -0.17238
     311 -> 313        0.68747
     309 <- 315       -0.10344

 Excited State   3:      Singlet-A      2.1355 eV  580.60 nm  f=0.1576  <S**2>=0.000
     310 -> 314        0.65932
     312 -> 316       -0.23565

 Excited State   4:      Singlet-A      2.2942 eV  540.41 nm  f=0.1178  <S**2>=0.000
     309 -> 313        0.63734
     311 -> 315        0.29069

 Excited State   5:      Singlet-A      3.1932 eV  388.28 nm  f=0.0000  <S**2>=0.000
     312 -> 313        0.70711

 The electronic state is 1-A.
 Alpha  occ. eigenvalues --  -46.89659 -46.88233 -19.24942 -19.23864 -19.20494
 Alpha  occ. eigenvalues --  -19.19934 -19.18975 -19.18695 -19.18690 -19.18525
 Alpha  occ. eigenvalues --  -14.42656 -14.42343 -14.42269 -14.41881 -14.40225
 Alpha  occ. eigenvalues --  -14.39420 -14.39093 -14.38153 -10.39503 -10.38672
 Alpha  occ. eigenvalues --  -10.36177 -10.35074 -10.34858 -10.34152 -10.32359
 Alpha  occ. eigenvalues --  -10.31592 -10.31222 -10.31175 -10.31157 -10.31117
 Alpha  occ. eigenvalues --  -10.31075 -10.30875 -10.30869 -10.30699 -10.30662
 Alpha  occ. eigenvalues --  -10.30560 -10.30307 -10.29861 -10.29541 -10.29231
 Alpha  occ. eigenvalues --  -10.28863 -10.28842 -10.28585 -10.28566 -10.28346
 Alpha  occ. eigenvalues --  -10.28261 -10.28246 -10.28229 -10.28185 -10.28167
 Alpha  occ. eigenvalues --  -10.28143 -10.28100 -10.27901 -10.27786 -10.27765
 Alpha  occ. eigenvalues --  -10.27744 -10.27741 -10.27651 -10.27565 -10.27559
 Alpha  occ. eigenvalues --  -10.27523 -10.27412 -10.27410 -10.27114 -10.26991
 Alpha  occ. eigenvalues --  -10.26937 -10.26919 -10.26903 -10.26797 -10.26581
 Alpha  occ. eigenvalues --  -10.26534 -10.26497 -10.26402 -10.26336 -10.26313
 Alpha  occ. eigenvalues --  -10.26239 -10.26075 -10.26057 -10.25973 -10.25908
 Alpha  occ. eigenvalues --  -10.25838 -10.25787 -10.25624 -10.25461 -10.24748
 Alpha  occ. eigenvalues --  -10.23982  -3.18080  -3.16758  -1.92987  -1.92538
 Alpha  occ. eigenvalues --   -1.92368  -1.91659  -1.91211  -1.91064  -1.16617
 Alpha  occ. eigenvalues --   -1.15079  -1.11572  -1.10335  -1.10116  -1.08855
 Alpha  occ. eigenvalues --   -1.08827  -1.06634  -1.04592  -1.04440  -1.03788
 Alpha  occ. eigenvalues --   -1.03720  -1.03318  -1.02822  -1.02437  -1.01011
 Alpha  occ. eigenvalues --   -0.93264  -0.92065  -0.89413  -0.89232  -0.89172
 Alpha  occ. eigenvalues --   -0.88837  -0.88798  -0.88129  -0.88092  -0.87085
 Alpha  occ. eigenvalues --   -0.86458  -0.86449  -0.86078  -0.85947  -0.85212
 Alpha  occ. eigenvalues --   -0.84191  -0.84047  -0.83428  -0.83162  -0.82586
 Alpha  occ. eigenvalues --   -0.82329  -0.81956  -0.81299  -0.80991  -0.80851
 Alpha  occ. eigenvalues --   -0.80162  -0.78118  -0.77759  -0.77350  -0.77130
 Alpha  occ. eigenvalues --   -0.77111  -0.76829  -0.76204  -0.75891  -0.75525
 Alpha  occ. eigenvalues --   -0.75004  -0.73246  -0.72422  -0.72045  -0.71084
 Alpha  occ. eigenvalues --   -0.69810  -0.69335  -0.69071  -0.68439  -0.67787
 Alpha  occ. eigenvalues --   -0.67677  -0.66765  -0.66097  -0.66069  -0.65579
 Alpha  occ. eigenvalues --   -0.64979  -0.64757  -0.64692  -0.64614  -0.64433
 Alpha  occ. eigenvalues --   -0.63717  -0.62696  -0.61391  -0.60239  -0.59897
 Alpha  occ. eigenvalues --   -0.59762  -0.59312  -0.59082  -0.59073  -0.58854
 Alpha  occ. eigenvalues --   -0.58458  -0.58307  -0.57658  -0.57572  -0.57401
 Alpha  occ. eigenvalues --   -0.56504  -0.55902  -0.55847  -0.55476  -0.55427
 Alpha  occ. eigenvalues --   -0.55162  -0.54928  -0.54653  -0.54387  -0.54025
 Alpha  occ. eigenvalues --   -0.53696  -0.53572  -0.53340  -0.53318  -0.53149
 Alpha  occ. eigenvalues --   -0.52859  -0.52670  -0.52645  -0.52317  -0.52125
 Alpha  occ. eigenvalues --   -0.51968  -0.51905  -0.51723  -0.51656  -0.51602
 Alpha  occ. eigenvalues --   -0.50841  -0.50794  -0.50736  -0.50628  -0.50366
 Alpha  occ. eigenvalues --   -0.50286  -0.50215  -0.49876  -0.49661  -0.49573
 Alpha  occ. eigenvalues --   -0.49357  -0.49317  -0.49051  -0.49046  -0.48993
 Alpha  occ. eigenvalues --   -0.48859  -0.48533  -0.48297  -0.48221  -0.48120
 Alpha  occ. eigenvalues --   -0.48102  -0.47614  -0.47539  -0.47379  -0.47154
 Alpha  occ. eigenvalues --   -0.47103  -0.47094  -0.46737  -0.46466  -0.46402
 Alpha  occ. eigenvalues --   -0.46247  -0.46147  -0.46116  -0.45817  -0.45807
 Alpha  occ. eigenvalues --   -0.45637  -0.45326  -0.45237  -0.45131  -0.45019
 Alpha  occ. eigenvalues --   -0.44674  -0.44633  -0.44258  -0.44166  -0.43957
 Alpha  occ. eigenvalues --   -0.43913  -0.43693  -0.43632  -0.43397  -0.43317
 Alpha  occ. eigenvalues --   -0.43236  -0.43177  -0.43047  -0.42956  -0.42779
 Alpha  occ. eigenvalues --   -0.42714  -0.42664  -0.42381  -0.42354  -0.42294
 Alpha  occ. eigenvalues --   -0.42033  -0.41918  -0.41862  -0.41540  -0.41489
 Alpha  occ. eigenvalues --   -0.41088  -0.40875  -0.40609  -0.40604  -0.40263
 Alpha  occ. eigenvalues --   -0.40221  -0.39917  -0.39905  -0.39714  -0.38818
 Alpha  occ. eigenvalues --   -0.38505  -0.38381  -0.38045  -0.37831  -0.37679
 Alpha  occ. eigenvalues --   -0.37674  -0.36905  -0.36618  -0.36518  -0.36112
 Alpha  occ. eigenvalues --   -0.36089  -0.35662  -0.35247  -0.34309  -0.34245
 Alpha  occ. eigenvalues --   -0.33790  -0.33723  -0.33265  -0.31763  -0.31594
 Alpha  occ. eigenvalues --   -0.31035  -0.30873  -0.30806  -0.30654  -0.30122
 Alpha  occ. eigenvalues --   -0.29947  -0.29594  -0.28644  -0.24667  -0.23503
 Alpha  occ. eigenvalues --   -0.21662  -0.21307
 Alpha virt. eigenvalues --   -0.09031  -0.08903  -0.01938  -0.01302   0.00613
 Alpha virt. eigenvalues --    0.00920   0.02035   0.02502   0.02620   0.02730
 Alpha virt. eigenvalues --    0.04417   0.05152   0.05342   0.05401   0.05825

 Mulliken charges:
               1
     1  Mg  11.999993
     2  C    6.000041
     3  C    5.999933
     4  C    5.999935
     5  C    6.000062
     6  N    7.000003
     7  C    5.999924
     8  C    6.000028
     9  C    5.999979
    10  C    6.000110
    11  C    5.999988
    12  C    6.000009
    13  C    6.000015
    14  H    0.999958
    15  N    6.999996
    16  C    6.000211
    17  C    6.000039
    18  C    6.000083
    19  C    6.000141
    20  C    5.999967
    21  C    6.000051
    22  O    8.000098
    23  C    5.999981
    24  N    6.999983
    25  C    6.000123
    26  C    5.999968
    27  C    6.000022
    28  C    5.999900
    29  C    5.999989
    30  C    6.000023
    31  C    6.000005
    32  N    6.999969
    33  C    5.999825
    34  C    5.999908
    35  C    5.999976
    36  C    5.999874
    37  C    6.000032
    38  C    5.999907
    39  O    7.999864
    40  C    6.000009
    41  C    5.999969
    42  O    7.999994
    43  O    7.999988
    44  C    6.000017
    45  H    1.000059
    46  H    1.000044
    47  H    0.999964
    48  H    0.999996
    49  H    0.999998
    50  H    1.000020
    51  H    1.000056
    52  H    0.999996
    53  H    0.999968
    54  H    1.000023
    55  H    0.999996
    56  H    0.999981
    57  H    1.000069
    58  H    1.000080
    59  H    1.000095
    60  H    1.000032
    61  H    1.000076
    62  H    1.000042
    63  H    1.000004
    64  H    0.999997
    65  H    1.000010
    66  H    1.000002
    67  H    1.000052
    68  H    0.999992
    69  H    0.999966
    70  H    0.999988
    71  H    1.000005
    72  H    0.999999
    73  H    0.999898
    74  H    0.999930
    75  H    0.999907
    76  H    0.999942
    77  H    0.999959
    78  H    0.999993
    79  H    0.999972
    80  Mg  12.003035
    81  C    5.978748
    82  C    6.020919
    83  C    6.023422
    84  C    5.993672
    85  N    6.993764
    86  C    6.035427
    87  C    5.985261
    88  C    6.002718
    89  C    5.971127
    90  C    6.002968
    91  C    5.997675
    92  C    5.998720
    93  H    1.004723
    94  N    7.005478
    95  C    5.953773
    96  C    5.981568
    97  C    5.978979
    98  C    5.964580
    99  C    6.006233
   100  C    5.985880
   101  O    7.973728
   102  C    6.004590
   103  N    7.007832
   104  C    5.960239
   105  C    6.009913
   106  C    5.988324
   107  C    6.031944
   108  C    5.998492
   109  C    5.994998
   110  C    5.993234
   111  N    6.999228
   112  C    6.030092
   113  C    6.039075
   114  C    6.002198
   115  C    6.025390
   116  C    5.992416
   117  C    6.013409
   118  O    8.026579
   119  C    6.002411
   120  C    6.005239
   121  O    8.006722
   122  O    8.000456
   123  C    5.998187
   124  H    0.989655
   125  H    0.994036
   126  H    1.011034
   127  H    1.001799
   128  H    1.000943
   129  H    0.998677
   130  H    0.987099
   131  H    1.003113
   132  H    1.008910
   133  H    0.992006
   134  H    1.004691
   135  H    0.997675
   136  H    0.981144
   137  H    0.980003
   138  H    0.977812
   139  H    0.989487
   140  H    0.984655
   141  H    0.997954
   142  H    1.001323
   143  H    1.004076
   144  H    0.989515
   145  H    0.999984
   146  H    1.004045
   147  H    1.012463
   148  H    0.996838
   149  H    1.008838
   150  H    0.994393
   151  H    1.007572
   152  H    1.021720
   153  H    1.021592
   154  H    1.026186
   155  H    1.007362
   156  H    1.003514
   157  H    1.006363
   158  H    1.000155
 Sum of Mulliken charges = 624.00000

 Dipole moment (field-independent basis, Debye):
    X=             -7.2344    Y=             -8.5797    Z=             -0.3205  Tot=             11.2272
 Quadrupole moment (field-independent basis, Debye-Ang):
   XX=           -452.9921   YY=             -1.9612   ZZ=              1.1034
   XY=           -275.9049   XZ=             -6.9304   YZ=              5.3967

 Normal termination of Gaussian 16 at Thu Sep 23 12:11:51 2021.
