 Gaussian 16, Revision A.03,
 Gaussian 16:  ES64L-G16RevA.03 25-Dec-2016

 -----------------------------------
 #p cam-b3lyp/Def2SVP td=(nstates=5)
 -----------------------------------

 --------------------------------
 TDDFT excited states in gaussian
 --------------------------------
 Symbolic Z-matrix:
 Charge =  0 Multiplicity = 1

                         Standard orientation:
 ---------------------------------------------------------------------
 Center     Atomic      Atomic             Coordinates (Angstroms)
 Number     Number       Type             X           Y           Z
 ---------------------------------------------------------------------
      1         12           0      -28.412273    0.485797   -0.613634
      2          6           0      -28.075361   -2.378122    1.427038
      3          6           0      -27.692757    2.429986    1.950907
      4          6           0      -29.637183    3.108398   -2.428679
      5          6           0      -30.181916   -1.720777   -2.995773
      6          7           0      -27.995179    0.023680    1.472719
      7          6           0      -27.676611   -1.172808    2.007711
      8          6           0      -26.998871   -0.950620    3.374047
      9          6           0      -26.859512    0.530754    3.520512
     10          6           0      -27.593719    1.072268    2.256646
     11          6           0      -27.312498    1.055782    4.944039
     12          6           0      -25.682405   -1.735998    3.691000
     13          6           0      -24.501558   -1.109516    4.549563
     14          1           0      -23.847596   -1.975191    5.636466
     15          7           0      -28.393501    2.518450   -0.350915
     16          6           0      -28.038190    3.141792    0.823930
     17          6           0      -28.108106    4.558352    0.603559
     18          6           0      -28.721776    4.831728   -0.680636
     19          6           0      -28.991335    3.467169   -1.185050
     20          6           0      -27.726627    5.452720    1.712759
     21          6           0      -28.980494    6.170797   -1.414392
     22          8           0      -29.543939    6.180425   -2.458871
     23          6           0      -28.314276    7.425965   -0.953024
     24          7           0      -29.782395    0.632121   -2.435187
     25          6           0      -29.964852    1.855592   -2.980753
     26          6           0      -30.768951    1.787801   -4.318404
     27          6           0      -30.919664    0.251668   -4.539959
     28          6           0      -30.283912   -0.351519   -3.262935
     29          6           0      -32.097312    2.496526   -4.316933
     30          6           0      -30.285154   -0.375759   -5.830202
     31          6           0      -28.813208   -0.610732   -5.877569
     32          7           0      -29.042319   -1.593896   -0.868523
     33          6           0      -29.665550   -2.285116   -1.867661
     34          6           0      -29.644836   -3.693964   -1.558180
     35          6           0      -29.040722   -3.819112   -0.279476
     36          6           0      -28.734955   -2.500472    0.114117
     37          6           0      -30.297120   -4.801752   -2.307516
     38          6           0      -28.665526   -4.720844    0.771956
     39          8           0      -28.716330   -5.939338    0.894268
     40          6           0      -27.977189   -3.837335    1.906842
     41          6           0      -28.529601   -4.117720    3.294193
     42          8           0      -29.662989   -3.882902    3.625600
     43          8           0      -27.518862   -4.629441    4.092325
     44          6           0      -27.965058   -4.966119    5.444699
     45          1           0      -27.275590    3.135845    2.672686
     46          1           0      -29.952118    3.999918   -2.974506
     47          1           0      -30.609397   -2.389209   -3.745922
     48          1           0      -27.770958   -1.394181    4.002743
     49          1           0      -25.794382    0.762276    3.493066
     50          1           0      -27.511567    0.205591    5.596252
     51          1           0      -28.122049    1.768931    4.788890
     52          1           0      -26.488878    1.543274    5.466003
     53          1           0      -25.241721   -2.001261    2.729680
     54          1           0      -25.886994   -2.698287    4.161033
     55          1           0      -24.940657   -0.218419    4.998605
     56          1           0      -23.715322   -0.770539    3.874899
     57          1           0      -28.409205    6.300015    1.651334
     58          1           0      -26.723868    5.818778    1.495556
     59          1           0      -27.709557    5.113705    2.748691
     60          1           0      -29.055375    7.842155   -0.271885
     61          1           0      -28.029585    8.017934   -1.823403
     62          1           0      -27.432809    7.279301   -0.328449
     63          1           0      -30.171396    2.117840   -5.168408
     64          1           0      -31.908014   -0.204716   -4.495300
     65          1           0      -32.213511    3.124427   -3.432610
     66          1           0      -32.936237    1.800631   -4.289801
     67          1           0      -32.103320    3.105123   -5.220845
     68          1           0      -30.527123    0.242723   -6.694579
     69          1           0      -30.851854   -1.275633   -6.070388
     70          1           0      -28.312558    0.048259   -5.167955
     71          1           0      -28.240863   -0.420202   -6.785708
     72          1           0      -28.694631   -1.677195   -5.683386
     73          1           0      -31.377255   -4.707820   -2.415936
     74          1           0      -30.284919   -5.653350   -1.626812
     75          1           0      -29.805441   -4.990186   -3.262298
     76          1           0      -26.915663   -4.082199    1.865498
     77          1           0      -27.361700   -4.154126    5.849382
     78          1           0      -27.539589   -5.956013    5.607878
     79          1           0      -29.044496   -4.884894    5.574244
     80         12           0       29.260085   -0.312993    0.075851
     81          6           0       26.415112    1.567924    0.755329
     82          6           0       27.193535   -3.048645   -0.443052
     83          6           0       31.793192   -2.068209   -1.119054
     84          6           0       31.154928    2.582761    0.127895
     85          7           0       27.067131   -0.664066   -0.013585
     86          6           0       26.104293    0.215920    0.436372
     87          6           0       24.745393   -0.410895    0.540288
     88          6           0       25.106024   -1.961636    0.519270
     89          6           0       26.519269   -1.925733   -0.047040
     90          6           0       24.844814   -2.912738    1.781913
     91          6           0       23.680865    0.076845   -0.548243
     92          6           0       24.214131    0.469034   -1.958298
     93          1           0       23.353772   -0.009989   -3.102815
     94          7           0       29.457472   -2.256543   -0.793157
     95          6           0       28.470550   -3.244336   -0.900259
     96          6           0       28.969745   -4.419341   -1.560417
     97          6           0       30.339177   -4.153254   -1.799031
     98          6           0       30.608883   -2.783073   -1.270054
     99          6           0       28.124433   -5.693040   -1.611158
    100          6           0       31.268332   -5.197565   -2.458739
    101          8           0       30.841939   -6.271599   -2.895092
    102          6           0       32.699624   -4.860153   -2.484969
    103          7           0       31.150245    0.273652   -0.521285
    104          6           0       32.090812   -0.722757   -0.721249
    105          6           0       33.534770   -0.180611   -0.803529
    106          6           0       33.210342    1.359300   -0.625753
    107          6           0       31.769794    1.433280   -0.376036
    108          6           0       34.563383   -0.678256    0.162259
    109          6           0       33.569000    2.231656   -1.932959
    110          6           0       34.316175    3.485544   -1.560166
    111          7           0       28.949897    1.687679    0.569161
    112          6           0       29.826572    2.756424    0.542209
    113          6           0       29.118021    3.999199    0.924673
    114          6           0       27.749037    3.569197    1.023585
    115          6           0       27.730077    2.188401    0.794799
    116          6           0       29.570722    5.402650    0.909273
    117          6           0       26.336760    3.964898    1.209762
    118          8           0       25.861243    5.068901    1.341851
    119          6           0       25.436799    2.693504    1.085420
    120          6           0       24.626559    2.524589    2.292271
    121          8           0       23.403256    2.529620    2.431974
    122          8           0       25.510497    2.634412    3.397627
    123          6           0       24.893132    2.433647    4.726108
    124          1           0       26.550027   -3.926287   -0.347528
    125          1           0       32.732100   -2.592455   -1.308355
    126          1           0       31.853379    3.419090    0.191026
    127          1           0       24.277648   -0.142223    1.487393
    128          1           0       24.445200   -2.303450   -0.277730
    129          1           0       24.319729   -2.455145    2.620174
    130          1           0       25.757256   -3.279072    2.252209
    131          1           0       24.135121   -3.691839    1.502281
    132          1           0       23.060297    0.876549   -0.145266
    133          1           0       22.970937   -0.742568   -0.660528
    134          1           0       25.236660    0.115905   -2.095297
    135          1           0       24.249309    1.554253   -2.049975
    136          1           0       28.309079   -6.309203   -2.491697
    137          1           0       27.074092   -5.420323   -1.710275
    138          1           0       28.387425   -6.257119   -0.716001
    139          1           0       33.085010   -4.909836   -1.467019
    140          1           0       32.837993   -3.877482   -2.936961
    141          1           0       33.159699   -5.637921   -3.094418
    142          1           0       33.850872   -0.256888   -1.844158
    143          1           0       33.679834    1.586184    0.331412
    144          1           0       35.419714   -0.012923    0.050907
    145          1           0       34.903906   -1.645819   -0.206528
    146          1           0       34.149308   -0.727959    1.170018
    147          1           0       32.623370    2.429340   -2.437576
    148          1           0       34.102723    1.724257   -2.737564
    149          1           0       33.657014    4.333285   -1.745552
    150          1           0       35.110871    3.721525   -2.268670
    151          1           0       34.521392    3.488582   -0.489857
    152          1           0       30.607775    5.564596    0.611601
    153          1           0       29.499651    5.748604    1.939884
    154          1           0       28.968250    5.791072    0.088387
    155          1           0       24.814003    2.886407    0.212227
    156          1           0       25.613713    1.773477    5.210208
    157          1           0       23.903791    1.986936    4.825269
    158          1           0       25.048858    3.382048    5.240628
 ---------------------------------------------------------------------

 SCF Done:  E(RCAM-B3LYP) =  -4069.79475200     A.U. after   18 cycles

 Excitation energies and oscillator strengths:

 Excited State   1:      Singlet-A      1.7017 eV  728.58 nm  f=0.3768  <S**2>=0.000
     310 -> 316       -0.18701
     312 -> 314        0.68380
     310 <- 316       -0.11025
 This state for optimization and/or second-order correction.
 Total Energy, E(TD-HF/TD-DFT) =  -4069.73221468
 Copying the excited state density for this state as the 1-particle RhoCI density.

 Excited State   2:      Singlet-A      1.7179 eV  721.73 nm  f=0.3799  <S**2>=0.000
     309 -> 315       -0.18175
     311 -> 313        0.68356
     309 <- 315       -0.10499

 Excited State   3:      Singlet-A      2.1898 eV  566.19 nm  f=0.1095  <S**2>=0.000
     310 -> 314        0.64227
     312 -> 316        0.28261

 Excited State   4:      Singlet-A      2.2043 eV  562.47 nm  f=0.0883  <S**2>=0.000
     309 -> 313        0.62966
     311 -> 315        0.30515

 Excited State   5:      Singlet-A      3.2011 eV  387.31 nm  f=0.0000  <S**2>=0.000
     312 -> 313        0.70711

 The electronic state is 1-A.
 Alpha  occ. eigenvalues --  -46.89981 -46.89124 -19.24724 -19.24363 -19.20559
 Alpha  occ. eigenvalues --  -19.20014 -19.19566 -19.19042 -19.18841 -19.18619
 Alpha  occ. eigenvalues --  -14.42254 -14.42225 -14.42203 -14.41769 -14.39663
 Alpha  occ. eigenvalues --  -14.39483 -14.39203 -14.38796 -10.39753 -10.39106
 Alpha  occ. eigenvalues --  -10.35715 -10.35138 -10.35124 -10.34786 -10.31642
 Alpha  occ. eigenvalues --  -10.31615 -10.31319 -10.31247 -10.31202 -10.31113
 Alpha  occ. eigenvalues --  -10.30873 -10.30699 -10.30699 -10.30653 -10.30351
 Alpha  occ. eigenvalues --  -10.30211 -10.30098 -10.29574 -10.29434 -10.29372
 Alpha  occ. eigenvalues --  -10.29002 -10.28978 -10.28696 -10.28661 -10.28578
 Alpha  occ. eigenvalues --  -10.28561 -10.28449 -10.28432 -10.28361 -10.28227
 Alpha  occ. eigenvalues --  -10.28179 -10.28170 -10.28093 -10.28028 -10.27914
 Alpha  occ. eigenvalues --  -10.27819 -10.27690 -10.27643 -10.27546 -10.27353
 Alpha  occ. eigenvalues --  -10.27318 -10.27284 -10.27180 -10.27156 -10.27147
 Alpha  occ. eigenvalues --  -10.27013 -10.26985 -10.26927 -10.26767 -10.26748
 Alpha  occ. eigenvalues --  -10.26709 -10.26549 -10.26524 -10.26338 -10.26246
 Alpha  occ. eigenvalues --  -10.26236 -10.26117 -10.26075 -10.26039 -10.25980
 Alpha  occ. eigenvalues --  -10.25771 -10.25405 -10.25381 -10.25093 -10.24958
 Alpha  occ. eigenvalues --  -10.24867  -3.18290  -3.17649  -1.93164  -1.92755
 Alpha  occ. eigenvalues --   -1.92581  -1.92533  -1.92120  -1.91943  -1.16278
 Alpha  occ. eigenvalues --   -1.14839  -1.12886  -1.10381  -1.09390  -1.09198
 Alpha  occ. eigenvalues --   -1.08527  -1.06921  -1.05091  -1.04208  -1.03737
 Alpha  occ. eigenvalues --   -1.03203  -1.03128  -1.02470  -1.02362  -1.01823
 Alpha  occ. eigenvalues --   -0.92484  -0.91601  -0.89674  -0.89292  -0.89241
 Alpha  occ. eigenvalues --   -0.88867  -0.88245  -0.88005  -0.87688  -0.87358
 Alpha  occ. eigenvalues --   -0.87161  -0.86899  -0.86203  -0.86082  -0.84851
 Alpha  occ. eigenvalues --   -0.84475  -0.83991  -0.83646  -0.82740  -0.82515
 Alpha  occ. eigenvalues --   -0.82405  -0.81985  -0.80863  -0.80826  -0.80389
 Alpha  occ. eigenvalues --   -0.80172  -0.78339  -0.78273  -0.77521  -0.77145
 Alpha  occ. eigenvalues --   -0.77087  -0.76867  -0.76237  -0.75841  -0.75767
 Alpha  occ. eigenvalues --   -0.74639  -0.72663  -0.72315  -0.72159  -0.71456
 Alpha  occ. eigenvalues --   -0.69802  -0.69445  -0.69381  -0.69262  -0.68190
 Alpha  occ. eigenvalues --   -0.68108  -0.66894  -0.66847  -0.66432  -0.64921
 Alpha  occ. eigenvalues --   -0.64906  -0.64528  -0.64292  -0.64126  -0.64019
 Alpha  occ. eigenvalues --   -0.63999  -0.62563  -0.61694  -0.60295  -0.60014
 Alpha  occ. eigenvalues --   -0.59539  -0.59398  -0.58961  -0.58791  -0.58336
 Alpha  occ. eigenvalues --   -0.58306  -0.57985  -0.57547  -0.57373  -0.57270
 Alpha  occ. eigenvalues --   -0.56343  -0.56135  -0.55867  -0.55843  -0.55376
 Alpha  occ. eigenvalues --   -0.55368  -0.55119  -0.55041  -0.54630  -0.54572
 Alpha  occ. eigenvalues --   -0.54047  -0.53911  -0.53710  -0.53332  -0.52925
 Alpha  occ. eigenvalues --   -0.52755  -0.52732  -0.52645  -0.52363  -0.52195
 Alpha  occ. eigenvalues --   -0.52001  -0.51716  -0.51635  -0.51183  -0.51130
 Alpha  occ. eigenvalues --   -0.50919  -0.50868  -0.50815  -0.50604  -0.50492
 Alpha  occ. eigenvalues --   -0.50295  -0.50285  -0.50020  -0.49652  -0.49572
 Alpha  occ. eigenvalues --   -0.49508  -0.49290  -0.49189  -0.48970  -0.48842
 Alpha  occ. eigenvalues --   -0.48757  -0.48584  -0.48583  -0.48327  -0.48316
 Alpha  occ. eigenvalues --   -0.48191  -0.47759  -0.47683  -0.47272  -0.47194
 Alpha  occ. eigenvalues --   -0.47125  -0.46936  -0.46752  -0.46521  -0.46292
 Alpha  occ. eigenvalues --   -0.46229  -0.46016  -0.45769  -0.45750  -0.45542
 Alpha  occ. eigenvalues --   -0.45416  -0.45406  -0.45139  -0.45010  -0.44996
 Alpha  occ. eigenvalues --   -0.44710  -0.44666  -0.44617  -0.44549  -0.44318
 Alpha  occ. eigenvalues --   -0.44076  -0.43947  -0.43704  -0.43630  -0.43439
 Alpha  occ. eigenvalues --   -0.43240  -0.43235  -0.43129  -0.42987  -0.42917
 Alpha  occ. eigenvalues --   -0.42768  -0.42597  -0.42499  -0.42329  -0.42151
 Alpha  occ. eigenvalues --   -0.42022  -0.41982  -0.41815  -0.41729  -0.41703
 Alpha  occ. eigenvalues --   -0.41449  -0.41243  -0.40862  -0.40583  -0.40479
 Alpha  occ. eigenvalues --   -0.40115  -0.40011  -0.39179  -0.39125  -0.38951
 Alpha  occ. eigenvalues --   -0.38529  -0.38105  -0.37996  -0.37894  -0.37452
 Alpha  occ. eigenvalues --   -0.37373  -0.36915  -0.36889  -0.36579  -0.35898
 Alpha  occ. eigenvalues --   -0.35705  -0.35676  -0.35174  -0.34819  -0.34612
 Alpha  occ. eigenvalues --   -0.33544  -0.33339  -0.33140  -0.31780  -0.31292
 Alpha  occ. eigenvalues --   -0.31223  -0.30833  -0.30826  -0.30597  -0.29977
 Alpha  occ. eigenvalues --   -0.29818  -0.29675  -0.29331  -0.24116  -0.23811
 Alpha  occ. eigenvalues --   -0.21234  -0.21042
 Alpha virt. eigenvalues --   -0.08685  -0.08630  -0.02266  -0.01612   0.00327
 Alpha virt. eigenvalues --    0.00612   0.01168   0.01694   0.02508   0.02526
 Alpha virt. eigenvalues --    0.04064   0.04523   0.04931   0.05701   0.05929

 Mulliken charges:
               1
     1  Mg   0.817802
     2  C   -0.011187
     3  C   -0.048722
     4  C   -0.055555
     5  C   -0.096247
     6  N   -0.298069
     7  C   -0.057220
     8  C    0.017535
     9  C   -0.086214
    10  C    0.071777
    11  C    0.069631
    12  C    0.007517
    13  C   -0.067055
    14  H    0.036299
    15  N   -0.428090
    16  C    0.123576
    17  C   -0.120415
    18  C   -0.043117
    19  C    0.090955
    20  C    0.083039
    21  C    0.006694
    22  O   -0.165879
    23  C    0.045759
    24  N   -0.240920
    25  C    0.047230
    26  C   -0.014241
    27  C   -0.001781
    28  C   -0.021725
    29  C    0.084117
    30  C    0.000179
    31  C    0.023693
    32  N   -0.309213
    33  C    0.157965
    34  C   -0.178996
    35  C    0.018073
    36  C    0.070981
    37  C    0.109139
    38  C    0.054892
    39  O   -0.173453
    40  C    0.002860
    41  C    0.190167
    42  O   -0.197582
    43  O   -0.349876
    44  C    0.157925
    45  H   -0.041354
    46  H   -0.000501
    47  H   -0.031339
    48  H    0.022140
    49  H    0.017496
    50  H    0.020948
    51  H    0.027881
    52  H    0.010833
    53  H    0.005505
    54  H    0.023771
    55  H    0.015068
    56  H    0.032503
    57  H    0.014264
    58  H    0.031707
    59  H    0.035818
    60  H    0.041874
    61  H    0.048345
    62  H    0.015550
    63  H    0.012533
    64  H    0.008273
    65  H    0.023023
    66  H    0.012812
    67  H    0.018962
    68  H   -0.001830
    69  H   -0.002392
    70  H    0.016611
    71  H    0.009349
    72  H    0.016382
    73  H    0.022586
    74  H    0.027224
    75  H    0.029732
    76  H    0.040652
    77  H    0.033791
    78  H    0.050150
    79  H    0.069380
    80  Mg   0.819760
    81  C   -0.024958
    82  C   -0.097589
    83  C   -0.086971
    84  C   -0.094181
    85  N   -0.283863
    86  C   -0.030080
    87  C   -0.040817
    88  C    0.001976
    89  C    0.000879
    90  C    0.064172
    91  C    0.029210
    92  C   -0.076362
    93  H    0.023179
    94  N   -0.359607
    95  C    0.167016
    96  C   -0.136597
    97  C   -0.064244
    98  C    0.184908
    99  C    0.126749
   100  C    0.000338
   101  O   -0.204509
   102  C    0.054781
   103  N   -0.295291
   104  C   -0.001581
   105  C   -0.034012
   106  C   -0.063457
   107  C    0.012410
   108  C    0.107194
   109  C    0.036498
   110  C    0.030425
   111  N   -0.342687
   112  C    0.151471
   113  C   -0.189598
   114  C   -0.004840
   115  C    0.088733
   116  C    0.130648
   117  C    0.030269
   118  O   -0.149199
   119  C    0.028498
   120  C    0.222590
   121  O   -0.208349
   122  O   -0.379718
   123  C    0.180160
   124  H   -0.029641
   125  H   -0.042297
   126  H   -0.043963
   127  H    0.010496
   128  H    0.006336
   129  H    0.011225
   130  H    0.026810
   131  H    0.022145
   132  H    0.028644
   133  H    0.010440
   134  H    0.047620
   135  H    0.030606
   136  H    0.035836
   137  H    0.016219
   138  H    0.041145
   139  H    0.048742
   140  H    0.044986
   141  H    0.024338
   142  H    0.004685
   143  H    0.008076
   144  H    0.019803
   145  H    0.014495
   146  H    0.025113
   147  H    0.015643
   148  H    0.007071
   149  H    0.005816
   150  H    0.014924
   151  H    0.023379
   152  H   -0.003570
   153  H    0.043715
   154  H    0.053181
   155  H    0.038591
   156  H    0.018965
   157  H    0.058629
   158  H    0.038441
 Sum of Mulliken charges =  -0.00000

 Dipole moment (field-independent basis, Debye):
    X=              8.2655    Y=              2.7677    Z=              2.5359  Tot=              9.0779
 Quadrupole moment (field-independent basis, Debye-Ang):
   XX=           -396.8638   YY=           -569.6717   ZZ=           -481.5908
   XY=           -122.2154   XZ=             59.9185   YZ=             -6.3432

 Normal termination of Gaussian 16 at Wed Sep 15 04:12:24 2021.
