 Gaussian 16, Revision A.03,
 Gaussian 16:  ES64L-G16RevA.03 25-Dec-2016

 -----------------------------------
 #p cam-b3lyp/Def2SVP td=(nstates=5)
 -----------------------------------

 --------------------------------
 TDDFT excited states in gaussian
 --------------------------------
 Symbolic Z-matrix:
 Charge =  0 Multiplicity = 1

                         Standard orientation:
 ---------------------------------------------------------------------
 Center     Atomic      Atomic             Coordinates (Angstroms)
 Number     Number       Type             X           Y           Z
 ---------------------------------------------------------------------
      1         12           0       33.816531    0.561819   -0.583025
      2          6           0       31.665257   -2.256672    0.362356
      3          6           0       31.370075    2.533514    0.868509
      4          6           0       36.025538    2.854978   -0.405321
      5          6           0       36.206802   -1.940873   -1.549929
      6          7           0       31.743123    0.090214    0.655257
      7          6           0       31.082654   -1.095268    0.893320
      8          6           0       29.819783   -0.816946    1.788008
      9          6           0       29.605750    0.703576    1.690996
     10          6           0       30.972269    1.141692    1.039420
     11          6           0       28.402344    1.245300    0.812797
     12          6           0       29.948858   -1.367841    3.249425
     13          6           0       28.702571   -1.982603    3.849131
     14          1           0       27.905565   -1.104551    4.864201
     15          7           0       33.700531    2.448485    0.003783
     16          6           0       32.611032    3.133049    0.469496
     17          6           0       32.983439    4.547941    0.743698
     18          6           0       34.355975    4.625074    0.390913
     19          6           0       34.755744    3.270762    0.016795
     20          6           0       32.091871    5.641014    1.355263
     21          6           0       35.330189    5.787943    0.600133
     22          8           0       34.865075    6.838917    1.032836
     23          6           0       36.707805    5.750607    0.303533
     24          7           0       35.926779    0.374439   -0.686247
     25          6           0       36.546436    1.600362   -0.826407
     26          6           0       38.032310    1.345988   -1.292006
     27          6           0       38.139296   -0.220271   -1.345085
     28          6           0       36.642501   -0.608926   -1.286284
     29          6           0       38.450632    2.038491   -2.618080
     30          6           0       39.023841   -0.963226   -0.264380
     31          6           0       40.547994   -0.991900   -0.472697
     32          7           0       33.986627   -1.645662   -0.672560
     33          6           0       34.960476   -2.466528   -1.205266
     34          6           0       34.526424   -3.840742   -1.275580
     35          6           0       33.211924   -3.801779   -0.676452
     36          6           0       32.896492   -2.464005   -0.251603
     37          6           0       35.375113   -4.966723   -1.780427
     38          6           0       32.151206   -4.612743   -0.274554
     39          8           0       32.044983   -5.830592   -0.222382
     40          6           0       31.167103   -3.707463    0.521513
     41          6           0       29.839378   -3.885559   -0.177200
     42          8           0       28.787040   -4.133729    0.416591
     43          8           0       29.835422   -3.581612   -1.597980
     44          6           0       28.483246   -3.420666   -2.130184
     45          1           0       30.583398    3.185038    1.253377
     46          1           0       36.833327    3.570931   -0.570649
     47          1           0       37.004641   -2.568320   -1.952480
     48          1           0       28.940296   -1.204474    1.271806
     49          1           0       29.593837    1.174739    2.673825
     50          1           0       27.665163    1.585868    1.539594
     51          1           0       27.937624    0.441386    0.242693
     52          1           0       28.661216    2.006968    0.077379
     53          1           0       30.154482   -0.609196    4.005025
     54          1           0       30.704702   -2.152300    3.292880
     55          1           0       28.992592   -2.950901    4.257079
     56          1           0       28.009816   -2.181724    3.030867
     57          1           0       32.275326    6.590765    0.852145
     58          1           0       32.357279    5.631098    2.412347
     59          1           0       31.037416    5.421766    1.193064
     60          1           0       36.816847    5.661656   -0.777816
     61          1           0       37.274688    4.997978    0.851612
     62          1           0       37.034427    6.695114    0.739994
     63          1           0       38.779970    1.678865   -0.572857
     64          1           0       38.459823   -0.562875   -2.328649
     65          1           0       38.782397    1.229032   -3.268464
     66          1           0       39.281073    2.710691   -2.404438
     67          1           0       37.540147    2.548409   -2.935259
     68          1           0       38.641305   -1.984157   -0.287462
     69          1           0       38.926174   -0.488893    0.712351
     70          1           0       40.625577   -0.507418   -1.446443
     71          1           0       40.905370   -2.009564   -0.636357
     72          1           0       41.160663   -0.477828    0.267493
     73          1           0       36.273713   -4.945636   -1.165244
     74          1           0       35.747367   -4.810801   -2.792798
     75          1           0       34.948791   -5.947539   -1.569494
     76          1           0       31.087828   -4.132512    1.521902
     77          1           0       28.772513   -2.775051   -2.960270
     78          1           0       27.779783   -3.078343   -1.371231
     79          1           0       28.211213   -4.382156   -2.565832
     80         12           0      -33.914108   -0.332984   -0.481700
     81          6           0      -30.946732    1.374037   -0.023237
     82          6           0      -32.344659   -3.174980    0.662947
     83          6           0      -36.977008   -1.883327   -0.362198
     84          6           0      -35.440720    2.576682   -1.508582
     85          7           0      -31.960764   -0.793690    0.417090
     86          6           0      -30.888131    0.076082    0.423486
     87          6           0      -29.623803   -0.583911    0.967263
     88          6           0      -30.005225   -2.106991    0.853807
     89          6           0      -31.514733   -2.018977    0.682846
     90          6           0      -29.235419   -2.976128   -0.240828
     91          6           0      -29.149057   -0.117092    2.380288
     92          6           0      -27.666758    0.159360    2.517868
     93          1           0      -26.970075   -0.871292    3.392622
     94          7           0      -34.525960   -2.235463    0.087701
     95          6           0      -33.749499   -3.246756    0.492772
     96          6           0      -34.534078   -4.453849    0.686636
     97          6           0      -35.871517   -4.203725    0.428460
     98          6           0      -35.872300   -2.718450    0.078754
     99          6           0      -33.894849   -5.820539    1.226649
    100          6           0      -37.044954   -5.240803    0.431258
    101          8           0      -36.800964   -6.429933    0.782039
    102          6           0      -38.432500   -4.856210    0.085678
    103          7           0      -36.040382    0.335877   -0.655408
    104          6           0      -37.052778   -0.496524   -0.736276
    105          6           0      -38.282048    0.131586   -1.359017
    106          6           0      -37.908467    1.618082   -1.682043
    107          6           0      -36.343193    1.535370   -1.344196
    108          6           0      -39.108173   -0.657245   -2.424601
    109          6           0      -38.601726    2.789676   -0.927969
    110          6           0      -38.445138    4.121501   -1.632321
    111          7           0      -33.316354    1.631239   -0.715454
    112          6           0      -34.039349    2.729361   -1.236094
    113          6           0      -33.128623    3.833837   -1.367117
    114          6           0      -31.865918    3.360507   -0.934392
    115          6           0      -32.086873    2.048420   -0.525020
    116          6           0      -33.397988    5.150891   -2.079606
    117          6           0      -30.550963    3.748096   -0.793750
    118          8           0      -29.944725    4.778905   -0.903185
    119          6           0      -29.877880    2.490036   -0.034125
    120          6           0      -29.800212    2.941213    1.423598
    121          8           0      -30.717586    2.924496    2.221550
    122          8           0      -28.503877    3.381962    1.635783
    123          6           0      -28.235359    3.964840    2.946429
    124          1           0      -31.865251   -4.142672    0.823789
    125          1           0      -37.914367   -2.440924   -0.314459
    126          1           0      -35.751729    3.527031   -1.947373
    127          1           0      -28.828926   -0.410113    0.242538
    128          1           0      -29.928842   -2.520919    1.859916
    129          1           0      -29.944072   -3.786171   -0.412939
    130          1           0      -28.356141   -3.497533    0.138280
    131          1           0      -28.951625   -2.468016   -1.162347
    132          1           0      -29.436243   -0.948912    3.023804
    133          1           0      -29.731724    0.666960    2.863442
    134          1           0      -27.562567    1.159376    2.939451
    135          1           0      -27.147478    0.139686    1.559509
    136          1           0      -32.832759   -5.772444    1.470637
    137          1           0      -34.036542   -6.621929    0.500760
    138          1           0      -34.291435   -6.124950    2.194242
    139          1           0      -38.459019   -4.465639   -0.931108
    140          1           0      -38.882524   -4.235830    0.860843
    141          1           0      -38.940249   -5.809997   -0.052311
    142          1           0      -39.096353    0.354546   -0.669291
    143          1           0      -37.821175    1.803252   -2.752907
    144          1           0      -38.747531   -1.685765   -2.378907
    145          1           0      -39.096768   -0.203452   -3.416251
    146          1           0      -40.173618   -0.725144   -2.204320
    147          1           0      -38.197825    2.775263    0.084243
    148          1           0      -39.639348    2.469381   -0.834449
    149          1           0      -39.334772    4.713053   -1.414739
    150          1           0      -38.351822    4.067665   -2.717632
    151          1           0      -37.631618    4.676000   -1.164473
    152          1           0      -32.506871    5.759138   -2.234938
    153          1           0      -34.146971    5.690252   -1.501214
    154          1           0      -33.838190    4.985637   -3.063040
    155          1           0      -28.948079    2.185765   -0.515725
    156          1           0      -28.807797    4.885808    3.058256
    157          1           0      -27.170145    4.126884    3.107652
    158          1           0      -28.607297    3.296812    3.722772
 ---------------------------------------------------------------------

 SCF Done:  E(RCAM-B3LYP) =  -4069.75873735     A.U. after   17 cycles

 Excitation energies and oscillator strengths:

 Excited State   1:      Singlet-A      1.7224 eV  719.84 nm  f=0.3527  <S**2>=0.000
     309 -> 315        0.19689
     312 -> 313        0.67936
     309 <- 315        0.11036
 This state for optimization and/or second-order correction.
 Total Energy, E(TD-HF/TD-DFT) =  -4069.69544049
 Copying the excited state density for this state as the 1-particle RhoCI density.

 Excited State   2:      Singlet-A      1.8652 eV  664.72 nm  f=0.3720  <S**2>=0.000
     310 -> 316        0.14281
     311 -> 314        0.68808

 Excited State   3:      Singlet-A      2.2417 eV  553.08 nm  f=0.0697  <S**2>=0.000
     309 -> 313        0.61606
     312 -> 315       -0.33057

 Excited State   4:      Singlet-A      2.2638 eV  547.68 nm  f=0.1275  <S**2>=0.000
     310 -> 314        0.64676
     311 -> 316       -0.24681
     311 -> 318       -0.10326

 Excited State   5:      Singlet-A      3.3137 eV  374.16 nm  f=0.0000  <S**2>=0.000
     311 -> 313        0.70711

 The electronic state is 1-A.
 Alpha  occ. eigenvalues --  -46.90765 -46.89399 -19.24518 -19.23717 -19.20222
 Alpha  occ. eigenvalues --  -19.20090 -19.19873 -19.18793 -19.17870 -19.17717
 Alpha  occ. eigenvalues --  -14.42718 -14.42310 -14.42047 -14.42019 -14.40814
 Alpha  occ. eigenvalues --  -14.40549 -14.39143 -14.38487 -10.39391 -10.39088
 Alpha  occ. eigenvalues --  -10.37028 -10.34937 -10.33510 -10.33398 -10.33074
 Alpha  occ. eigenvalues --  -10.32415 -10.32315 -10.31888 -10.31718 -10.31590
 Alpha  occ. eigenvalues --  -10.31530 -10.31370 -10.31144 -10.31078 -10.31014
 Alpha  occ. eigenvalues --  -10.30783 -10.30353 -10.29801 -10.29793 -10.29658
 Alpha  occ. eigenvalues --  -10.29399 -10.29241 -10.29162 -10.28917 -10.28916
 Alpha  occ. eigenvalues --  -10.28837 -10.28530 -10.28412 -10.28406 -10.28388
 Alpha  occ. eigenvalues --  -10.28343 -10.28327 -10.28324 -10.28296 -10.28219
 Alpha  occ. eigenvalues --  -10.28066 -10.28062 -10.28057 -10.27514 -10.27465
 Alpha  occ. eigenvalues --  -10.27420 -10.27344 -10.27231 -10.27189 -10.27151
 Alpha  occ. eigenvalues --  -10.26981 -10.26952 -10.26936 -10.26917 -10.26856
 Alpha  occ. eigenvalues --  -10.26856 -10.26853 -10.26807 -10.26780 -10.26754
 Alpha  occ. eigenvalues --  -10.26659 -10.26650 -10.26442 -10.26242 -10.26186
 Alpha  occ. eigenvalues --  -10.25941 -10.25848 -10.25800 -10.25293 -10.25239
 Alpha  occ. eigenvalues --  -10.23100  -3.19176  -3.17837  -1.94021  -1.93684
 Alpha  occ. eigenvalues --   -1.93441  -1.92721  -1.92299  -1.92141  -1.15461
 Alpha  occ. eigenvalues --   -1.13947  -1.10462  -1.09799  -1.09143  -1.08985
 Alpha  occ. eigenvalues --   -1.07905  -1.06350  -1.05036  -1.04584  -1.03839
 Alpha  occ. eigenvalues --   -1.03372  -1.03346  -1.03191  -1.02547  -1.01087
 Alpha  occ. eigenvalues --   -0.92892  -0.91561  -0.89180  -0.89010  -0.88949
 Alpha  occ. eigenvalues --   -0.88514  -0.88495  -0.87967  -0.87056  -0.86998
 Alpha  occ. eigenvalues --   -0.86934  -0.86631  -0.85937  -0.85823  -0.85027
 Alpha  occ. eigenvalues --   -0.84504  -0.83877  -0.83702  -0.83633  -0.83205
 Alpha  occ. eigenvalues --   -0.82538  -0.82058  -0.81159  -0.80707  -0.80219
 Alpha  occ. eigenvalues --   -0.79887  -0.78262  -0.77642  -0.77365  -0.77160
 Alpha  occ. eigenvalues --   -0.77048  -0.76739  -0.75835  -0.75329  -0.75280
 Alpha  occ. eigenvalues --   -0.75141  -0.72846  -0.72392  -0.71931  -0.71693
 Alpha  occ. eigenvalues --   -0.69723  -0.69150  -0.69114  -0.68607  -0.67904
 Alpha  occ. eigenvalues --   -0.67722  -0.67354  -0.67020  -0.65613  -0.65577
 Alpha  occ. eigenvalues --   -0.65478  -0.65384  -0.65057  -0.64677  -0.64041
 Alpha  occ. eigenvalues --   -0.64035  -0.61911  -0.61703  -0.60392  -0.59970
 Alpha  occ. eigenvalues --   -0.59820  -0.59472  -0.59277  -0.59026  -0.58929
 Alpha  occ. eigenvalues --   -0.58461  -0.57840  -0.57389  -0.57172  -0.57007
 Alpha  occ. eigenvalues --   -0.56770  -0.56436  -0.55615  -0.55488  -0.55040
 Alpha  occ. eigenvalues --   -0.54793  -0.54340  -0.54183  -0.53949  -0.53923
 Alpha  occ. eigenvalues --   -0.53792  -0.53729  -0.53558  -0.53334  -0.53307
 Alpha  occ. eigenvalues --   -0.53158  -0.52899  -0.52715  -0.52493  -0.52009
 Alpha  occ. eigenvalues --   -0.51998  -0.51749  -0.51587  -0.51447  -0.51030
 Alpha  occ. eigenvalues --   -0.51028  -0.50802  -0.50629  -0.50528  -0.50154
 Alpha  occ. eigenvalues --   -0.50007  -0.49899  -0.49867  -0.49811  -0.49526
 Alpha  occ. eigenvalues --   -0.49451  -0.49131  -0.49027  -0.48962  -0.48705
 Alpha  occ. eigenvalues --   -0.48648  -0.48540  -0.48398  -0.48217  -0.48168
 Alpha  occ. eigenvalues --   -0.47970  -0.47745  -0.47582  -0.47363  -0.47284
 Alpha  occ. eigenvalues --   -0.47176  -0.46741  -0.46546  -0.46533  -0.46188
 Alpha  occ. eigenvalues --   -0.46151  -0.46132  -0.45959  -0.45910  -0.45376
 Alpha  occ. eigenvalues --   -0.45217  -0.45190  -0.45044  -0.44978  -0.44878
 Alpha  occ. eigenvalues --   -0.44694  -0.44665  -0.44480  -0.44339  -0.44277
 Alpha  occ. eigenvalues --   -0.44125  -0.43942  -0.43810  -0.43600  -0.43587
 Alpha  occ. eigenvalues --   -0.43409  -0.43197  -0.43083  -0.42705  -0.42570
 Alpha  occ. eigenvalues --   -0.42553  -0.42474  -0.42461  -0.42314  -0.42176
 Alpha  occ. eigenvalues --   -0.42069  -0.42037  -0.41940  -0.41601  -0.41497
 Alpha  occ. eigenvalues --   -0.41356  -0.40771  -0.40408  -0.40274  -0.40220
 Alpha  occ. eigenvalues --   -0.40154  -0.39969  -0.39863  -0.39315  -0.39269
 Alpha  occ. eigenvalues --   -0.38972  -0.38866  -0.38057  -0.37870  -0.37530
 Alpha  occ. eigenvalues --   -0.37336  -0.37173  -0.36485  -0.36343  -0.36326
 Alpha  occ. eigenvalues --   -0.35371  -0.35334  -0.34485  -0.34418  -0.34287
 Alpha  occ. eigenvalues --   -0.33866  -0.33203  -0.33077  -0.32439  -0.31878
 Alpha  occ. eigenvalues --   -0.31756  -0.31405  -0.31046  -0.30855  -0.30161
 Alpha  occ. eigenvalues --   -0.29658  -0.29099  -0.28747  -0.24474  -0.24065
 Alpha  occ. eigenvalues --   -0.21483  -0.21462
 Alpha virt. eigenvalues --   -0.08794  -0.08448  -0.02707  -0.01789  -0.00370
 Alpha virt. eigenvalues --    0.00118   0.00578   0.01807   0.01995   0.02163
 Alpha virt. eigenvalues --    0.04374   0.04814   0.05177   0.05477   0.05836

 Mulliken charges:
               1
     1  Mg   0.834449
     2  C   -0.008396
     3  C   -0.051072
     4  C   -0.074890
     5  C   -0.087912
     6  N   -0.224630
     7  C   -0.070899
     8  C    0.059354
     9  C   -0.071614
    10  C   -0.036596
    11  C    0.062105
    12  C    0.059731
    13  C   -0.072188
    14  H    0.007746
    15  N   -0.409469
    16  C    0.147854
    17  C   -0.174490
    18  C   -0.015326
    19  C    0.192165
    20  C    0.144597
    21  C   -0.033290
    22  O   -0.215701
    23  C    0.089246
    24  N   -0.319229
    25  C    0.023089
    26  C   -0.073009
    27  C   -0.047458
    28  C    0.019187
    29  C    0.084303
    30  C    0.042807
    31  C    0.012939
    32  N   -0.344568
    33  C    0.143212
    34  C   -0.151054
    35  C    0.030899
    36  C    0.129282
    37  C    0.139485
    38  C   -0.006516
    39  O   -0.179817
    40  C   -0.020493
    41  C    0.217701
    42  O   -0.226399
    43  O   -0.390005
    44  C    0.179636
    45  H   -0.026328
    46  H   -0.046923
    47  H   -0.027801
    48  H    0.012225
    49  H    0.017819
    50  H    0.026301
    51  H    0.015294
    52  H    0.028891
    53  H    0.025176
    54  H    0.019044
    55  H    0.034375
    56  H    0.030260
    57  H    0.044821
    58  H    0.045435
    59  H    0.008985
    60  H    0.054022
    61  H    0.041933
    62  H    0.028073
    63  H    0.008464
    64  H   -0.003902
    65  H    0.016879
    66  H    0.020069
    67  H    0.021287
    68  H    0.004888
    69  H    0.011211
    70  H   -0.004505
    71  H    0.017481
    72  H    0.028225
    73  H    0.012459
    74  H    0.025038
    75  H    0.037634
    76  H    0.040532
    77  H    0.031527
    78  H    0.052774
    79  H    0.033572
    80  Mg   0.828936
    81  C   -0.030272
    82  C   -0.118206
    83  C   -0.096002
    84  C   -0.030493
    85  N   -0.261069
    86  C   -0.046108
    87  C   -0.037683
    88  C   -0.022697
    89  C    0.032228
    90  C    0.082827
    91  C    0.069542
    92  C   -0.053107
    93  H    0.008481
    94  N   -0.381662
    95  C    0.167555
    96  C   -0.137030
    97  C   -0.024681
    98  C    0.115527
    99  C    0.116993
   100  C    0.007380
   101  O   -0.226559
   102  C    0.070459
   103  N   -0.264370
   104  C    0.101587
   105  C   -0.027382
   106  C   -0.054100
   107  C    0.007691
   108  C    0.065023
   109  C    0.060302
   110  C    0.025637
   111  N   -0.347637
   112  C    0.034483
   113  C   -0.140321
   114  C    0.052354
   115  C    0.114931
   116  C    0.104370
   117  C   -0.012339
   118  O   -0.157326
   119  C   -0.046266
   120  C    0.232194
   121  O   -0.211948
   122  O   -0.335438
   123  C    0.185505
   124  H   -0.025991
   125  H   -0.042727
   126  H   -0.041116
   127  H   -0.000718
   128  H    0.006119
   129  H    0.004930
   130  H    0.021634
   131  H    0.031777
   132  H   -0.004018
   133  H    0.028903
   134  H    0.025652
   135  H    0.027221
   136  H   -0.002837
   137  H    0.041088
   138  H    0.035886
   139  H    0.040803
   140  H    0.068737
   141  H    0.028203
   142  H    0.010231
   143  H    0.006684
   144  H    0.011348
   145  H    0.019366
   146  H    0.006930
   147  H    0.016835
   148  H    0.001345
   149  H    0.007778
   150  H    0.022103
   151  H    0.031326
   152  H    0.034193
   153  H    0.016132
   154  H    0.019403
   155  H    0.024850
   156  H    0.038228
   157  H    0.041672
   158  H    0.026721
 Sum of Mulliken charges =  -0.00000

 Dipole moment (field-independent basis, Debye):
    X=             -0.0067    Y=              1.5079    Z=             -3.8315  Tot=              4.1176
 Quadrupole moment (field-independent basis, Debye-Ang):
   XX=            -49.0867   YY=           -598.8933   ZZ=           -502.8920
   XY=            166.6699   XZ=             -8.3605   YZ=              5.0904

 Normal termination of Gaussian 16 at Thu Sep  2 14:00:17 2021.
