 Gaussian 16, Revision A.03,
 Gaussian 16:  ES64L-G16RevA.03 25-Dec-2016

 -----------------------------------------------------------
 #p cam-b3lyp/Def2SVP td=(nstates=5, root=1) density=current
 -----------------------------------------------------------

 --------------------------------
 TDDFT excited states in gaussian
 --------------------------------
 Symbolic Z-matrix:
 Charge =  0 Multiplicity = 1

                         Standard orientation:
 ---------------------------------------------------------------------
 Center     Atomic      Atomic             Coordinates (Angstroms)
 Number     Number       Type             X           Y           Z
 ---------------------------------------------------------------------
      1         12           0        0.665963   -0.040044   -0.161967
      2          6           0       -2.793132    0.332417   -0.315146
      3          6           0        0.269200   -3.455825   -0.062608
      4          6           0        4.011487   -0.219310    0.259557
      5          6           0        0.923746    3.512072    0.130819
      6          7           0       -1.069088   -1.349208   -0.077196
      7          6           0       -2.381577   -1.005381   -0.180071
      8          6           0       -3.280160   -2.245601   -0.269996
      9          6           0       -2.228306   -3.417756   -0.033367
     10          6           0       -0.895561   -2.662803   -0.074834
     11          6           0       -2.438145   -4.114677    1.305526
     12          6           0       -3.960285   -2.501389   -1.661991
     13          6           0       -5.268840   -3.248105   -1.666218
     14          1           0       -5.682920   -3.988171   -0.473921
     15          7           0        1.937501   -1.597136   -0.027901
     16          6           0        1.564498   -2.955779    0.002667
     17          6           0        2.788643   -3.710159   -0.063830
     18          6           0        3.895093   -2.824366   -0.026125
     19          6           0        3.307160   -1.465988    0.076027
     20          6           0        2.840040   -5.217748    0.062372
     21          6           0        5.342696   -3.074292   -0.106536
     22          8           0        6.178781   -2.230709    0.137788
     23          6           0        5.886242   -4.526695   -0.362646
     24          7           0        2.333576    1.450943   -0.011127
     25          6           0        3.570958    1.100392    0.175169
     26          6           0        4.495181    2.342899    0.349895
     27          6           0        3.557947    3.531686    0.238783
     28          6           0        2.147690    2.843247    0.163606
     29          6           0        5.361129    2.211657    1.690092
     30          6           0        3.894441    4.460357   -0.947063
     31          6           0        4.781340    5.724940   -0.641885
     32          7           0       -0.538479    1.576813   -0.354086
     33          6           0       -0.310855    2.968063   -0.210566
     34          6           0       -1.502919    3.704116   -0.396370
     35          6           0       -2.520516    2.658613   -0.356413
     36          6           0       -1.829681    1.413175   -0.365025
     37          6           0       -1.662370    5.203214   -0.220564
     38          6           0       -3.929115    2.513164   -0.326556
     39          8           0       -4.841751    3.328586   -0.369592
     40          6           0       -4.170425    0.864264   -0.388651
     41          6           0       -5.079967    0.558845    0.765047
     42          8           0       -4.817282    0.804430    1.947052
     43          8           0       -6.354097    0.072379    0.346953
     44          6           0       -7.321483   -0.243799    1.443975
     45          1           0        0.068375   -4.529444   -0.032468
     46          1           0        5.045445   -0.364939    0.578080
     47          1           0        0.949635    4.602950    0.163412
     48          1           0       -3.991747   -2.163760    0.551918
     49          1           0       -2.285119   -4.198688   -0.791554
     50          1           0       -3.410971   -3.868696    1.730348
     51          1           0       -1.622924   -3.935325    2.007017
     52          1           0       -2.566714   -5.194052    1.224460
     53          1           0       -3.236654   -3.022674   -2.287695
     54          1           0       -4.044295   -1.528619   -2.147005
     55          1           0       -5.182843   -4.029940   -2.420509
     56          1           0       -6.073642   -2.552879   -1.905217
     57          1           0        3.318985   -5.555560    0.981328
     58          1           0        3.342392   -5.612116   -0.821919
     59          1           0        1.878374   -5.728687    0.106901
     60          1           0        5.863378   -5.025728    0.606486
     61          1           0        6.948131   -4.491805   -0.606490
     62          1           0        5.239427   -5.068719   -1.051456
     63          1           0        5.170755    2.263456   -0.502008
     64          1           0        3.493356    4.084964    1.174435
     65          1           0        5.198312    3.073039    2.337720
     66          1           0        6.437217    2.245151    1.518617
     67          1           0        4.988680    1.303013    2.164905
     68          1           0        2.936502    4.803773   -1.339185
     69          1           0        4.357715    3.834005   -1.709547
     70          1           0        4.114872    6.521823   -0.310004
     71          1           0        5.465906    6.087600   -1.408901
     72          1           0        5.304647    5.384557    0.251004
     73          1           0       -1.368824    5.597833   -1.192944
     74          1           0       -0.989109    5.588350    0.544349
     75          1           0       -2.604385    5.544176    0.210836
     76          1           0       -4.597803    0.609462   -1.359248
     77          1           0       -7.585573    0.645650    2.014889
     78          1           0       -7.046992   -1.005154    2.174594
     79          1           0       -8.177837   -0.532393    0.834492
 ---------------------------------------------------------------------

 SCF Done:  E(RCAM-B3LYP) =  -2034.93556905     A.U. after   19 cycles

 Excitation energies and oscillator strengths:

 Excited State   1:      Singlet-A      1.7264 eV  718.15 nm  f=0.3735  <S**2>=0.000
     155 ->158         0.17549
     156 ->157         0.68643
     155 <-158         0.10555
 This state for optimization and/or second-order correction.
 Total Energy, E(TD-HF/TD-DFT) =  -2034.87212321
 Copying the excited state density for this state as the 1-particle RhoCI density.

 Excited State   2:      Singlet-A      2.2226 eV  557.83 nm  f=0.1465  <S**2>=0.000
     155 ->157         0.65066
     156 ->158        -0.26117

 Excited State   3:      Singlet-A      3.3852 eV  366.26 nm  f=0.0192  <S**2>=0.000
     150 ->157         0.19689
     152 ->157         0.42983
     153 ->157         0.33723
     154 ->157        -0.30468
     156 ->158         0.18119

 Excited State   4:      Singlet-A      3.4331 eV  361.14 nm  f=0.0005  <S**2>=0.000
     150 ->157        -0.15088
     150 ->159        -0.10680
     151 ->157         0.45556
     151 ->159         0.19102
     152 ->157         0.17138
     153 ->157        -0.30713
     153 ->159         0.13929
     153 ->160        -0.11970
     154 ->157        -0.14094

 Excited State   5:      Singlet-A      3.4364 eV  360.80 nm  f=0.0345  <S**2>=0.000
     150 ->157        -0.16533
     150 ->159        -0.11230
     151 ->157         0.32609
     151 ->159         0.12714
     152 ->157        -0.13145
     153 ->157         0.39352
     153 ->159        -0.20513
     153 ->160         0.14527
     154 ->157         0.19346
     156 ->158        -0.15736

 The electronic state is 1-A.
 Alpha  occ. eigenvalues --  -46.87992 -19.24155 -19.19456 -19.19276 -19.18225
 Alpha  occ. eigenvalues --  -14.42691 -14.41655 -14.40174 -14.39357 -10.39070
 Alpha  occ. eigenvalues --  -10.35476 -10.34343 -10.31704 -10.31614 -10.31193
 Alpha  occ. eigenvalues --  -10.31162 -10.30857 -10.30815 -10.30697 -10.29705
 Alpha  occ. eigenvalues --  -10.28904 -10.28873 -10.28492 -10.28109 -10.28053
 Alpha  occ. eigenvalues --  -10.27940 -10.27853 -10.27776 -10.27774 -10.27763
 Alpha  occ. eigenvalues --  -10.27619 -10.27508 -10.27481 -10.26886 -10.26815
 Alpha  occ. eigenvalues --  -10.26370 -10.26351 -10.26333 -10.25999 -10.25866
 Alpha  occ. eigenvalues --  -10.25858 -10.25808 -10.24537  -3.16687  -1.91599
 Alpha  occ. eigenvalues --   -1.91135  -1.91006  -1.13451  -1.11132  -1.08631
 Alpha  occ. eigenvalues --   -1.05830  -1.05202  -1.03959  -1.03387  -1.02432
 Alpha  occ. eigenvalues --   -0.92111  -0.89302  -0.88985  -0.88418  -0.87776
 Alpha  occ. eigenvalues --   -0.87496  -0.86276  -0.84341  -0.82998  -0.82214
 Alpha  occ. eigenvalues --   -0.81505  -0.80402  -0.80038  -0.78800  -0.77281
 Alpha  occ. eigenvalues --   -0.76875  -0.75874  -0.75072  -0.73133  -0.71630
 Alpha  occ. eigenvalues --   -0.69577  -0.68986  -0.67997  -0.67301  -0.65799
 Alpha  occ. eigenvalues --   -0.65265  -0.64964  -0.64622  -0.61407  -0.60361
 Alpha  occ. eigenvalues --   -0.59653  -0.59331  -0.58544  -0.57793  -0.57365
 Alpha  occ. eigenvalues --   -0.56273  -0.54986  -0.54640  -0.54017  -0.53406
 Alpha  occ. eigenvalues --   -0.53247  -0.52916  -0.52503  -0.52383  -0.52269
 Alpha  occ. eigenvalues --   -0.52062  -0.51606  -0.51031  -0.50573  -0.50149
 Alpha  occ. eigenvalues --   -0.49882  -0.49619  -0.49525  -0.49299  -0.49096
 Alpha  occ. eigenvalues --   -0.48581  -0.48395  -0.48159  -0.47668  -0.47511
 Alpha  occ. eigenvalues --   -0.47228  -0.47154  -0.46945  -0.46721  -0.45785
 Alpha  occ. eigenvalues --   -0.45086  -0.45062  -0.44701  -0.44548  -0.44268
 Alpha  occ. eigenvalues --   -0.44103  -0.43906  -0.43386  -0.43031  -0.42897
 Alpha  occ. eigenvalues --   -0.42627  -0.42488  -0.42012  -0.41851  -0.41508
 Alpha  occ. eigenvalues --   -0.41316  -0.40830  -0.40276  -0.39876  -0.39441
 Alpha  occ. eigenvalues --   -0.38636  -0.37792  -0.37244  -0.36998  -0.36174
 Alpha  occ. eigenvalues --   -0.35794  -0.34387  -0.33865  -0.33525  -0.31672
 Alpha  occ. eigenvalues --   -0.31087  -0.30522  -0.29788  -0.29495  -0.24201
 Alpha  occ. eigenvalues --   -0.21558
 Alpha virt. eigenvalues --   -0.09069  -0.01666   0.00199   0.02386   0.03733
 Alpha virt. eigenvalues --    0.04697   0.05196   0.06117   0.06766   0.08163
 Alpha virt. eigenvalues --    0.08537   0.09257   0.09540   0.09668   0.10769

 Mulliken charges:
               1
     1  Mg   0.827348
     2  C   -0.085075
     3  C   -0.106392
     4  C   -0.072757
     5  C   -0.079396
     6  N   -0.275168
     7  C   -0.018797
     8  C   -0.001220
     9  C   -0.089562
    10  C    0.058496
    11  C    0.063772
    12  C    0.057850
    13  C   -0.050425
    14  H    0.023081
    15  N   -0.444420
    16  C    0.214174
    17  C   -0.142563
    18  C   -0.002112
    19  C    0.124571
    20  C    0.101155
    21  C   -0.035483
    22  O   -0.203877
    23  C    0.056347
    24  N   -0.263925
    25  C    0.032608
    26  C   -0.045346
    27  C    0.001912
    28  C    0.028036
    29  C    0.062377
    30  C    0.038981
    31  C    0.012994
    32  N   -0.354671
    33  C    0.136230
    34  C   -0.135702
    35  C   -0.032712
    36  C    0.168921
    37  C    0.107456
    38  C    0.040050
    39  O   -0.171396
    40  C   -0.008245
    41  C    0.223663
    42  O   -0.232830
    43  O   -0.374434
    44  C    0.182070
    45  H   -0.024422
    46  H    0.002528
    47  H   -0.021781
    48  H    0.023022
    49  H    0.016814
    50  H    0.010376
    51  H    0.030416
    52  H    0.001907
    53  H    0.003397
    54  H    0.002997
    55  H    0.027528
    56  H    0.044111
    57  H    0.035131
    58  H    0.023202
    59  H    0.000811
    60  H    0.027319
    61  H    0.024521
    62  H    0.015903
    63  H    0.026134
    64  H    0.005335
    65  H    0.006848
    66  H    0.024675
    67  H    0.035003
    68  H    0.002040
    69  H    0.006997
    70  H    0.015839
    71  H    0.034133
    72  H    0.009621
    73  H    0.034280
    74  H    0.020804
    75  H    0.043624
    76  H    0.041590
    77  H    0.040542
    78  H    0.037471
    79  H    0.035702
 Sum of Mulliken charges =  -0.00000

 Dipole moment (field-independent basis, Debye):
    X=              0.8930    Y=             -2.8001    Z=             -1.0152  Tot=              3.1094
 Quadrupole moment (field-independent basis, Debye-Ang):
   XX=           -275.7742   YY=           -227.6136   ZZ=           -257.9605
   XY=             34.2086   XZ=              0.5737   YZ=              0.9410

 Normal termination of Gaussian 16 at Tue Oct 12 16:07:36 2021.
