 Gaussian 16, Revision A.03,
 Gaussian 16:  ES64L-G16RevA.03 25-Dec-2016

 -----------------------------------
 #p cam-b3lyp/Def2SVP td=(nstates=5)
 -----------------------------------

 --------------------------------
 TDDFT excited states in gaussian
 --------------------------------
 Symbolic Z-matrix:
 Charge =  0 Multiplicity = 1

                         Standard orientation:
 ---------------------------------------------------------------------
 Center     Atomic      Atomic             Coordinates (Angstroms)
 Number     Number       Type             X           Y           Z
 ---------------------------------------------------------------------
      1         12           0       25.770741    0.694864    0.182670
      2          6           0       26.777337   -2.538936   -0.090827
      3          6           0       23.177689    0.305077   -2.059476
      4          6           0       25.069554    4.033851    0.470536
      5          6           0       28.706756    1.338601    2.196698
      6          7           0       25.211801   -0.876239   -1.083216
      7          6           0       25.606539   -2.235976   -0.848303
      8          6           0       24.694893   -3.175792   -1.530497
      9          6           0       23.848555   -2.182081   -2.446169
     10          6           0       24.065058   -0.804310   -1.860965
     11          6           0       24.286122   -2.220040   -3.995132
     12          6           0       23.931703   -4.150672   -0.581958
     13          6           0       23.893596   -5.576515   -1.029159
     14          1           0       23.685790   -5.813939   -2.576844
     15          7           0       24.274241    1.976817   -0.623339
     16          6           0       23.340707    1.572929   -1.530948
     17          6           0       22.514112    2.693800   -1.821854
     18          6           0       22.970671    3.818003   -1.028797
     19          6           0       24.146589    3.300539   -0.252067
     20          6           0       21.407933    2.642447   -2.898305
     21          6           0       22.475456    5.220470   -0.860880
     22          8           0       22.996875    6.149840   -0.234419
     23          6           0       21.083823    5.523477   -1.534653
     24          7           0       26.821948    2.516508    1.125504
     25          6           0       26.266416    3.701777    1.170548
     26          6           0       26.962004    4.634154    2.160228
     27          6           0       28.123105    3.752243    2.701961
     28          6           0       27.892793    2.442242    1.951053
     29          6           0       27.485000    6.008037    1.497057
     30          6           0       27.952748    3.592672    4.276996
     31          6           0       26.760826    2.805746    4.875815
     32          7           0       27.508331   -0.329388    0.785075
     33          6           0       28.540681    0.051497    1.621373
     34          6           0       29.329727   -1.168042    1.889550
     35          6           0       28.726853   -2.230053    1.285218
     36          6           0       27.595714   -1.644622    0.608870
     37          6           0       30.654209   -1.172029    2.571838
     38          6           0       28.758724   -3.669843    1.029301
     39          8           0       29.548218   -4.530902    1.379600
     40          6           0       27.479462   -3.897556    0.110067
     41          6           0       27.964458   -4.387343   -1.196282
     42          8           0       28.786544   -3.849458   -1.958400
     43          8           0       27.302559   -5.585718   -1.371324
     44          6           0       27.478534   -6.188330   -2.699156
     45          1           0       22.315404    0.210423   -2.722546
     46          1           0       24.719420    5.059555    0.608752
     47          1           0       29.554215    1.496252    2.866147
     48          1           0       25.354048   -3.792599   -2.142684
     49          1           0       22.797448   -2.451820   -2.348240
     50          1           0       24.907226   -3.077898   -4.252833
     51          1           0       24.963027   -1.377486   -4.135866
     52          1           0       23.342529   -2.099037   -4.525575
     53          1           0       22.898083   -3.822163   -0.472896
     54          1           0       24.498822   -4.071575    0.345415
     55          1           0       23.056523   -6.132841   -0.609200
     56          1           0       24.696832   -6.272615   -0.787195
     57          1           0       20.490925    2.127132   -2.612802
     58          1           0       21.927639    2.186924   -3.741056
     59          1           0       20.998447    3.624351   -3.134581
     60          1           0       21.219248    5.578069   -2.614858
     61          1           0       20.632183    6.363911   -1.007911
     62          1           0       20.323003    4.772100   -1.322268
     63          1           0       26.269556    4.853190    2.972677
     64          1           0       29.112459    4.171252    2.518130
     65          1           0       26.803372    6.784483    1.846202
     66          1           0       27.423228    5.947702    0.410000
     67          1           0       28.476157    6.385034    1.745969
     68          1           0       27.984142    4.524745    4.840992
     69          1           0       28.830679    2.992171    4.517405
     70          1           0       27.255411    1.961818    5.356924
     71          1           0       26.030075    2.511728    4.123426
     72          1           0       26.190787    3.364257    5.618221
     73          1           0       30.655425   -2.136280    3.079155
     74          1           0       30.775969   -0.341567    3.267507
     75          1           0       31.411282   -1.328583    1.804553
     76          1           0       27.018591   -4.720602    0.655589
     77          1           0       26.984318   -7.152628   -2.577410
     78          1           0       28.548813   -6.365351   -2.805344
     79          1           0       27.179941   -5.568567   -3.544887
     80         12           0      -26.678872   -0.183746    0.047669
     81          6           0      -23.263190   -0.783624   -0.581899
     82          6           0      -26.271123   -1.795503    2.959820
     83          6           0      -29.695223    0.866710    0.739608
     84          6           0      -26.570677    2.046481   -2.742465
     85          7           0      -24.932452   -1.132053    1.072358
     86          6           0      -23.667904   -1.346361    0.637928
     87          6           0      -22.823346   -2.157588    1.599505
     88          6           0      -23.948110   -2.677443    2.582148
     89          6           0      -25.152215   -1.829026    2.229235
     90          6           0      -24.265498   -4.225952    2.473858
     91          6           0      -21.599291   -1.516171    2.387643
     92          6           0      -21.416388    0.021394    2.490372
     93          1           0      -20.780299    0.602115    3.808296
     94          7           0      -27.860740   -0.579087    1.632701
     95          6           0      -27.505169   -1.155731    2.772907
     96          6           0      -28.639383   -1.066658    3.732486
     97          6           0      -29.738141   -0.400476    2.977445
     98          6           0      -29.099296    0.004978    1.725082
     99          6           0      -28.658033   -1.736419    5.080064
    100          6           0      -31.120292   -0.114129    3.503473
    101          8           0      -31.420527   -0.520648    4.623255
    102          6           0      -32.222023    0.730072    2.762767
    103          7           0      -27.975107    1.392249   -0.836145
    104          6           0      -29.184275    1.416513   -0.392922
    105          6           0      -30.020041    2.386428   -1.341549
    106          6           0      -28.914363    2.906890   -2.262294
    107          6           0      -27.697167    2.068120   -1.923436
    108          6           0      -31.239867    1.829749   -2.094478
    109          6           0      -28.477476    4.431429   -1.953070
    110          6           0      -28.798711    5.471584   -3.041896
    111          7           0      -25.266131    0.574040   -1.346681
    112          6           0      -25.379731    1.351449   -2.468847
    113          6           0      -24.150614    1.256459   -3.298486
    114          6           0      -23.210497    0.513392   -2.529896
    115          6           0      -24.019986    0.045271   -1.406277
    116          6           0      -23.853640    2.006915   -4.615962
    117          6           0      -21.883420    0.007442   -2.415416
    118          8           0      -20.826426    0.193828   -3.042267
    119          6           0      -21.872126   -0.927171   -1.179052
    120          6           0      -21.463393   -2.316195   -1.677915
    121          8           0      -20.448731   -2.953321   -1.577125
    122          8           0      -22.610678   -2.941212   -2.178525
    123          6           0      -22.487636   -4.364509   -2.622298
    124          1           0      -26.107235   -2.318024    3.904779
    125          1           0      -30.716601    1.157656    0.996791
    126          1           0      -26.641717    2.520328   -3.723360
    127          1           0      -22.482774   -3.009655    1.011487
    128          1           0      -23.629194   -2.512643    3.611442
    129          1           0      -23.680715   -4.688637    1.679549
    130          1           0      -25.286719   -4.209544    2.094725
    131          1           0      -24.135854   -4.696092    3.448844
    132          1           0      -20.693215   -1.940451    1.954883
    133          1           0      -21.601251   -1.898093    3.409104
    134          1           0      -22.415780    0.442164    2.379383
    135          1           0      -20.685481    0.425542    1.790661
    136          1           0      -29.653263   -1.788710    5.521021
    137          1           0      -27.892732   -1.240161    5.678018
    138          1           0      -28.226800   -2.718492    4.883194
    139          1           0      -32.515485    0.498430    1.738196
    140          1           0      -31.856421    1.753006    2.673036
    141          1           0      -33.169854    0.727547    3.300246
    142          1           0      -30.481501    3.195240   -0.776005
    143          1           0      -29.085142    2.912912   -3.339379
    144          1           0      -31.417154    0.779981   -1.860145
    145          1           0      -31.154818    1.984836   -3.170554
    146          1           0      -32.178565    2.307227   -1.813466
    147          1           0      -27.402578    4.519966   -1.801460
    148          1           0      -28.979627    4.692925   -1.021387
    149          1           0      -28.087242    6.292834   -3.131762
    150          1           0      -29.741634    5.922947   -2.733368
    151          1           0      -28.823981    4.876239   -3.954680
    152          1           0      -24.539246    2.821193   -4.848176
    153          1           0      -23.948736    1.238100   -5.382369
    154          1           0      -22.806999    2.310073   -4.604542
    155          1           0      -21.136222   -0.566340   -0.461239
    156          1           0      -21.531866   -4.706132   -3.019058
    157          1           0      -23.181684   -4.421603   -3.460620
    158          1           0      -22.821606   -5.151276   -1.945558
 ---------------------------------------------------------------------

 SCF Done:  E(RCAM-B3LYP) =  -4069.78957177     A.U. after   19 cycles

 Excitation energies and oscillator strengths:

 Excited State   1:      Singlet-A      1.6991 eV  729.68 nm  f=0.3825  <S**2>=0.000
     310 -> 315       -0.18621
     312 -> 314        0.68410
     310 <- 315       -0.10902
 This state for optimization and/or second-order correction.
 Total Energy, E(TD-HF/TD-DFT) =  -4069.72712925
 Copying the excited state density for this state as the 1-particle RhoCI density.

 Excited State   2:      Singlet-A      1.7690 eV  700.89 nm  f=0.4095  <S**2>=0.000
     309 -> 316        0.18510
     311 -> 313        0.68378
     309 <- 316        0.10633

 Excited State   3:      Singlet-A      2.2666 eV  547.00 nm  f=0.0453  <S**2>=0.000
     310 -> 314        0.60928
     312 -> 315        0.34928

 Excited State   4:      Singlet-A      2.2834 eV  542.99 nm  f=0.0990  <S**2>=0.000
     309 -> 313        0.63711
     311 -> 316       -0.29627

 Excited State   5:      Singlet-A      3.0888 eV  401.40 nm  f=0.0000  <S**2>=0.000
     312 -> 313        0.70710

 The electronic state is 1-A.
 Alpha  occ. eigenvalues --  -46.90103 -46.89255 -19.25656 -19.24635 -19.20452
 Alpha  occ. eigenvalues --  -19.20261 -19.19558 -19.19501 -19.19501 -19.18633
 Alpha  occ. eigenvalues --  -14.42350 -14.42296 -14.42196 -14.41875 -14.40471
 Alpha  occ. eigenvalues --  -14.40199 -14.39506 -14.39486 -10.39916 -10.39524
 Alpha  occ. eigenvalues --  -10.35725 -10.35708 -10.35639 -10.35412 -10.31985
 Alpha  occ. eigenvalues --  -10.31904 -10.31836 -10.31777 -10.31557 -10.31157
 Alpha  occ. eigenvalues --  -10.31061 -10.30874 -10.30805 -10.30763 -10.30339
 Alpha  occ. eigenvalues --  -10.30210 -10.30180 -10.30143 -10.30135 -10.29901
 Alpha  occ. eigenvalues --  -10.29898 -10.29593 -10.29442 -10.29239 -10.29088
 Alpha  occ. eigenvalues --  -10.29005 -10.28833 -10.28821 -10.28789 -10.28337
 Alpha  occ. eigenvalues --  -10.28335 -10.28134 -10.28055 -10.27943 -10.27890
 Alpha  occ. eigenvalues --  -10.27856 -10.27843 -10.27761 -10.27657 -10.27600
 Alpha  occ. eigenvalues --  -10.27588 -10.27560 -10.27498 -10.27416 -10.27408
 Alpha  occ. eigenvalues --  -10.27381 -10.27354 -10.27280 -10.27218 -10.27123
 Alpha  occ. eigenvalues --  -10.26870 -10.26621 -10.26601 -10.26591 -10.26495
 Alpha  occ. eigenvalues --  -10.26411 -10.26379 -10.26231 -10.26210 -10.25849
 Alpha  occ. eigenvalues --  -10.25846 -10.25822 -10.25575 -10.25495 -10.25413
 Alpha  occ. eigenvalues --  -10.24735  -3.18581  -3.17658  -1.93469  -1.93035
 Alpha  occ. eigenvalues --   -1.92884  -1.92562  -1.92103  -1.91960  -1.16095
 Alpha  occ. eigenvalues --   -1.15967  -1.10202  -1.09608  -1.09603  -1.09365
 Alpha  occ. eigenvalues --   -1.07476  -1.07316  -1.06780  -1.05131  -1.04860
 Alpha  occ. eigenvalues --   -1.04047  -1.03781  -1.03339  -1.02897  -1.01717
 Alpha  occ. eigenvalues --   -0.93620  -0.92381  -0.89842  -0.89104  -0.88859
 Alpha  occ. eigenvalues --   -0.88798  -0.88652  -0.88337  -0.88011  -0.87282
 Alpha  occ. eigenvalues --   -0.86939  -0.86914  -0.86252  -0.85446  -0.84928
 Alpha  occ. eigenvalues --   -0.84653  -0.83992  -0.83378  -0.82939  -0.82422
 Alpha  occ. eigenvalues --   -0.81830  -0.81542  -0.81212  -0.80846  -0.80581
 Alpha  occ. eigenvalues --   -0.79969  -0.78554  -0.78089  -0.77747  -0.77362
 Alpha  occ. eigenvalues --   -0.77207  -0.77066  -0.76727  -0.75809  -0.75406
 Alpha  occ. eigenvalues --   -0.74981  -0.73356  -0.72472  -0.72434  -0.72183
 Alpha  occ. eigenvalues --   -0.69873  -0.69603  -0.69306  -0.69267  -0.68727
 Alpha  occ. eigenvalues --   -0.68355  -0.67564  -0.67437  -0.66893  -0.65733
 Alpha  occ. eigenvalues --   -0.65550  -0.65239  -0.65005  -0.64912  -0.64710
 Alpha  occ. eigenvalues --   -0.64396  -0.63201  -0.62542  -0.60640  -0.60305
 Alpha  occ. eigenvalues --   -0.60237  -0.59502  -0.59424  -0.58921  -0.58782
 Alpha  occ. eigenvalues --   -0.58590  -0.58125  -0.57979  -0.57488  -0.57350
 Alpha  occ. eigenvalues --   -0.56408  -0.55929  -0.55913  -0.55733  -0.55543
 Alpha  occ. eigenvalues --   -0.55112  -0.55071  -0.54882  -0.54568  -0.54426
 Alpha  occ. eigenvalues --   -0.53984  -0.53649  -0.53544  -0.53195  -0.53158
 Alpha  occ. eigenvalues --   -0.53046  -0.52862  -0.52400  -0.52290  -0.52132
 Alpha  occ. eigenvalues --   -0.52056  -0.51946  -0.51805  -0.51573  -0.51507
 Alpha  occ. eigenvalues --   -0.51284  -0.51147  -0.51059  -0.50894  -0.50653
 Alpha  occ. eigenvalues --   -0.50054  -0.49860  -0.49836  -0.49657  -0.49525
 Alpha  occ. eigenvalues --   -0.49339  -0.49065  -0.48922  -0.48914  -0.48591
 Alpha  occ. eigenvalues --   -0.48589  -0.48551  -0.48523  -0.48478  -0.48330
 Alpha  occ. eigenvalues --   -0.48123  -0.47936  -0.47702  -0.47669  -0.47471
 Alpha  occ. eigenvalues --   -0.47386  -0.47273  -0.47243  -0.46971  -0.46849
 Alpha  occ. eigenvalues --   -0.46749  -0.46683  -0.46315  -0.46143  -0.46125
 Alpha  occ. eigenvalues --   -0.45941  -0.45880  -0.45621  -0.45566  -0.45396
 Alpha  occ. eigenvalues --   -0.45192  -0.44907  -0.44777  -0.44538  -0.44245
 Alpha  occ. eigenvalues --   -0.43955  -0.43913  -0.43617  -0.43465  -0.43331
 Alpha  occ. eigenvalues --   -0.43222  -0.43161  -0.42991  -0.42912  -0.42774
 Alpha  occ. eigenvalues --   -0.42714  -0.42310  -0.42292  -0.42142  -0.42108
 Alpha  occ. eigenvalues --   -0.42108  -0.42048  -0.41940  -0.41692  -0.41540
 Alpha  occ. eigenvalues --   -0.41502  -0.41283  -0.40959  -0.40746  -0.40720
 Alpha  occ. eigenvalues --   -0.40543  -0.40004  -0.39796  -0.39519  -0.39273
 Alpha  occ. eigenvalues --   -0.38890  -0.38244  -0.37875  -0.37695  -0.37498
 Alpha  occ. eigenvalues --   -0.37149  -0.36932  -0.36727  -0.36701  -0.36398
 Alpha  occ. eigenvalues --   -0.36359  -0.36263  -0.35051  -0.34671  -0.34300
 Alpha  occ. eigenvalues --   -0.34212  -0.33682  -0.33482  -0.31946  -0.31450
 Alpha  occ. eigenvalues --   -0.31223  -0.31114  -0.31083  -0.30999  -0.30986
 Alpha  occ. eigenvalues --   -0.30382  -0.29884  -0.29305  -0.24528  -0.24413
 Alpha  occ. eigenvalues --   -0.21568  -0.20958
 Alpha virt. eigenvalues --   -0.08948  -0.08488  -0.02359  -0.02067  -0.00654
 Alpha virt. eigenvalues --   -0.00244   0.01151   0.01834   0.01947   0.02169
 Alpha virt. eigenvalues --    0.04267   0.04730   0.04931   0.04937   0.05404

 Mulliken charges:
               1
     1  Mg   0.798393
     2  C    0.018698
     3  C   -0.098304
     4  C   -0.026584
     5  C   -0.072679
     6  N   -0.371569
     7  C   -0.042080
     8  C   -0.004790
     9  C   -0.083325
    10  C    0.109727
    11  C    0.079486
    12  C    0.115794
    13  C   -0.087224
    14  H   -0.012871
    15  N   -0.377585
    16  C    0.154378
    17  C   -0.133049
    18  C   -0.038202
    19  C    0.104453
    20  C    0.104471
    21  C    0.019095
    22  O   -0.205629
    23  C    0.005663
    24  N   -0.192984
    25  C   -0.005876
    26  C   -0.021520
    27  C    0.004545
    28  C    0.005362
    29  C    0.043636
    30  C   -0.019993
    31  C   -0.000257
    32  N   -0.317260
    33  C    0.124296
    34  C   -0.222848
    35  C    0.035489
    36  C    0.083080
    37  C    0.127713
    38  C    0.060043
    39  O   -0.156803
    40  C   -0.043877
    41  C    0.209649
    42  O   -0.230308
    43  O   -0.341659
    44  C    0.182871
    45  H   -0.025384
    46  H   -0.002700
    47  H   -0.021302
    48  H    0.011618
    49  H    0.000576
    50  H    0.022061
    51  H    0.023891
    52  H    0.028402
    53  H    0.014434
    54  H    0.017217
    55  H    0.020369
    56  H    0.040241
    57  H    0.031571
    58  H    0.040603
    59  H   -0.006161
    60  H    0.059093
    61  H    0.025866
    62  H    0.020817
    63  H    0.023732
    64  H    0.011257
    65  H    0.021397
    66  H    0.027447
    67  H    0.019020
    68  H    0.016320
    69  H   -0.003160
    70  H    0.022470
    71  H    0.020512
    72  H    0.015722
    73  H    0.023471
    74  H    0.018828
    75  H    0.042575
    76  H    0.039246
    77  H    0.040909
    78  H    0.037721
    79  H    0.041757
    80  Mg   0.823390
    81  C   -0.024854
    82  C   -0.082101
    83  C   -0.031311
    84  C   -0.095619
    85  N   -0.272479
    86  C   -0.080839
    87  C    0.045097
    88  C   -0.108069
    89  C    0.036592
    90  C    0.079833
    91  C    0.047756
    92  C   -0.094733
    93  H    0.010089
    94  N   -0.388584
    95  C    0.149228
    96  C   -0.157964
    97  C   -0.043809
    98  C    0.147775
    99  C    0.134739
   100  C    0.013431
   101  O   -0.209433
   102  C    0.034112
   103  N   -0.199549
   104  C    0.025772
   105  C   -0.006822
   106  C   -0.076355
   107  C    0.051528
   108  C    0.059914
   109  C   -0.001659
   110  C    0.015459
   111  N   -0.315885
   112  C    0.114080
   113  C   -0.179625
   114  C    0.031497
   115  C    0.134928
   116  C    0.119661
   117  C    0.021413
   118  O   -0.182668
   119  C   -0.017391
   120  C    0.214355
   121  O   -0.175921
   122  O   -0.370355
   123  C    0.173497
   124  H   -0.036640
   125  H   -0.077719
   126  H   -0.024227
   127  H    0.012980
   128  H    0.011033
   129  H    0.013894
   130  H    0.016950
   131  H    0.032864
   132  H    0.019916
   133  H    0.021110
   134  H    0.051487
   135  H    0.052534
   136  H    0.053429
   137  H    0.017450
   138  H    0.015901
   139  H    0.036763
   140  H    0.036768
   141  H    0.025256
   142  H    0.009811
   143  H    0.001058
   144  H    0.012006
   145  H    0.014775
   146  H    0.005307
   147  H    0.019535
   148  H    0.001097
   149  H    0.020978
   150  H    0.015895
   151  H    0.009302
   152  H    0.021180
   153  H    0.031331
   154  H    0.046305
   155  H    0.038465
   156  H    0.048689
   157  H    0.026437
   158  H    0.029955
 Sum of Mulliken charges =  -0.00000

 Dipole moment (field-independent basis, Debye):
    X=             -8.1580    Y=             -0.1631    Z=             -2.2655  Tot=              8.4683
 Quadrupole moment (field-independent basis, Debye-Ang):
   XX=           -590.9950   YY=           -507.9299   ZZ=           -507.9609
   XY=              8.6031   XZ=            106.4801   YZ=              9.4943

 Normal termination of Gaussian 16 at Tue Sep 14 16:59:48 2021.
