 Gaussian 16, Revision A.03,
 Gaussian 16:  ES64L-G16RevA.03 25-Dec-2016

 -----------------------------------
 #p cam-b3lyp/Def2SVP td=(nstates=5)
 -----------------------------------

 --------------------------------
 TDDFT excited states in gaussian
 --------------------------------
 Symbolic Z-matrix:
 Charge =  0 Multiplicity = 1

                         Standard orientation:
 ---------------------------------------------------------------------
 Center     Atomic      Atomic             Coordinates (Angstroms)
 Number     Number       Type             X           Y           Z
 ---------------------------------------------------------------------
      1         12           0      -13.058004   -0.264418   -0.409430
      2          6           0       -9.732623    0.108940    0.750939
      3          6           0      -13.765326    2.629942    1.418403
      4          6           0      -16.158957   -0.394720   -1.480245
      5          6           0      -12.305800   -3.497313   -1.445049
      6          7           0      -11.847475    1.179396    0.883258
      7          6           0      -10.502300    1.219533    1.093077
      8          6           0       -9.991611    2.374690    1.971264
      9          6           0      -11.411996    3.085379    2.247298
     10          6           0      -12.371446    2.225238    1.479312
     11          6           0      -11.833060    3.129117    3.769453
     12          6           0       -8.978552    3.305951    1.228909
     13          6           0       -7.499760    3.425266    1.576363
     14          1           0       -6.765128    4.754292    1.460149
     15          7           0      -14.740030    0.978859   -0.156260
     16          6           0      -14.856283    2.089053    0.692577
     17          6           0      -16.238706    2.511658    0.662929
     18          6           0      -16.919371    1.757104   -0.289420
     19          6           0      -15.921859    0.762384   -0.729693
     20          6           0      -16.621112    3.742886    1.411132
     21          6           0      -18.377919    1.779639   -0.745288
     22          8           0      -18.861899    1.018586   -1.588631
     23          6           0      -19.222214    2.882046   -0.239000
     24          7           0      -14.149884   -1.758098   -1.243115
     25          6           0      -15.373012   -1.535207   -1.812349
     26          6           0      -15.738211   -2.671529   -2.826652
     27          6           0      -14.566342   -3.635765   -2.696141
     28          6           0      -13.617636   -2.964440   -1.664538
     29          6           0      -17.158358   -3.283803   -2.595362
     30          6           0      -13.921656   -3.854596   -4.073325
     31          6           0      -13.553978   -5.238193   -4.469679
     32          7           0      -11.423100   -1.534552   -0.294010
     33          6           0      -11.242852   -2.805409   -0.778509
     34          6           0       -9.908944   -3.270653   -0.542020
     35          6           0       -9.163641   -2.110248   -0.003844
     36          6           0      -10.174939   -1.076841    0.110738
     37          6           0       -9.377086   -4.679060   -0.858022
     38          6           0       -7.864271   -1.575374    0.475500
     39          8           0       -6.726090   -2.072086    0.428733
     40          6           0       -8.207650   -0.111069    0.972933
     41          6           0       -7.777284   -0.216908    2.402599
     42          8           0       -8.421767   -0.613765    3.365884
     43          8           0       -6.592911    0.304786    2.569820
     44          6           0       -5.903386    0.161496    3.875048
     45          1           0      -13.805152    3.610001    1.897671
     46          1           0      -17.162791   -0.584896   -1.864892
     47          1           0      -12.070309   -4.487037   -1.840923
     48          1           0       -9.599174    1.940425    2.891632
     49          1           0      -11.569783    4.092420    1.859959
     50          1           0      -11.296100    2.471580    4.452588
     51          1           0      -12.883266    2.857438    3.870111
     52          1           0      -11.715007    4.152034    4.127415
     53          1           0       -9.363535    4.320328    1.334700
     54          1           0       -8.943183    3.055019    0.169539
     55          1           0       -7.063883    2.825372    0.777331
     56          1           0       -7.475287    2.994636    2.577443
     57          1           0      -16.988966    4.524338    0.747643
     58          1           0      -15.770921    4.149394    1.959462
     59          1           0      -17.416742    3.576468    2.136707
     60          1           0      -18.705856    3.831045   -0.384044
     61          1           0      -19.324597    2.864032    0.846127
     62          1           0      -20.181308    2.984088   -0.745763
     63          1           0      -15.745159   -2.125243   -3.769709
     64          1           0      -14.903726   -4.626451   -2.391940
     65          1           0      -17.768498   -2.740185   -1.874187
     66          1           0      -17.140869   -4.312439   -2.237129
     67          1           0      -17.660597   -3.418796   -3.553182
     68          1           0      -13.021495   -3.244776   -4.007731
     69          1           0      -14.531088   -3.533374   -4.917660
     70          1           0      -12.494722   -5.177756   -4.718422
     71          1           0      -14.216780   -5.593317   -5.258720
     72          1           0      -13.577412   -5.969380   -3.661358
     73          1           0       -9.520064   -5.315288    0.014625
     74          1           0       -8.326261   -4.592090   -1.133837
     75          1           0       -9.929801   -5.156022   -1.667709
     76          1           0       -7.557274    0.566141    0.419610
     77          1           0       -6.437351    0.612641    4.710662
     78          1           0       -4.881884    0.541200    3.883732
     79          1           0       -5.705722   -0.853797    4.217501
     80         12           0       12.695836   -0.367385    0.353286
     81          6           0       11.482643    2.590974   -1.096733
     82          6           0       10.262929   -0.102612    2.709806
     83          6           0       13.651867   -3.340762    1.323558
     84          6           0       14.538829   -0.773882   -2.713397
     85          7           0       11.138747    1.108155    0.766360
     86          6           0       10.804754    2.219958    0.045821
     87          6           0        9.443782    2.725699    0.547147
     88          6           0        9.435460    2.225254    1.987347
     89          6           0       10.260914    0.941614    1.775610
     90          6           0       10.131046    3.198588    2.966845
     91          6           0        8.260802    2.128668   -0.301372
     92          6           0        7.391391    3.129235   -1.210319
     93          1           0        7.358330    2.917164   -2.733474
     94          7           0       12.012842   -1.585798    1.777288
     95          6           0       11.009365   -1.292492    2.671895
     96          6           0       10.959907   -2.339130    3.644283
     97          6           0       12.010455   -3.278642    3.378860
     98          6           0       12.624290   -2.778677    2.114613
     99          6           0        9.923963   -2.373505    4.819675
    100          6           0       12.368437   -4.508534    4.289795
    101          8           0       11.811244   -4.661848    5.332929
    102          6           0       13.566140   -5.276877    3.972833
    103          7           0       13.679324   -1.990327   -0.716251
    104          6           0       14.225836   -2.912181    0.111696
    105          6           0       15.513722   -3.512377   -0.426858
    106          6           0       15.579266   -2.973775   -1.847855
    107          6           0       14.517193   -1.821929   -1.779348
    108          6           0       16.778383   -3.112256    0.419547
    109          6           0       15.325969   -3.963446   -3.080553
    110          6           0       16.441602   -4.410326   -3.986773
    111          7           0       13.139090    0.734232   -1.414728
    112          6           0       13.892839    0.453838   -2.561681
    113          6           0       13.786116    1.512021   -3.542741
    114          6           0       12.873615    2.375831   -2.988709
    115          6           0       12.464473    1.884759   -1.705256
    116          6           0       14.461684    1.537942   -4.850354
    117          6           0       12.158589    3.622688   -3.214056
    118          8           0       12.264410    4.435727   -4.140613
    119          6           0       11.326903    3.864705   -1.972066
    120          6           0       11.820703    5.162994   -1.343058
    121          8           0       12.993234    5.290354   -0.997901
    122          8           0       10.826703    6.153844   -1.354396
    123          6           0       11.236459    7.418769   -0.805415
    124          1           0        9.576510    0.094760    3.535457
    125          1           0       14.154842   -4.151534    1.852843
    126          1           0       15.186444   -0.852693   -3.589324
    127          1           0        9.419389    3.798769    0.355692
    128          1           0        8.399851    2.054767    2.278890
    129          1           0        9.350309    3.249862    3.724937
    130          1           0       10.255590    4.119894    2.397131
    131          1           0       11.090143    2.882777    3.377502
    132          1           0        7.548832    1.694527    0.400461
    133          1           0        8.657867    1.294180   -0.878817
    134          1           0        7.859058    4.106261   -1.086302
    135          1           0        6.357842    3.253099   -0.889209
    136          1           0        9.360422   -3.292433    4.978228
    137          1           0        9.214977   -1.572702    4.607041
    138          1           0       10.375486   -2.143689    5.784938
    139          1           0       13.568038   -5.716573    2.975217
    140          1           0       13.667004   -6.073808    4.709552
    141          1           0       14.457099   -4.697015    4.209844
    142          1           0       15.516857   -4.602170   -0.387381
    143          1           0       16.534047   -2.476722   -2.019493
    144          1           0       17.082685   -3.880583    1.130098
    145          1           0       16.628609   -2.123254    0.852584
    146          1           0       17.607435   -3.002127   -0.280959
    147          1           0       14.457230   -3.782798   -3.712692
    148          1           0       15.050495   -4.820150   -2.464938
    149          1           0       16.664069   -5.474176   -3.910399
    150          1           0       17.355333   -3.872622   -3.732497
    151          1           0       16.097616   -4.146208   -4.986518
    152          1           0       14.663266    0.506179   -5.139608
    153          1           0       15.419597    2.027578   -4.672683
    154          1           0       13.895449    2.114442   -5.580445
    155          1           0       10.328844    4.008508   -2.383731
    156          1           0       11.277822    7.449081    0.283706
    157          1           0       10.570158    8.223895   -1.113836
    158          1           0       12.215061    7.759329   -1.142644
 ---------------------------------------------------------------------

 SCF Done:  E(RCAM-B3LYP) =  -4069.80977559     A.U. after   17 cycles

 Excitation energies and oscillator strengths:

 Excited State   1:      Singlet-A      1.7236 eV  719.34 nm  f=0.3590  <S**2>=0.000
     309 -> 315       -0.19156
     312 -> 314        0.68255
     309 <- 315       -0.11107
 This state for optimization and/or second-order correction.
 Total Energy, E(TD-HF/TD-DFT) =  -4069.74643535
 Copying the excited state density for this state as the 1-particle RhoCI density.

 Excited State   2:      Singlet-A      1.7572 eV  705.58 nm  f=0.3860  <S**2>=0.000
     310 -> 316       -0.18331
     311 -> 313        0.68326
     310 <- 316       -0.10467

 Excited State   3:      Singlet-A      2.2202 eV  558.44 nm  f=0.1060  <S**2>=0.000
     310 -> 313        0.63624
     311 -> 316        0.29386

 Excited State   4:      Singlet-A      2.2830 eV  543.08 nm  f=0.0524  <S**2>=0.000
     309 -> 314        0.60481
     312 -> 315        0.35600

 Excited State   5:      Singlet-A      3.0154 eV  411.17 nm  f=0.0000  <S**2>=0.000
     312 -> 313        0.70704

 The electronic state is 1-A.
 Alpha  occ. eigenvalues --  -46.88630 -46.88527 -19.25985 -19.25316 -19.20537
 Alpha  occ. eigenvalues --  -19.19582 -19.19032 -19.18874 -19.18709 -19.18196
 Alpha  occ. eigenvalues --  -14.42585 -14.42080 -14.42020 -14.41903 -14.39823
 Alpha  occ. eigenvalues --  -14.39327 -14.39293 -14.38986 -10.40207 -10.38655
 Alpha  occ. eigenvalues --  -10.35975 -10.35443 -10.34996 -10.34514 -10.31963
 Alpha  occ. eigenvalues --  -10.31634 -10.31476 -10.31406 -10.31112 -10.31078
 Alpha  occ. eigenvalues --  -10.31072 -10.30912 -10.30776 -10.30743 -10.30600
 Alpha  occ. eigenvalues --  -10.30527 -10.30494 -10.29735 -10.29482 -10.29427
 Alpha  occ. eigenvalues --  -10.29217 -10.29042 -10.28859 -10.28768 -10.28740
 Alpha  occ. eigenvalues --  -10.28627 -10.28558 -10.28414 -10.28359 -10.28110
 Alpha  occ. eigenvalues --  -10.28039 -10.28030 -10.28024 -10.27949 -10.27879
 Alpha  occ. eigenvalues --  -10.27828 -10.27815 -10.27760 -10.27760 -10.27710
 Alpha  occ. eigenvalues --  -10.27521 -10.27487 -10.27181 -10.27057 -10.26980
 Alpha  occ. eigenvalues --  -10.26870 -10.26843 -10.26819 -10.26806 -10.26804
 Alpha  occ. eigenvalues --  -10.26528 -10.26509 -10.26405 -10.26381 -10.26182
 Alpha  occ. eigenvalues --  -10.26180 -10.25943 -10.25852 -10.25824 -10.25689
 Alpha  occ. eigenvalues --  -10.25645 -10.25637 -10.25443 -10.25220 -10.25081
 Alpha  occ. eigenvalues --  -10.24856  -3.17240  -3.17124  -1.92114  -1.92025
 Alpha  occ. eigenvalues --   -1.91710  -1.91580  -1.91539  -1.91428  -1.17808
 Alpha  occ. eigenvalues --   -1.15925  -1.11850  -1.10084  -1.09056  -1.08390
 Alpha  occ. eigenvalues --   -1.08179  -1.06497  -1.05476  -1.04726  -1.04219
 Alpha  occ. eigenvalues --   -1.04009  -1.02803  -1.02778  -1.02018  -1.01361
 Alpha  occ. eigenvalues --   -0.92992  -0.91848  -0.89575  -0.89099  -0.89044
 Alpha  occ. eigenvalues --   -0.88911  -0.88797  -0.88452  -0.87721  -0.87559
 Alpha  occ. eigenvalues --   -0.87050  -0.86759  -0.85111  -0.84939  -0.84552
 Alpha  occ. eigenvalues --   -0.84340  -0.84185  -0.83483  -0.82882  -0.82698
 Alpha  occ. eigenvalues --   -0.82526  -0.82467  -0.80989  -0.80834  -0.80799
 Alpha  occ. eigenvalues --   -0.80519  -0.78777  -0.77951  -0.77500  -0.77175
 Alpha  occ. eigenvalues --   -0.76879  -0.76350  -0.76252  -0.76194  -0.75160
 Alpha  occ. eigenvalues --   -0.75049  -0.72833  -0.72228  -0.72068  -0.71818
 Alpha  occ. eigenvalues --   -0.69228  -0.68978  -0.68561  -0.68200  -0.68092
 Alpha  occ. eigenvalues --   -0.67615  -0.66932  -0.66718  -0.65880  -0.65818
 Alpha  occ. eigenvalues --   -0.65542  -0.65284  -0.64867  -0.64809  -0.64406
 Alpha  occ. eigenvalues --   -0.64205  -0.62672  -0.62409  -0.60948  -0.60194
 Alpha  occ. eigenvalues --   -0.59992  -0.59515  -0.59065  -0.58984  -0.58835
 Alpha  occ. eigenvalues --   -0.58499  -0.58448  -0.57854  -0.57642  -0.57625
 Alpha  occ. eigenvalues --   -0.56699  -0.56181  -0.56018  -0.55646  -0.55244
 Alpha  occ. eigenvalues --   -0.54976  -0.54933  -0.54310  -0.54186  -0.53902
 Alpha  occ. eigenvalues --   -0.53845  -0.53558  -0.53488  -0.53141  -0.52940
 Alpha  occ. eigenvalues --   -0.52921  -0.52729  -0.52644  -0.52626  -0.52570
 Alpha  occ. eigenvalues --   -0.52141  -0.52134  -0.51695  -0.51425  -0.50957
 Alpha  occ. eigenvalues --   -0.50836  -0.50579  -0.50449  -0.50406  -0.50081
 Alpha  occ. eigenvalues --   -0.50028  -0.49885  -0.49770  -0.49743  -0.49599
 Alpha  occ. eigenvalues --   -0.49416  -0.49241  -0.49065  -0.49028  -0.48710
 Alpha  occ. eigenvalues --   -0.48627  -0.48501  -0.48285  -0.48196  -0.48036
 Alpha  occ. eigenvalues --   -0.48034  -0.47807  -0.47458  -0.47437  -0.47074
 Alpha  occ. eigenvalues --   -0.46638  -0.46538  -0.46320  -0.46294  -0.46237
 Alpha  occ. eigenvalues --   -0.46088  -0.46077  -0.45905  -0.45837  -0.45583
 Alpha  occ. eigenvalues --   -0.45454  -0.45366  -0.45289  -0.45175  -0.45027
 Alpha  occ. eigenvalues --   -0.44655  -0.44388  -0.44363  -0.44261  -0.44255
 Alpha  occ. eigenvalues --   -0.44100  -0.44018  -0.43803  -0.43503  -0.43235
 Alpha  occ. eigenvalues --   -0.43197  -0.43063  -0.43008  -0.42817  -0.42528
 Alpha  occ. eigenvalues --   -0.42421  -0.42350  -0.42084  -0.41911  -0.41904
 Alpha  occ. eigenvalues --   -0.41674  -0.41648  -0.41539  -0.41408  -0.41243
 Alpha  occ. eigenvalues --   -0.41018  -0.40829  -0.40808  -0.40659  -0.40418
 Alpha  occ. eigenvalues --   -0.40317  -0.40081  -0.39973  -0.39843  -0.39518
 Alpha  occ. eigenvalues --   -0.38912  -0.38447  -0.37931  -0.37925  -0.37398
 Alpha  occ. eigenvalues --   -0.37241  -0.37100  -0.36629  -0.36626  -0.36467
 Alpha  occ. eigenvalues --   -0.36392  -0.35855  -0.34801  -0.34653  -0.34453
 Alpha  occ. eigenvalues --   -0.33449  -0.33425  -0.33094  -0.31921  -0.31782
 Alpha  occ. eigenvalues --   -0.31347  -0.31153  -0.30893  -0.30606  -0.30316
 Alpha  occ. eigenvalues --   -0.30092  -0.29592  -0.28716  -0.24335  -0.23917
 Alpha  occ. eigenvalues --   -0.21181  -0.20936
 Alpha virt. eigenvalues --   -0.08522  -0.08261  -0.02169  -0.01865  -0.00194
 Alpha virt. eigenvalues --    0.00556   0.01880   0.02073   0.02694   0.02799
 Alpha virt. eigenvalues --    0.04247   0.05080   0.05228   0.05760   0.05946

 Mulliken charges:
               1
     1  Mg   0.832127
     2  C    0.053336
     3  C   -0.082067
     4  C   -0.070448
     5  C   -0.080581
     6  N   -0.209668
     7  C   -0.071936
     8  C    0.011071
     9  C   -0.072280
    10  C   -0.024609
    11  C    0.046711
    12  C    0.028508
    13  C   -0.068324
    14  H    0.027838
    15  N   -0.362203
    16  C    0.170264
    17  C   -0.116450
    18  C   -0.038006
    19  C    0.148193
    20  C    0.098553
    21  C    0.036644
    22  O   -0.200883
    23  C    0.053974
    24  N   -0.348554
    25  C   -0.000963
    26  C   -0.010948
    27  C   -0.014561
    28  C    0.090634
    29  C    0.058946
    30  C    0.000410
    31  C    0.009581
    32  N   -0.370100
    33  C    0.134134
    34  C   -0.185212
    35  C   -0.007947
    36  C    0.094266
    37  C    0.119447
    38  C    0.044334
    39  O   -0.191166
    40  C   -0.048651
    41  C    0.168009
    42  O   -0.239911
    43  O   -0.279033
    44  C    0.189744
    45  H   -0.020205
    46  H   -0.008650
    47  H   -0.032196
    48  H    0.036425
    49  H    0.020254
    50  H    0.030086
    51  H    0.017512
    52  H    0.014658
    53  H    0.014799
    54  H    0.008525
    55  H    0.040769
    56  H    0.030002
    57  H    0.032435
    58  H    0.010796
    59  H    0.024881
    60  H    0.019489
    61  H    0.028234
    62  H    0.034467
    63  H    0.027696
    64  H    0.006928
    65  H    0.037037
    66  H    0.003348
    67  H    0.012720
    68  H    0.013036
    69  H    0.007208
    70  H    0.015231
    71  H    0.020908
    72  H    0.005612
    73  H    0.033401
    74  H    0.038445
    75  H    0.005150
    76  H    0.046487
    77  H    0.033276
    78  H    0.033583
    79  H    0.035431
    80  Mg   0.819046
    81  C   -0.027495
    82  C   -0.090223
    83  C   -0.046233
    84  C   -0.087336
    85  N   -0.261374
    86  C   -0.073454
    87  C   -0.067323
    88  C   -0.064279
    89  C    0.018029
    90  C    0.108016
    91  C    0.064926
    92  C   -0.081502
    93  H    0.029549
    94  N   -0.432494
    95  C    0.196412
    96  C   -0.155165
    97  C   -0.066209
    98  C    0.129282
    99  C    0.128332
   100  C    0.011726
   101  O   -0.165173
   102  C    0.046947
   103  N   -0.260826
   104  C    0.045613
   105  C   -0.043744
   106  C   -0.029965
   107  C    0.049926
   108  C    0.066798
   109  C    0.022699
   110  C    0.021391
   111  N   -0.342408
   112  C    0.111567
   113  C   -0.193863
   114  C    0.033606
   115  C    0.152511
   116  C    0.142365
   117  C    0.016953
   118  O   -0.185307
   119  C    0.043572
   120  C    0.222838
   121  O   -0.216090
   122  O   -0.330663
   123  C    0.180871
   124  H   -0.024255
   125  H   -0.052604
   126  H   -0.027413
   127  H   -0.005617
   128  H   -0.002270
   129  H    0.020489
   130  H    0.016767
   131  H    0.032882
   132  H    0.008623
   133  H    0.031519
   134  H    0.028305
   135  H    0.035680
   136  H    0.032484
   137  H   -0.009042
   138  H    0.027678
   139  H    0.050416
   140  H    0.014666
   141  H    0.046780
   142  H    0.006576
   143  H    0.001185
   144  H    0.023793
   145  H    0.019618
   146  H    0.008229
   147  H    0.019414
   148  H   -0.007740
   149  H    0.021941
   150  H    0.005588
   151  H    0.020184
   152  H    0.016103
   153  H    0.033942
   154  H    0.041538
   155  H    0.030876
   156  H    0.023971
   157  H    0.031383
   158  H    0.036464
 Sum of Mulliken charges =  -0.00000

 Dipole moment (field-independent basis, Debye):
    X=             -1.3129    Y=              2.7266    Z=              1.1612  Tot=              3.2413
 Quadrupole moment (field-independent basis, Debye-Ang):
   XX=           -408.2812   YY=           -487.8466   ZZ=           -525.2713
   XY=            -90.2201   XZ=              2.5090   YZ=             54.3058

 Normal termination of Gaussian 16 at Thu Sep 16 10:06:46 2021.
