 Gaussian 16, Revision A.03,
 Gaussian 16:  ES64L-G16RevA.03 25-Dec-2016

 ----------------------------------------------------------
 #p cam-b3lyp/Def2SVP td=(nstates=5) density=(transition=1)
 ----------------------------------------------------------

 --------------------------------
 TDDFT excited states in gaussian
 --------------------------------
 Symbolic Z-matrix:
 Charge =  0 Multiplicity = 1

                         Standard orientation:
 ---------------------------------------------------------------------
 Center     Atomic      Atomic             Coordinates (Angstroms)
 Number     Number       Type             X           Y           Z
 ---------------------------------------------------------------------
      1         12           0       -0.617414   -0.003160   -0.204000
      2          6           0        2.858463   -0.024695    0.207207
      3          6           0       -0.487750   -3.392977    0.469052
      4          6           0       -3.955218   -0.023627   -0.229476
      5          6           0       -0.596427    3.487371   -0.013895
      6          7           0        1.124587   -1.536149    0.505438
      7          6           0        2.450485   -1.302971    0.466746
      8          6           0        3.286687   -2.510832    0.815264
      9          6           0        2.156498   -3.585028    0.584382
     10          6           0        0.820990   -2.848642    0.562210
     11          6           0        2.357383   -4.278149   -0.789671
     12          6           0        3.939171   -2.359296    2.195220
     13          6           0        3.143243   -1.725766    3.355229
     14          1           0        3.159561   -2.492983    4.672041
     15          7           0       -2.012613   -1.474990    0.064123
     16          6           0       -1.737109   -2.808991    0.207853
     17          6           0       -2.938566   -3.581749   -0.133425
     18          6           0       -4.036194   -2.632828   -0.193597
     19          6           0       -3.334093   -1.314538   -0.133653
     20          6           0       -3.001357   -5.153566   -0.027823
     21          6           0       -5.528301   -2.958221   -0.297555
     22          8           0       -5.896502   -4.085854   -0.475401
     23          6           0       -6.544559   -1.855357   -0.224185
     24          7           0       -2.071951    1.585255    0.090635
     25          6           0       -3.450166    1.352619   -0.072912
     26          6           0       -4.311947    2.684981   -0.035032
     27          6           0       -3.161143    3.800412   -0.027317
     28          6           0       -1.836612    2.907923   -0.024104
     29          6           0       -5.457221    2.944967   -1.136198
     30          6           0       -3.198588    4.889149    1.139830
     31          6           0       -2.652085    6.305540    0.609569
     32          7           0        0.813667    1.507115   -0.007713
     33          6           0        0.672833    2.879635   -0.038526
     34          6           0        1.993906    3.495988   -0.026258
     35          6           0        2.934224    2.433973    0.003379
     36          6           0        2.153226    1.225701    0.094273
     37          6           0        2.303530    4.958874   -0.207862
     38          6           0        4.366801    2.002190    0.098824
     39          8           0        5.374525    2.659585    0.234558
     40          6           0        4.317455    0.416997    0.173859
     41          6           0        5.051552   -0.092551   -1.035902
     42          8           0        6.303437   -0.110733   -1.141985
     43          8           0        4.148738   -0.661244   -1.922627
     44          6           0        4.725943   -1.387270   -3.004169
     45          1           0       -0.440863   -4.477317    0.590031
     46          1           0       -5.019938    0.092335   -0.443564
     47          1           0       -0.597792    4.570068   -0.156989
     48          1           0        4.037484   -2.715806    0.052352
     49          1           0        2.058205   -4.387126    1.314617
     50          1           0        1.356040   -4.503438   -1.157432
     51          1           0        3.029469   -5.129790   -0.694195
     52          1           0        2.729065   -3.692671   -1.631192
     53          1           0        4.770627   -1.670193    2.050410
     54          1           0        4.312835   -3.336614    2.500951
     55          1           0        2.093365   -1.664795    3.069694
     56          1           0        3.581650   -0.752275    3.572917
     57          1           0       -3.095869   -5.545325    0.985307
     58          1           0       -2.115982   -5.585133   -0.494806
     59          1           0       -3.780907   -5.641785   -0.611536
     60          1           0       -7.562046   -2.241804   -0.156771
     61          1           0       -6.498328   -1.171841   -1.072224
     62          1           0       -6.334015   -1.426462    0.755879
     63          1           0       -4.761401    2.575281    0.951196
     64          1           0       -3.144713    4.350758   -0.967594
     65          1           0       -6.382903    2.531697   -0.737366
     66          1           0       -5.206725    2.482607   -2.090562
     67          1           0       -5.533628    4.019229   -1.305437
     68          1           0       -2.487575    4.642515    1.928250
     69          1           0       -4.193955    4.960588    1.578981
     70          1           0       -1.763958    6.613042    1.161783
     71          1           0       -3.422636    7.063926    0.745017
     72          1           0       -2.271959    6.378309   -0.408823
     73          1           0        1.804932    5.515775    0.584739
     74          1           0        1.915073    5.298004   -1.168411
     75          1           0        3.368925    5.171665   -0.121347
     76          1           0        4.950658    0.177777    1.027928
     77          1           0        3.933007   -1.868109   -3.576552
     78          1           0        5.515506   -2.053547   -2.656222
     79          1           0        5.160015   -0.726888   -3.754839
 ---------------------------------------------------------------------

 SCF Done:  E(RCAM-B3LYP) =  -2034.89849336     A.U. after   17 cycles

 Excitation energies and oscillator strengths:

 Excited State   1:      Singlet-A      1.7468 eV  709.76 nm  f=0.3580  <S**2>=0.000
     155 ->158         0.19423
     156 ->157         0.68067
     155 <-158         0.10950
 This state for optimization and/or second-order correction.
 Total Energy, E(TD-HF/TD-DFT) =  -2034.83429828
 Copying the excited state density for this state as the 1-particle RhoCI density.

 Excited State   2:      Singlet-A      2.2374 eV  554.14 nm  f=0.1044  <S**2>=0.000
     155 ->157         0.63518
     156 ->158        -0.29911

 Excited State   3:      Singlet-A      3.4669 eV  357.62 nm  f=0.1259  <S**2>=0.000
     154 ->157         0.56413
     155 ->157         0.13434
     156 ->158         0.35000

 Excited State   4:      Singlet-A      3.5472 eV  349.53 nm  f=0.3227  <S**2>=0.000
     153 ->157         0.42865
     154 ->157        -0.27343
     155 ->157         0.19267
     156 ->158         0.42962

 Excited State   5:      Singlet-A      3.6608 eV  338.68 nm  f=0.2010  <S**2>=0.000
     150 ->157         0.16974
     150 ->161        -0.10714
     151 ->157         0.29396
     151 ->159        -0.20728
     151 ->161        -0.15140
     152 ->157        -0.12149
     153 ->157         0.36606
     154 ->157         0.16279
     155 ->157        -0.13848
     156 ->158        -0.21515
     156 ->160         0.10186

 The electronic state is 1-A.
 Alpha  occ. eigenvalues --  -46.90402 -19.26046 -19.20019 -19.19552 -19.19045
 Alpha  occ. eigenvalues --  -14.42266 -14.41818 -14.40529 -14.39481 -10.39981
 Alpha  occ. eigenvalues --  -10.35794 -10.35311 -10.32837 -10.31986 -10.31837
 Alpha  occ. eigenvalues --  -10.31135 -10.30856 -10.30593 -10.30217 -10.29892
 Alpha  occ. eigenvalues --  -10.29588 -10.29555 -10.29271 -10.28963 -10.28544
 Alpha  occ. eigenvalues --  -10.28531 -10.28448 -10.28399 -10.28072 -10.28000
 Alpha  occ. eigenvalues --  -10.27915 -10.27800 -10.27793 -10.27752 -10.27728
 Alpha  occ. eigenvalues --  -10.26882 -10.26436 -10.26300 -10.26266 -10.26226
 Alpha  occ. eigenvalues --  -10.26183 -10.25952 -10.25893  -3.18765  -1.93628
 Alpha  occ. eigenvalues --   -1.93240  -1.93055  -1.16463  -1.11511  -1.10663
 Alpha  occ. eigenvalues --   -1.07056  -1.04793  -1.03894  -1.02969  -1.01903
 Alpha  occ. eigenvalues --   -0.92519  -0.89026  -0.88344  -0.87746  -0.87352
 Alpha  occ. eigenvalues --   -0.86055  -0.85672  -0.84857  -0.83357  -0.82719
 Alpha  occ. eigenvalues --   -0.81888  -0.80814  -0.80374  -0.77543  -0.77296
 Alpha  occ. eigenvalues --   -0.76713  -0.76427  -0.75330  -0.72821  -0.72066
 Alpha  occ. eigenvalues --   -0.69940  -0.69411  -0.68227  -0.67166  -0.65905
 Alpha  occ. eigenvalues --   -0.64902  -0.64845  -0.64636  -0.63725  -0.60038
 Alpha  occ. eigenvalues --   -0.59281  -0.58965  -0.58186  -0.57803  -0.57354
 Alpha  occ. eigenvalues --   -0.56301  -0.56099  -0.55498  -0.55071  -0.54309
 Alpha  occ. eigenvalues --   -0.53672  -0.53222  -0.53069  -0.52794  -0.51937
 Alpha  occ. eigenvalues --   -0.51644  -0.51449  -0.51095  -0.50706  -0.50561
 Alpha  occ. eigenvalues --   -0.50054  -0.49947  -0.49725  -0.49559  -0.48942
 Alpha  occ. eigenvalues --   -0.48698  -0.48384  -0.47578  -0.47321  -0.47245
 Alpha  occ. eigenvalues --   -0.46957  -0.46679  -0.46324  -0.46090  -0.45698
 Alpha  occ. eigenvalues --   -0.45565  -0.45333  -0.45213  -0.44891  -0.44257
 Alpha  occ. eigenvalues --   -0.43962  -0.43865  -0.43646  -0.43393  -0.43275
 Alpha  occ. eigenvalues --   -0.42993  -0.42792  -0.42233  -0.42221  -0.42010
 Alpha  occ. eigenvalues --   -0.41743  -0.41242  -0.40383  -0.39928  -0.39106
 Alpha  occ. eigenvalues --   -0.38954  -0.38130  -0.37284  -0.37200  -0.36791
 Alpha  occ. eigenvalues --   -0.36327  -0.34697  -0.34402  -0.33165  -0.31381
 Alpha  occ. eigenvalues --   -0.31214  -0.30911  -0.30617  -0.29739  -0.24042
 Alpha  occ. eigenvalues --   -0.21402
 Alpha virt. eigenvalues --   -0.08643  -0.02087   0.00086   0.00757   0.02000
 Alpha virt. eigenvalues --    0.04427   0.05481   0.05905   0.06999   0.08197
 Alpha virt. eigenvalues --    0.08346   0.08524   0.08916   0.09350   0.10364

 Mulliken charges:
               1
     1  Mg  12.002887
     2  C    5.980852
     3  C    6.012845
     4  C    6.031385
     5  C    5.987547
     6  N    6.989877
     7  C    6.031789
     8  C    5.990024
     9  C    6.004135
    10  C    5.972652
    11  C    6.003535
    12  C    5.995927
    13  C    5.993482
    14  H    1.009174
    15  N    7.012533
    16  C    5.955583
    17  C    5.979640
    18  C    5.987319
    19  C    5.955554
    20  C    6.003638
    21  C    5.989933
    22  O    7.981144
    23  C    6.002030
    24  N    7.004694
    25  C    5.954302
    26  C    6.012560
    27  C    5.991655
    28  C    6.027744
    29  C    6.000926
    30  C    5.996754
    31  C    5.999094
    32  N    6.993375
    33  C    6.042373
    34  C    6.029285
    35  C    6.003827
    36  C    6.036888
    37  C    5.998603
    38  C    6.017782
    39  O    8.027645
    40  C    6.001324
    41  C    6.000904
    42  O    8.006171
    43  O    8.000456
    44  C    5.996731
    45  H    0.989205
    46  H    0.994779
    47  H    1.008826
    48  H    1.002150
    49  H    1.000586
    50  H    1.008681
    51  H    0.991999
    52  H    0.986851
    53  H    0.994420
    54  H    1.008599
    55  H    1.008906
    56  H    0.992845
    57  H    0.979605
    58  H    0.982637
    59  H    0.984500
    60  H    0.987391
    61  H    0.989870
    62  H    0.992831
    63  H    0.998842
    64  H    1.001081
    65  H    1.003137
    66  H    0.998855
    67  H    0.990204
    68  H    0.999006
    69  H    1.011360
    70  H    0.995796
    71  H    1.006054
    72  H    0.997911
    73  H    1.018984
    74  H    1.020281
    75  H    1.014675
    76  H    1.007258
    77  H    1.008663
    78  H    1.005038
    79  H    1.001596
 Sum of Mulliken charges = 312.00000

 Dipole moment (field-independent basis, Debye):
    X=              7.1345    Y=              7.5608    Z=              0.1049  Tot=             10.3960
 Quadrupole moment (field-independent basis, Debye-Ang):
   XX=             -6.5598   YY=             -0.6809   ZZ=              0.9690
   XY=             -5.0058   XZ=             -1.3155   YZ=             -0.2418

 Normal termination of Gaussian 16 at Fri Oct  8 17:27:21 2021.
