 Gaussian 16, Revision A.03,
 Gaussian 16:  ES64L-G16RevA.03 25-Dec-2016

 ----------------------------------------------------------
 #p cam-b3lyp/Def2SVP td=(nstates=5) density=(transition=1)
 ----------------------------------------------------------

 --------------------------------
 TDDFT excited states in gaussian
 --------------------------------
 Symbolic Z-matrix:
 Charge =  0 Multiplicity = 1

                         Standard orientation:
 ---------------------------------------------------------------------
 Center     Atomic      Atomic             Coordinates (Angstroms)
 Number     Number       Type             X           Y           Z
 ---------------------------------------------------------------------
      1         12           0       26.207541    0.173860    0.365328
      2          6           0       23.113125   -1.311585   -0.170563
      3          6           0       27.248833   -1.446637   -2.651500
      4          6           0       29.012907    1.884259    0.464009
      5          6           0       24.731494    2.179095    2.846867
      6          7           0       25.234784   -1.110941   -1.268177
      7          6           0       23.969378   -1.645228   -1.172981
      8          6           0       23.673297   -2.519067   -2.394870
      9          6           0       25.096595   -2.738582   -2.978193
     10          6           0       25.926958   -1.680167   -2.301021
     11          6           0       25.774196   -4.153953   -2.801121
     12          6           0       22.700031   -1.860246   -3.386192
     13          6           0       22.241260   -2.719732   -4.501522
     14          1           0       20.893892   -2.315114   -5.212845
     15          7           0       27.927101    0.238398   -0.927742
     16          6           0       28.169421   -0.515375   -2.086710
     17          6           0       29.470829   -0.163244   -2.582133
     18          6           0       29.953244    0.918495   -1.756767
     19          6           0       28.944024    1.038922   -0.648457
     20          6           0       30.072476   -0.767473   -3.880911
     21          6           0       31.279975    1.636015   -2.024992
     22          8           0       32.071711    1.236034   -2.862356
     23          6           0       31.613878    2.845455   -1.238066
     24          7           0       26.843912    1.655180    1.657063
     25          6           0       28.071204    2.164436    1.505780
     26          6           0       28.264974    3.390648    2.486907
     27          6           0       26.890153    3.562595    3.240234
     28          6           0       26.042252    2.396473    2.489792
     29          6           0       29.505979    3.375389    3.417675
     30          6           0       26.302790    4.963832    2.967213
     31          6           0       25.425122    5.533882    4.088121
     32          7           0       24.314424    0.446025    1.232260
     33          6           0       23.889381    1.188815    2.297967
     34          6           0       22.512591    0.793999    2.618975
     35          6           0       22.224692   -0.223787    1.749720
     36          6           0       23.288046   -0.369732    0.887963
     37          6           0       21.671087    1.322244    3.785243
     38          6           0       21.195997   -1.131841    1.340018
     39          8           0       20.091889   -1.352723    1.773072
     40          6           0       21.737660   -1.888501    0.081403
     41          6           0       21.855927   -3.328493    0.440401
     42          8           0       22.382987   -3.793218    1.412867
     43          8           0       21.365565   -4.096773   -0.629747
     44          6           0       21.481558   -5.519134   -0.476851
     45          1           0       27.500135   -2.055822   -3.521713
     46          1           0       29.892207    2.509149    0.636401
     47          1           0       24.261502    2.734990    3.660988
     48          1           0       23.323562   -3.471757   -1.999482
     49          1           0       25.217461   -2.511982   -4.036929
     50          1           0       26.090782   -4.420097   -3.809382
     51          1           0       25.292897   -4.869618   -2.134040
     52          1           0       26.710630   -3.979242   -2.271544
     53          1           0       23.099737   -1.015620   -3.948046
     54          1           0       21.832702   -1.474056   -2.850637
     55          1           0       22.152283   -3.729134   -4.099912
     56          1           0       23.032841   -2.778553   -5.248340
     57          1           0       29.919959    0.105928   -4.515755
     58          1           0       29.481243   -1.545113   -4.364887
     59          1           0       31.099554   -1.124409   -3.959320
     60          1           0       30.721782    3.468336   -1.303405
     61          1           0       32.422563    3.372245   -1.744903
     62          1           0       31.816331    2.450051   -0.242388
     63          1           0       28.431066    4.252908    1.840517
     64          1           0       26.918194    3.357437    4.309914
     65          1           0       30.222038    4.103260    3.034825
     66          1           0       29.873584    2.352179    3.487738
     67          1           0       29.234255    3.764895    4.398750
     68          1           0       25.731065    4.849986    2.046548
     69          1           0       27.046501    5.712279    2.692945
     70          1           0       25.920444    6.475365    4.328004
     71          1           0       25.291335    4.870000    4.942299
     72          1           0       24.438434    5.790082    3.702041
     73          1           0       20.633466    1.567851    3.561578
     74          1           0       22.248324    2.192524    4.098407
     75          1           0       21.836650    0.629268    4.610302
     76          1           0       21.001079   -1.734057   -0.707166
     77          1           0       20.469183   -5.894650   -0.327617
     78          1           0       22.123463   -5.923402    0.306223
     79          1           0       21.898540   -5.910202   -1.404514
     80         12           0      -26.104208    0.729399   -0.095523
     81          6           0      -23.351644   -1.153682    1.125793
     82          6           0      -28.116969   -1.969621    0.988958
     83          6           0      -28.676304    2.173030   -1.490009
     84          6           0      -23.871460    3.097780   -1.321166
     85          7           0      -25.763780   -1.374929    0.953030
     86          6           0      -24.543839   -1.804530    1.414851
     87          6           0      -24.629287   -3.085167    2.227867
     88          6           0      -26.179160   -3.385017    2.048350
     89          6           0      -26.747070   -2.157607    1.319228
     90          6           0      -26.400991   -4.750383    1.404315
     91          6           0      -24.216841   -2.830911    3.694417
     92          6           0      -23.431892   -3.960906    4.463501
     93          1           0      -23.519525   -5.407026    3.921406
     94          7           0      -28.144716    0.225295   -0.172901
     95          6           0      -28.741489   -0.958803    0.261014
     96          6           0      -30.182795   -0.873754   -0.023093
     97          6           0      -30.369371    0.393513   -0.665686
     98          6           0      -29.020020    0.984864   -0.746776
     99          6           0      -31.104032   -1.939559    0.248694
    100          6           0      -31.662595    1.013935   -1.184725
    101          8           0      -31.651724    2.085467   -1.811185
    102          6           0      -32.976003    0.450945   -0.806150
    103          7           0      -26.240020    2.349641   -1.334756
    104          6           0      -27.439446    2.811124   -1.698497
    105          6           0      -27.303174    4.076926   -2.605719
    106          6           0      -25.806532    4.460368   -2.377751
    107          6           0      -25.241675    3.269772   -1.668440
    108          6           0      -27.740528    3.853597   -4.098135
    109          6           0      -25.843658    5.723959   -1.435853
    110          6           0      -25.738327    5.555197    0.119073
    111          7           0      -24.061707    1.025930   -0.034124
    112          6           0      -23.293196    2.055382   -0.607121
    113          6           0      -21.860244    1.755312   -0.364262
    114          6           0      -21.867730    0.505981    0.244946
    115          6           0      -23.161140    0.085654    0.472130
    116          6           0      -20.825666    2.540030   -1.015638
    117          6           0      -20.958728   -0.562321    0.652979
    118          8           0      -19.737353   -0.591540    0.552525
    119          6           0      -21.891457   -1.726605    1.232875
    120          6           0      -21.683562   -2.997570    0.497243
    121          8           0      -22.342662   -3.398450   -0.457747
    122          8           0      -20.609971   -3.695169    1.082427
    123          6           0      -20.136488   -4.947993    0.538768
    124          1           0      -28.826758   -2.623953    1.500129
    125          1           0      -29.496005    2.718365   -1.963198
    126          1           0      -23.278714    3.927331   -1.711507
    127          1           0      -24.013426   -3.885618    1.817058
    128          1           0      -26.572904   -3.522407    3.055050
    129          1           0      -27.040534   -5.427035    1.969997
    130          1           0      -25.503234   -5.318978    1.161643
    131          1           0      -26.967332   -4.569422    0.489777
    132          1           0      -25.085250   -2.579057    4.303013
    133          1           0      -23.617469   -1.927735    3.574700
    134          1           0      -23.823338   -4.072137    5.474135
    135          1           0      -22.445635   -3.538108    4.654861
    136          1           0      -31.914745   -1.499464    0.829711
    137          1           0      -30.580633   -2.826794    0.603715
    138          1           0      -31.379876   -2.215879   -0.769468
    139          1           0      -33.204026   -0.493746   -1.300699
    140          1           0      -33.764458    1.139706   -1.108944
    141          1           0      -32.929496    0.189897    0.250714
    142          1           0      -28.036902    4.704670   -2.100016
    143          1           0      -25.314145    4.746565   -3.307472
    144          1           0      -28.768960    4.186379   -4.239058
    145          1           0      -27.547708    2.805754   -4.325959
    146          1           0      -27.068980    4.466798   -4.698827
    147          1           0      -26.642038    6.390898   -1.761869
    148          1           0      -24.861033    6.169866   -1.592700
    149          1           0      -26.499607    6.237885    0.495439
    150          1           0      -24.774011    5.871805    0.518596
    151          1           0      -25.974418    4.567003    0.512344
    152          1           0      -21.073956    2.630232   -2.072374
    153          1           0      -19.903819    1.963566   -0.931877
    154          1           0      -20.614246    3.450669   -0.455814
    155          1           0      -21.535612   -1.842275    2.257110
    156          1           0      -19.281684   -4.835041   -0.127610
    157          1           0      -20.964031   -5.577498    0.211312
    158          1           0      -19.856853   -5.469729    1.454471
 ---------------------------------------------------------------------

 SCF Done:  E(RCAM-B3LYP) =  -4069.81331568     A.U. after   17 cycles

 Excitation energies and oscillator strengths:

 Excited State   1:      Singlet-A      1.7491 eV  708.85 nm  f=0.3910  <S**2>=0.000
     310 -> 316        0.18977
     312 -> 314        0.68110
     310 <- 316        0.10800
 This state for optimization and/or second-order correction.
 Total Energy, E(TD-HF/TD-DFT) =  -4069.74903784
 Copying the excited state density for this state as the 1-particle RhoCI density.

 Excited State   2:      Singlet-A      1.7655 eV  702.27 nm  f=0.3799  <S**2>=0.000
     309 -> 315        0.17233
     311 -> 313        0.68725
     309 <- 315        0.10341

 Excited State   3:      Singlet-A      2.2729 eV  545.50 nm  f=0.0722  <S**2>=0.000
     310 -> 314        0.62313
     312 -> 316       -0.32197

 Excited State   4:      Singlet-A      2.2942 eV  540.42 nm  f=0.1178  <S**2>=0.000
     309 -> 313        0.63734
     311 -> 315       -0.29070

 Excited State   5:      Singlet-A      3.0124 eV  411.58 nm  f=0.0000  <S**2>=0.000
     312 -> 313        0.70710

 The electronic state is 1-A.
 Alpha  occ. eigenvalues --  -46.89651 -46.88487 -19.24934 -19.23960 -19.20486
 Alpha  occ. eigenvalues --  -19.19863 -19.19299 -19.18719 -19.18683 -19.18516
 Alpha  occ. eigenvalues --  -14.42648 -14.42335 -14.42106 -14.41266 -14.40217
 Alpha  occ. eigenvalues --  -14.39666 -14.39085 -14.38899 -10.39495 -10.39462
 Alpha  occ. eigenvalues --  -10.35356 -10.35269 -10.34851 -10.34143 -10.32351
 Alpha  occ. eigenvalues --  -10.31584 -10.31213 -10.31167 -10.31164 -10.31109
 Alpha  occ. eigenvalues --  -10.31067 -10.30989 -10.30751 -10.30552 -10.30433
 Alpha  occ. eigenvalues --  -10.30370 -10.30297 -10.30197 -10.29533 -10.29223
 Alpha  occ. eigenvalues --  -10.29214 -10.29169 -10.29010 -10.28852 -10.28576
 Alpha  occ. eigenvalues --  -10.28338 -10.28238 -10.28221 -10.28217 -10.28177
 Alpha  occ. eigenvalues --  -10.28158 -10.28022 -10.27893 -10.27778 -10.27736
 Alpha  occ. eigenvalues --  -10.27732 -10.27564 -10.27536 -10.27515 -10.27428
 Alpha  occ. eigenvalues --  -10.27402 -10.27374 -10.27262 -10.27221 -10.27123
 Alpha  occ. eigenvalues --  -10.27023 -10.26912 -10.26791 -10.26789 -10.26527
 Alpha  occ. eigenvalues --  -10.26490 -10.26490 -10.26412 -10.26394 -10.26352
 Alpha  occ. eigenvalues --  -10.26232 -10.26068 -10.26048 -10.25734 -10.25617
 Alpha  occ. eigenvalues --  -10.25320 -10.25292 -10.25261 -10.25075 -10.24677
 Alpha  occ. eigenvalues --  -10.23974  -3.18072  -3.17030  -1.92979  -1.92530
 Alpha  occ. eigenvalues --   -1.92360  -1.91937  -1.91498  -1.91318  -1.16608
 Alpha  occ. eigenvalues --   -1.14634  -1.10326  -1.10109  -1.09638  -1.09187
 Alpha  occ. eigenvalues --   -1.08818  -1.07226  -1.04740  -1.04584  -1.04022
 Alpha  occ. eigenvalues --   -1.03780  -1.03712  -1.03074  -1.02814  -1.01355
 Alpha  occ. eigenvalues --   -0.93256  -0.91960  -0.89863  -0.89405  -0.89224
 Alpha  occ. eigenvalues --   -0.88829  -0.88638  -0.88367  -0.88084  -0.87314
 Alpha  occ. eigenvalues --   -0.86716  -0.86450  -0.86164  -0.85939  -0.85204
 Alpha  occ. eigenvalues --   -0.84112  -0.84039  -0.83279  -0.83154  -0.82625
 Alpha  occ. eigenvalues --   -0.82578  -0.81973  -0.81291  -0.80843  -0.80811
 Alpha  occ. eigenvalues --   -0.80419  -0.78925  -0.77751  -0.77342  -0.77103
 Alpha  occ. eigenvalues --   -0.77085  -0.76833  -0.76196  -0.75765  -0.75518
 Alpha  occ. eigenvalues --   -0.74759  -0.73238  -0.72105  -0.72037  -0.71282
 Alpha  occ. eigenvalues --   -0.69327  -0.69215  -0.69063  -0.68889  -0.67818
 Alpha  occ. eigenvalues --   -0.67779  -0.66757  -0.66685  -0.66089  -0.65571
 Alpha  occ. eigenvalues --   -0.64981  -0.64971  -0.64658  -0.64606  -0.64438
 Alpha  occ. eigenvalues --   -0.64162  -0.62687  -0.61510  -0.60308  -0.60231
 Alpha  occ. eigenvalues --   -0.59889  -0.59340  -0.59304  -0.59021  -0.58845
 Alpha  occ. eigenvalues --   -0.58450  -0.58039  -0.57851  -0.57564  -0.57142
 Alpha  occ. eigenvalues --   -0.56496  -0.56255  -0.55893  -0.55469  -0.55468
 Alpha  occ. eigenvalues --   -0.55306  -0.54920  -0.54379  -0.54254  -0.54017
 Alpha  occ. eigenvalues --   -0.53934  -0.53827  -0.53564  -0.53311  -0.53301
 Alpha  occ. eigenvalues --   -0.53141  -0.53129  -0.52743  -0.52637  -0.52304
 Alpha  occ. eigenvalues --   -0.51897  -0.51785  -0.51715  -0.51648  -0.51475
 Alpha  occ. eigenvalues --   -0.51282  -0.50833  -0.50741  -0.50728  -0.50583
 Alpha  occ. eigenvalues --   -0.50358  -0.50278  -0.49881  -0.49867  -0.49760
 Alpha  occ. eigenvalues --   -0.49535  -0.49309  -0.49038  -0.49002  -0.48883
 Alpha  occ. eigenvalues --   -0.48851  -0.48501  -0.48363  -0.48289  -0.48094
 Alpha  occ. eigenvalues --   -0.48056  -0.47571  -0.47532  -0.47371  -0.47337
 Alpha  occ. eigenvalues --   -0.47147  -0.47087  -0.46925  -0.46654  -0.46458
 Alpha  occ. eigenvalues --   -0.46393  -0.46139  -0.46080  -0.45969  -0.45800
 Alpha  occ. eigenvalues --   -0.45368  -0.45318  -0.45123  -0.44993  -0.44666
 Alpha  occ. eigenvalues --   -0.44589  -0.44228  -0.44209  -0.44158  -0.44024
 Alpha  occ. eigenvalues --   -0.43906  -0.43905  -0.43685  -0.43639  -0.43394
 Alpha  occ. eigenvalues --   -0.43309  -0.43291  -0.43228  -0.42948  -0.42932
 Alpha  occ. eigenvalues --   -0.42706  -0.42529  -0.42373  -0.42286  -0.42026
 Alpha  occ. eigenvalues --   -0.41926  -0.41853  -0.41670  -0.41532  -0.41279
 Alpha  occ. eigenvalues --   -0.40997  -0.40638  -0.40601  -0.40320  -0.40255
 Alpha  occ. eigenvalues --   -0.39909  -0.39829  -0.39706  -0.39347  -0.38810
 Alpha  occ. eigenvalues --   -0.38552  -0.38037  -0.37724  -0.37666  -0.37399
 Alpha  occ. eigenvalues --   -0.37087  -0.36897  -0.36611  -0.36510  -0.36095
 Alpha  occ. eigenvalues --   -0.36081  -0.35658  -0.35238  -0.34237  -0.34150
 Alpha  occ. eigenvalues --   -0.34011  -0.33715  -0.33270  -0.31756  -0.31173
 Alpha  occ. eigenvalues --   -0.31028  -0.30936  -0.30798  -0.30645  -0.30130
 Alpha  occ. eigenvalues --   -0.30114  -0.29939  -0.29318  -0.24659  -0.23855
 Alpha  occ. eigenvalues --   -0.21654  -0.20758
 Alpha virt. eigenvalues --   -0.09023  -0.08119  -0.01931  -0.01681   0.00262
 Alpha virt. eigenvalues --    0.00928   0.02041   0.02209   0.02738   0.03354
 Alpha virt. eigenvalues --    0.04426   0.04855   0.05114   0.05410   0.05757

 Mulliken charges:
               1
     1  Mg  12.000049
     2  C    5.999392
     3  C    6.000519
     4  C    6.000806
     5  C    5.999511
     6  N    6.999917
     7  C    6.000754
     8  C    5.999785
     9  C    6.000194
    10  C    5.999122
    11  C    6.000045
    12  C    5.999922
    13  C    5.999971
    14  H    1.000083
    15  N    7.000389
    16  C    5.998607
    17  C    5.999678
    18  C    5.999570
    19  C    5.998847
    20  C    6.000106
    21  C    5.999706
    22  O    7.999429
    23  C    6.000043
    24  N    6.999937
    25  C    5.998959
    26  C    6.000273
    27  C    5.999752
    28  C    6.000852
    29  C    6.000037
    30  C    5.999878
    31  C    5.999958
    32  N    6.999926
    33  C    6.001142
    34  C    6.000749
    35  C    6.000043
    36  C    6.000970
    37  C    5.999933
    38  C    6.000418
    39  O    8.000792
    40  C    6.000124
    41  C    6.000124
    42  O    8.000064
    43  O    8.000096
    44  C    5.999895
    45  H    0.999648
    46  H    0.999800
    47  H    1.000258
    48  H    0.999988
    49  H    0.999999
    50  H    0.999897
    51  H    0.999596
    52  H    1.000075
    53  H    1.000240
    54  H    0.999809
    55  H    0.999991
    56  H    1.000178
    57  H    0.999572
    58  H    0.999505
    59  H    0.999484
    60  H    0.999782
    61  H    0.999627
    62  H    0.999754
    63  H    1.000005
    64  H    1.000056
    65  H    1.000015
    66  H    1.000017
    67  H    0.999720
    68  H    1.000032
    69  H    1.000285
    70  H    1.000138
    71  H    0.999947
    72  H    0.999974
    73  H    1.000564
    74  H    1.000479
    75  H    1.000551
    76  H    1.000266
    77  H    1.000112
    78  H    1.000079
    79  H    1.000193
    80  Mg  11.997718
    81  C    6.023681
    82  C    5.989905
    83  C    5.963759
    84  C    6.013608
    85  N    7.009648
    86  C    5.969954
    87  C    6.016265
    88  C    5.984532
    89  C    6.032226
    90  C    5.999726
    91  C    6.001301
    92  C    6.000999
    93  H    0.994873
    94  N    6.987427
    95  C    6.050182
    96  C    6.015802
    97  C    6.020623
    98  C    6.033957
    99  C    5.993611
   100  C    6.012791
   101  O    8.030817
   102  C    5.994692
   103  N    6.990428
   104  C    6.041176
   105  C    5.995875
   106  C    6.011027
   107  C    5.969355
   108  C    5.996798
   109  C    6.001931
   110  C    6.007772
   111  N    7.007203
   112  C    5.960058
   113  C    5.963375
   114  C    6.002504
   115  C    5.961524
   116  C    6.005383
   117  C    5.983941
   118  O    7.975155
   119  C    5.996022
   120  C    5.998238
   121  O    7.991481
   122  O    8.000145
   123  C    6.003540
   124  H    1.012637
   125  H    1.001468
   126  H    0.988763
   127  H    0.999023
   128  H    1.005828
   129  H    1.003182
   130  H    1.014123
   131  H    0.996052
   132  H    0.989840
   133  H    1.008340
   134  H    0.996682
   135  H    1.004312
   136  H    1.018359
   137  H    1.016405
   138  H    1.018836
   139  H    1.008564
   140  H    1.014876
   141  H    1.004755
   142  H    0.995081
   143  H    0.996013
   144  H    0.996273
   145  H    1.000287
   146  H    1.010155
   147  H    0.987719
   148  H    1.000807
   149  H    0.989463
   150  H    1.002918
   151  H    0.995211
   152  H    0.979576
   153  H    0.983997
   154  H    0.978131
   155  H    0.992876
   156  H    0.998899
   157  H    0.993845
   158  H    0.995678
 Sum of Mulliken charges = 624.00000

 Dipole moment (field-independent basis, Debye):
    X=            -10.5189    Y=             -2.6748    Z=              0.3112  Tot=             10.8582
 Quadrupole moment (field-independent basis, Debye-Ang):
   XX=            522.9731   YY=             -5.2042   ZZ=              0.0029
   XY=             66.3546   XZ=              2.6882   YZ=              0.7553

 Normal termination of Gaussian 16 at Thu Sep 23 11:27:44 2021.
