 Gaussian 16, Revision A.03,
 Gaussian 16:  ES64L-G16RevA.03 25-Dec-2016

 ----------------------------------------------------------
 #p cam-b3lyp/Def2SVP td=(nstates=5) density=(transition=1)
 ----------------------------------------------------------

 --------------------------------
 TDDFT excited states in gaussian
 --------------------------------
 Symbolic Z-matrix:
 Charge =  0 Multiplicity = 1

                         Standard orientation:
 ---------------------------------------------------------------------
 Center     Atomic      Atomic             Coordinates (Angstroms)
 Number     Number       Type             X           Y           Z
 ---------------------------------------------------------------------
      1         12           0      -21.860892   -0.707605   -0.228774
      2          6           0      -23.377829    1.971965    1.306288
      3          6           0      -19.769335    1.557403   -1.888208
      4          6           0      -20.379748   -3.271720   -1.849241
      5          6           0      -24.157975   -2.809473    1.121341
      6          7           0      -21.803730    1.560896   -0.462423
      7          6           0      -22.388272    2.422563    0.474114
      8          6           0      -21.769868    3.833813    0.427637
      9          6           0      -20.692694    3.641457   -0.702559
     10          6           0      -20.682672    2.166205   -1.040964
     11          6           0      -20.947257    4.513505   -1.925537
     12          6           0      -21.156030    4.454131    1.732425
     13          6           0      -21.915428    5.741305    2.368178
     14          1           0      -20.986192    6.957348    2.433412
     15          7           0      -20.397100   -0.847664   -1.714248
     16          6           0      -19.568804    0.193508   -2.163504
     17          6           0      -18.439308   -0.321826   -2.944306
     18          6           0      -18.615357   -1.806511   -3.040020
     19          6           0      -19.800565   -2.074650   -2.131271
     20          6           0      -17.372720    0.568408   -3.543002
     21          6           0      -17.856129   -2.824160   -3.752101
     22          8           0      -18.257333   -3.997291   -3.760752
     23          6           0      -16.608463   -2.513399   -4.560229
     24          7           0      -22.287159   -2.661117   -0.384244
     25          6           0      -21.456869   -3.607057   -1.013536
     26          6           0      -21.853290   -5.117777   -0.761294
     27          6           0      -23.128580   -4.887083    0.202523
     28          6           0      -23.179880   -3.348008    0.333154
     29          6           0      -22.198301   -5.949501   -2.093377
     30          6           0      -22.956934   -5.620515    1.577106
     31          6           0      -24.166998   -6.251014    2.192068
     32          7           0      -23.538477   -0.436127    0.911556
     33          6           0      -24.371134   -1.423245    1.446544
     34          6           0      -25.289285   -0.863869    2.378805
     35          6           0      -24.856366    0.512760    2.428447
     36          6           0      -23.857430    0.689389    1.462687
     37          6           0      -26.328657   -1.487306    3.212500
     38          6           0      -25.187553    1.793026    2.971153
     39          8           0      -25.994744    2.204472    3.811840
     40          6           0      -24.310746    2.827777    2.130036
     41          6           0      -25.224190    3.712354    1.359282
     42          8           0      -25.530983    3.640742    0.234624
     43          8           0      -25.621118    4.793281    2.143045
     44          6           0      -25.997860    5.980544    1.404391
     45          1           0      -19.063924    2.262489   -2.332914
     46          1           0      -19.947546   -4.188464   -2.255575
     47          1           0      -24.801509   -3.497638    1.673312
     48          1           0      -22.522044    4.529230    0.056734
     49          1           0      -19.705916    3.975600   -0.380858
     50          1           0      -21.183255    3.868476   -2.771486
     51          1           0      -19.982014    4.994696   -2.078526
     52          1           0      -21.681119    5.308955   -1.797639
     53          1           0      -20.126226    4.737411    1.513376
     54          1           0      -21.149708    3.731618    2.548655
     55          1           0      -22.101130    5.411972    3.390659
     56          1           0      -22.814095    5.973282    1.797049
     57          1           0      -17.834652    1.081049   -4.387662
     58          1           0      -16.562438   -0.068752   -3.894012
     59          1           0      -17.056099    1.373701   -2.879812
     60          1           0      -16.467110   -3.372227   -5.216701
     61          1           0      -15.724521   -2.323258   -3.950569
     62          1           0      -16.682107   -1.727683   -5.311852
     63          1           0      -21.092550   -5.601236   -0.149256
     64          1           0      -24.069110   -5.288317   -0.175678
     65          1           0      -23.041268   -6.606579   -1.878455
     66          1           0      -21.452420   -6.669023   -2.428896
     67          1           0      -22.432870   -5.311569   -2.945736
     68          1           0      -22.480681   -5.012644    2.346203
     69          1           0      -22.310415   -6.494889    1.504885
     70          1           0      -24.358736   -5.657676    3.085954
     71          1           0      -24.103580   -7.236702    2.653052
     72          1           0      -25.007967   -6.185805    1.500917
     73          1           0      -26.041769   -2.522261    3.400702
     74          1           0      -27.215780   -1.474721    2.579406
     75          1           0      -26.535857   -0.831653    4.058461
     76          1           0      -23.713515    3.443509    2.802094
     77          1           0      -26.993873    5.747709    1.029309
     78          1           0      -25.288697    6.048560    0.579583
     79          1           0      -26.043179    6.857828    2.050331
     80         12           0       22.116319   -0.644036    0.287140
     81          6           0       21.373769    2.373865   -1.197047
     82          6           0       22.971621    1.145499    3.259396
     83          6           0       23.183174   -3.429561    1.652915
     84          6           0       21.430015   -2.325939   -2.690062
     85          7           0       22.130930    1.516892    0.873461
     86          6           0       21.758254    2.555834    0.120275
     87          6           0       21.808722    3.854575    0.989410
     88          6           0       22.463337    3.397507    2.372818
     89          6           0       22.587838    1.878632    2.144911
     90          6           0       23.867038    3.890579    2.667171
     91          6           0       20.468670    4.593474    1.123354
     92          6           0       20.612080    6.067571    0.783995
     93          1           0       19.665399    7.115458    1.387190
     94          7           0       22.884150   -1.073361    2.223243
     95          6           0       23.113174   -0.260291    3.295631
     96          6           0       23.562870   -0.966574    4.410909
     97          6           0       23.764812   -2.318218    3.961898
     98          6           0       23.254840   -2.334661    2.547256
     99          6           0       23.826751   -0.336772    5.770905
    100          6           0       24.393072   -3.488048    4.701585
    101          8           0       24.628159   -4.534135    4.066143
    102          6           0       24.836803   -3.378889    6.103203
    103          7           0       22.235957   -2.545903   -0.423218
    104          6           0       22.664352   -3.606276    0.348706
    105          6           0       22.685468   -4.992418   -0.396386
    106          6           0       21.846377   -4.600809   -1.686832
    107          6           0       21.847141   -3.062659   -1.618895
    108          6           0       24.043013   -5.705194   -0.776452
    109          6           0       20.446217   -5.325573   -1.935060
    110          6           0       19.296935   -4.819508   -1.103942
    111          7           0       21.665696   -0.152092   -1.588736
    112          6           0       21.408606   -0.895231   -2.725084
    113          6           0       21.054482   -0.089530   -3.821177
    114          6           0       20.997679    1.182274   -3.239549
    115          6           0       21.373324    1.117953   -1.866071
    116          6           0       20.702140   -0.656232   -5.130243
    117          6           0       20.801949    2.524602   -3.632356
    118          8           0       20.609203    2.956146   -4.770795
    119          6           0       21.008261    3.419787   -2.301545
    120          6           0       22.056457    4.395428   -2.543678
    121          8           0       23.246740    4.184648   -2.592594
    122          8           0       21.528673    5.579999   -2.826615
    123          6           0       22.393621    6.651716   -3.217891
    124          1           0       23.279317    1.705016    4.144757
    125          1           0       23.503027   -4.424719    1.967819
    126          1           0       21.227719   -2.891262   -3.602222
    127          1           0       22.544085    4.429275    0.427230
    128          1           0       21.838957    3.847139    3.145691
    129          1           0       24.257860    4.605411    1.942412
    130          1           0       24.570559    3.058811    2.642662
    131          1           0       23.930924    4.226823    3.702483
    132          1           0       19.988514    4.503326    2.097894
    133          1           0       19.763730    4.120162    0.440282
    134          1           0       20.397387    6.148252   -0.282219
    135          1           0       21.636642    6.334710    1.042169
    136          1           0       23.423623    0.674154    5.831920
    137          1           0       24.900352   -0.183484    5.882566
    138          1           0       23.525559   -1.003889    6.577717
    139          1           0       25.578269   -4.144039    6.335895
    140          1           0       23.967351   -3.590437    6.726390
    141          1           0       25.263379   -2.393728    6.290307
    142          1           0       22.038390   -5.728968    0.081005
    143          1           0       22.387588   -4.947028   -2.566474
    144          1           0       24.857417   -5.079913   -0.412702
    145          1           0       24.193550   -5.621664   -1.853505
    146          1           0       24.189333   -6.740147   -0.465965
    147          1           0       20.586990   -6.360003   -1.622583
    148          1           0       20.155348   -5.383414   -2.983246
    149          1           0       18.396243   -4.946106   -1.703615
    150          1           0       19.308226   -3.816355   -0.679572
    151          1           0       19.258928   -5.452816   -0.217601
    152          1           0       20.238611   -1.641772   -5.166432
    153          1           0       21.458189   -0.568124   -5.909521
    154          1           0       19.964129    0.068813   -5.472451
    155          1           0       20.068762    3.934071   -2.100099
    156          1           0       22.751385    7.228784   -2.364424
    157          1           0       21.793853    7.337300   -3.816233
    158          1           0       23.256458    6.254706   -3.752892
 ---------------------------------------------------------------------

 SCF Done:  E(RCAM-B3LYP) =  -4069.81341419     A.U. after   19 cycles

 Excitation energies and oscillator strengths:

 Excited State   1:      Singlet-A      1.6721 eV  741.50 nm  f=0.4055  <S**2>=0.000
     309 -> 315        0.15725
     312 -> 313        0.68843
 This state for optimization and/or second-order correction.
 Total Energy, E(TD-HF/TD-DFT) =  -4069.75196647
 Copying the excited state density for this state as the 1-particle RhoCI density.

 Excited State   2:      Singlet-A      1.7068 eV  726.42 nm  f=0.4194  <S**2>=0.000
     310 -> 316        0.17266
     311 -> 314        0.68668
     310 <- 316        0.10538

 Excited State   3:      Singlet-A      2.1913 eV  565.80 nm  f=0.1251  <S**2>=0.000
     309 -> 313        0.64543
     312 -> 315       -0.25763

 Excited State   4:      Singlet-A      2.2216 eV  558.10 nm  f=0.1604  <S**2>=0.000
     310 -> 314        0.65337
     311 -> 316       -0.25396

 Excited State   5:      Singlet-A      3.1094 eV  398.75 nm  f=0.0000  <S**2>=0.000
     311 -> 313        0.70710

 The electronic state is 1-A.
 Alpha  occ. eigenvalues --  -46.87947 -46.87719 -19.24861 -19.22188 -19.19604
 Alpha  occ. eigenvalues --  -19.18876 -19.18657 -19.18625 -19.18273 -19.17971
 Alpha  occ. eigenvalues --  -14.42579 -14.42332 -14.42199 -14.42015 -14.40290
 Alpha  occ. eigenvalues --  -14.39747 -14.38997 -14.38602 -10.38335 -10.38126
 Alpha  occ. eigenvalues --  -10.35352 -10.34900 -10.34544 -10.34223 -10.31848
 Alpha  occ. eigenvalues --  -10.31535 -10.31306 -10.31251 -10.31219 -10.31191
 Alpha  occ. eigenvalues --  -10.31068 -10.31051 -10.30779 -10.30771 -10.30636
 Alpha  occ. eigenvalues --  -10.30487 -10.30298 -10.30188 -10.29549 -10.29417
 Alpha  occ. eigenvalues --  -10.29307 -10.29257 -10.29086 -10.29021 -10.28587
 Alpha  occ. eigenvalues --  -10.28577 -10.28559 -10.28315 -10.28308 -10.28301
 Alpha  occ. eigenvalues --  -10.28273 -10.28270 -10.27995 -10.27878 -10.27771
 Alpha  occ. eigenvalues --  -10.27732 -10.27732 -10.27694 -10.27629 -10.27621
 Alpha  occ. eigenvalues --  -10.27531 -10.27489 -10.27329 -10.27328 -10.27223
 Alpha  occ. eigenvalues --  -10.27181 -10.26833 -10.26638 -10.26557 -10.26510
 Alpha  occ. eigenvalues --  -10.26501 -10.26477 -10.26337 -10.26309 -10.26219
 Alpha  occ. eigenvalues --  -10.26206 -10.26197 -10.26000 -10.25897 -10.25842
 Alpha  occ. eigenvalues --  -10.25781 -10.25592 -10.25344 -10.25015 -10.24672
 Alpha  occ. eigenvalues --  -10.24507  -3.16708  -3.16503  -1.91577  -1.91401
 Alpha  occ. eigenvalues --   -1.91174  -1.91026  -1.90975  -1.90808  -1.17966
 Alpha  occ. eigenvalues --   -1.16795  -1.09581  -1.08887  -1.08535  -1.08136
 Alpha  occ. eigenvalues --   -1.07830  -1.07736  -1.04653  -1.04627  -1.03735
 Alpha  occ. eigenvalues --   -1.03453  -1.03365  -1.02580  -1.02085  -1.00646
 Alpha  occ. eigenvalues --   -0.92610  -0.92122  -0.89398  -0.89207  -0.88807
 Alpha  occ. eigenvalues --   -0.88639  -0.88521  -0.88379  -0.87684  -0.87550
 Alpha  occ. eigenvalues --   -0.87370  -0.87222  -0.86818  -0.86696  -0.84627
 Alpha  occ. eigenvalues --   -0.84245  -0.83898  -0.83484  -0.82985  -0.82431
 Alpha  occ. eigenvalues --   -0.82427  -0.81913  -0.81215  -0.80887  -0.80628
 Alpha  occ. eigenvalues --   -0.80246  -0.78798  -0.78373  -0.77425  -0.77366
 Alpha  occ. eigenvalues --   -0.76928  -0.76714  -0.76014  -0.75316  -0.75282
 Alpha  occ. eigenvalues --   -0.75253  -0.73484  -0.73088  -0.71710  -0.71485
 Alpha  occ. eigenvalues --   -0.69686  -0.69349  -0.68871  -0.68713  -0.67967
 Alpha  occ. eigenvalues --   -0.67829  -0.67572  -0.67179  -0.65693  -0.65427
 Alpha  occ. eigenvalues --   -0.65325  -0.65017  -0.64953  -0.64639  -0.64418
 Alpha  occ. eigenvalues --   -0.63908  -0.62377  -0.60878  -0.60460  -0.60209
 Alpha  occ. eigenvalues --   -0.60036  -0.59422  -0.59027  -0.59021  -0.58546
 Alpha  occ. eigenvalues --   -0.58481  -0.58384  -0.58316  -0.57717  -0.57715
 Alpha  occ. eigenvalues --   -0.56560  -0.56526  -0.56237  -0.55596  -0.55307
 Alpha  occ. eigenvalues --   -0.55125  -0.54706  -0.54394  -0.53948  -0.53649
 Alpha  occ. eigenvalues --   -0.53568  -0.53286  -0.53200  -0.53016  -0.52808
 Alpha  occ. eigenvalues --   -0.52692  -0.52538  -0.52387  -0.52301  -0.52174
 Alpha  occ. eigenvalues --   -0.52165  -0.51756  -0.51624  -0.51385  -0.51361
 Alpha  occ. eigenvalues --   -0.51209  -0.50776  -0.50579  -0.50332  -0.50330
 Alpha  occ. eigenvalues --   -0.50147  -0.50026  -0.49993  -0.49809  -0.49700
 Alpha  occ. eigenvalues --   -0.49644  -0.49504  -0.49292  -0.49176  -0.48996
 Alpha  occ. eigenvalues --   -0.48988  -0.48608  -0.48557  -0.48428  -0.48179
 Alpha  occ. eigenvalues --   -0.48099  -0.48040  -0.47807  -0.47363  -0.47300
 Alpha  occ. eigenvalues --   -0.46971  -0.46912  -0.46853  -0.46535  -0.46510
 Alpha  occ. eigenvalues --   -0.46411  -0.46163  -0.46058  -0.46015  -0.45573
 Alpha  occ. eigenvalues --   -0.45458  -0.45423  -0.45296  -0.45184  -0.44995
 Alpha  occ. eigenvalues --   -0.44960  -0.44656  -0.44622  -0.44409  -0.44179
 Alpha  occ. eigenvalues --   -0.43932  -0.43684  -0.43666  -0.43535  -0.43526
 Alpha  occ. eigenvalues --   -0.43354  -0.43274  -0.43080  -0.42930  -0.42711
 Alpha  occ. eigenvalues --   -0.42561  -0.42530  -0.42029  -0.42003  -0.41672
 Alpha  occ. eigenvalues --   -0.41621  -0.41544  -0.41439  -0.41353  -0.41197
 Alpha  occ. eigenvalues --   -0.41146  -0.41044  -0.41022  -0.40655  -0.40518
 Alpha  occ. eigenvalues --   -0.40153  -0.39911  -0.39232  -0.39084  -0.38919
 Alpha  occ. eigenvalues --   -0.38730  -0.38233  -0.37840  -0.37772  -0.37706
 Alpha  occ. eigenvalues --   -0.37225  -0.37093  -0.36570  -0.36390  -0.36217
 Alpha  occ. eigenvalues --   -0.36140  -0.34938  -0.34477  -0.34268  -0.34103
 Alpha  occ. eigenvalues --   -0.33916  -0.33204  -0.33166  -0.31566  -0.31481
 Alpha  occ. eigenvalues --   -0.31453  -0.30816  -0.30568  -0.30095  -0.30050
 Alpha  occ. eigenvalues --   -0.29801  -0.29797  -0.29293  -0.24398  -0.24159
 Alpha  occ. eigenvalues --   -0.21515  -0.21484
 Alpha virt. eigenvalues --   -0.09304  -0.09133  -0.02193  -0.01462  -0.00256
 Alpha virt. eigenvalues --    0.00452   0.01920   0.02396   0.02445   0.03130
 Alpha virt. eigenvalues --    0.05100   0.05333   0.05604   0.05633   0.06327

 Mulliken charges:
               1
     1  Mg  12.003366
     2  C    5.985768
     3  C    6.017439
     4  C    6.021948
     5  C    5.988323
     6  N    6.994923
     7  C    6.027363
     8  C    5.986787
     9  C    6.009581
    10  C    5.971993
    11  C    6.001549
    12  C    5.998719
    13  C    5.996307
    14  H    1.009043
    15  N    7.005329
    16  C    5.958117
    17  C    5.971482
    18  C    5.985926
    19  C    5.963842
    20  C    6.003873
    21  C    5.989039
    22  O    7.970042
    23  C    6.007327
    24  N    7.001962
    25  C    5.960766
    26  C    6.016038
    27  C    5.986338
    28  C    6.032385
    29  C    6.003010
    30  C    5.993630
    31  C    6.000672
    32  N    6.998021
    33  C    6.042276
    34  C    6.028324
    35  C    6.006510
    36  C    6.029107
    37  C    5.997889
    38  C    6.015703
    39  O    8.034484
    40  C    5.999911
    41  C    6.000726
    42  O    8.008137
    43  O    7.999507
    44  C    5.997418
    45  H    0.991745
    46  H    0.993305
    47  H    1.010237
    48  H    1.003069
    49  H    0.999713
    50  H    1.002904
    51  H    0.999669
    52  H    0.986201
    53  H    1.010112
    54  H    0.997011
    55  H    0.996859
    56  H    0.997830
    57  H    0.978673
    58  H    0.984294
    59  H    0.978891
    60  H    0.985551
    61  H    0.989567
    62  H    0.991926
    63  H    0.995930
    64  H    1.003319
    65  H    0.987855
    66  H    1.001075
    67  H    1.001153
    68  H    1.000463
    69  H    1.012289
    70  H    0.994374
    71  H    1.005337
    72  H    1.000035
    73  H    1.019713
    74  H    1.020070
    75  H    1.014622
    76  H    1.011633
    77  H    1.002246
    78  H    1.006469
    79  H    1.004960
    80  Mg  12.000058
    81  C    5.999621
    82  C    6.000324
    83  C    6.000426
    84  C    5.999816
    85  N    6.999905
    86  C    6.000453
    87  C    5.999904
    88  C    6.000236
    89  C    5.999531
    90  C    6.000090
    91  C    5.999980
    92  C    5.999968
    93  H    1.000089
    94  N    7.000128
    95  C    5.999344
    96  C    5.999769
    97  C    5.999714
    98  C    5.999446
    99  C    6.000093
   100  C    5.999777
   101  O    7.999542
   102  C    6.000113
   103  N    7.000014
   104  C    5.999386
   105  C    6.000240
   106  C    5.999832
   107  C    6.000417
   108  C    6.000001
   109  C    5.999927
   110  C    5.999932
   111  N    6.999963
   112  C    6.000561
   113  C    6.000430
   114  C    6.000026
   115  C    6.000586
   116  C    5.999837
   117  C    6.000307
   118  O    8.000486
   119  C    6.000048
   120  C    6.000065
   121  O    8.000070
   122  O    8.000043
   123  C    5.999962
   124  H    0.999814
   125  H    0.999889
   126  H    1.000202
   127  H    0.999939
   128  H    0.999861
   129  H    0.999757
   130  H    1.000027
   131  H    0.999926
   132  H    1.000136
   133  H    0.999955
   134  H    0.999934
   135  H    1.000028
   136  H    0.999729
   137  H    0.999662
   138  H    0.999736
   139  H    0.999727
   140  H    0.999828
   141  H    0.999891
   142  H    0.999948
   143  H    1.000031
   144  H    1.000013
   145  H    0.999823
   146  H    0.999958
   147  H    1.000155
   148  H    1.000009
   149  H    1.000086
   150  H    0.999994
   151  H    1.000152
   152  H    1.000362
   153  H    1.000341
   154  H    1.000286
   155  H    1.000188
   156  H    1.000076
   157  H    1.000077
   158  H    1.000000
 Sum of Mulliken charges = 624.00000

 Dipole moment (field-independent basis, Debye):
    X=             -8.7005    Y=              1.4951    Z=              7.0695  Tot=             11.3098
 Quadrupole moment (field-independent basis, Debye-Ang):
   XX=            374.2234   YY=              0.6839   ZZ=             -4.7887
   XY=            -25.9914   XZ=           -157.9547   YZ=             -4.2836

 Normal termination of Gaussian 16 at Thu Sep 23 09:42:10 2021.
