 Gaussian 16, Revision A.03,
 Gaussian 16:  ES64L-G16RevA.03 25-Dec-2016

 -----------------------------------
 #p cam-b3lyp/Def2SVP td=(nstates=5)
 -----------------------------------

 --------------------------------
 TDDFT excited states in gaussian
 --------------------------------
 Symbolic Z-matrix:
 Charge =  0 Multiplicity = 1

                         Standard orientation:
 ---------------------------------------------------------------------
 Center     Atomic      Atomic             Coordinates (Angstroms)
 Number     Number       Type             X           Y           Z
 ---------------------------------------------------------------------
      1         12           0      -17.910024   -0.724465    0.287175
      2          6           0      -17.443691    2.427074   -1.236164
      3          6           0      -17.507651    0.711975    3.361731
      4          6           0      -17.680177   -3.761056    1.550653
      5          6           0      -17.821944   -2.161216   -2.955331
      6          7           0      -17.632779    1.375661    0.957641
      7          6           0      -17.491123    2.429500    0.178201
      8          6           0      -17.667942    3.675838    1.026597
      9          6           0      -17.249090    3.192084    2.468235
     10          6           0      -17.461085    1.643440    2.281312
     11          6           0      -15.801398    3.689127    2.843582
     12          6           0      -19.137865    4.167341    1.061467
     13          6           0      -19.346817    5.690714    1.473268
     14          1           0      -18.170988    6.597787    1.845829
     15          7           0      -17.841920   -1.412300    2.172626
     16          6           0      -17.750003   -0.673418    3.379995
     17          6           0      -17.817084   -1.626598    4.512275
     18          6           0      -17.783634   -2.958967    3.964095
     19          6           0      -17.768793   -2.801712    2.493502
     20          6           0      -17.899450   -1.213430    5.939378
     21          6           0      -17.798770   -4.391951    4.625343
     22          8           0      -17.859239   -5.451095    3.986138
     23          6           0      -17.589574   -4.492448    6.108540
     24          7           0      -17.653631   -2.712951   -0.589670
     25          6           0      -17.639820   -3.796285    0.140638
     26          6           0      -17.590849   -5.087395   -0.627315
     27          6           0      -17.627909   -4.585445   -2.113578
     28          6           0      -17.804726   -3.048482   -1.899953
     29          6           0      -16.426378   -5.974218   -0.176692
     30          6           0      -18.763139   -5.159108   -2.952212
     31          6           0      -18.420350   -5.539648   -4.437101
     32          7           0      -17.754006   -0.064498   -1.774078
     33          6           0      -17.778417   -0.782200   -2.985962
     34          6           0      -17.839976    0.144569   -4.063396
     35          6           0      -17.535612    1.412529   -3.473110
     36          6           0      -17.544211    1.242918   -2.111775
     37          6           0      -18.197692   -0.185615   -5.484122
     38          6           0      -17.380041    2.878471   -3.632022
     39          8           0      -17.360448    3.556341   -4.638286
     40          6           0      -17.061975    3.495687   -2.187839
     41          6           0      -17.582785    4.891758   -2.083727
     42          8           0      -18.723686    5.237605   -2.175388
     43          8           0      -16.533542    5.821029   -1.955682
     44          6           0      -16.766743    7.164511   -2.526751
     45          1           0      -17.198189    1.060577    4.349668
     46          1           0      -17.750395   -4.803842    1.865152
     47          1           0      -17.874026   -2.632424   -3.939126
     48          1           0      -17.086356    4.421295    0.484342
     49          1           0      -17.936432    3.560633    3.230446
     50          1           0      -15.371737    4.256745    2.018851
     51          1           0      -15.218121    2.768637    2.868793
     52          1           0      -15.752496    4.330790    3.723431
     53          1           0      -19.611797    3.535598    1.813838
     54          1           0      -19.567942    3.957062    0.082289
     55          1           0      -20.049146    5.651293    2.307294
     56          1           0      -19.894677    6.128261    0.638346
     57          1           0      -18.085801   -0.167383    6.179924
     58          1           0      -16.974887   -1.410555    6.481266
     59          1           0      -18.745440   -1.784207    6.323093
     60          1           0      -18.505398   -4.408080    6.693366
     61          1           0      -16.894740   -3.662397    6.242094
     62          1           0      -17.075731   -5.439029    6.273759
     63          1           0      -18.541569   -5.543899   -0.352238
     64          1           0      -16.709259   -4.774644   -2.667542
     65          1           0      -15.594771   -5.422299    0.262471
     66          1           0      -16.050385   -6.433882   -1.089862
     67          1           0      -16.730870   -6.736973    0.540299
     68          1           0      -19.600763   -4.464005   -3.007258
     69          1           0      -19.173284   -5.952360   -2.327385
     70          1           0      -17.420882   -5.205044   -4.714433
     71          1           0      -19.149222   -4.988514   -5.030955
     72          1           0      -18.494813   -6.583567   -4.743484
     73          1           0      -17.573945   -1.043580   -5.735457
     74          1           0      -17.993209    0.610037   -6.200753
     75          1           0      -19.235049   -0.517428   -5.538014
     76          1           0      -15.989694    3.676154   -2.119119
     77          1           0      -16.763362    7.880236   -1.704529
     78          1           0      -17.697954    7.218986   -3.091721
     79          1           0      -15.920090    7.342134   -3.189822
     80         12           0       18.087753   -0.444017    0.071087
     81          6           0       15.722095    1.956008    0.534381
     82          6           0       20.599904    1.893850    0.316784
     83          6           0       20.316606   -2.907262   -0.581142
     84          6           0       15.478618   -2.716912   -0.648717
     85          7           0       18.134202    1.733617    0.170765
     86          6           0       17.072810    2.418709    0.673901
     87          6           0       17.430831    3.769452    1.194317
     88          6           0       19.009434    3.778813    0.849426
     89          6           0       19.294597    2.379304    0.412851
     90          6           0       19.387411    4.839834   -0.280795
     91          6           0       17.157809    3.804618    2.770091
     92          6           0       16.943008    5.175859    3.414426
     93          1           0       17.273329    6.525540    2.729772
     94          7           0       20.173513   -0.570039   -0.019037
     95          6           0       21.032223    0.535969    0.089824
     96          6           0       22.379597    0.041874   -0.074957
     97          6           0       22.314149   -1.347498   -0.304571
     98          6           0       20.889817   -1.647515   -0.254693
     99          6           0       23.599185    0.981851    0.069480
    100          6           0       23.535967   -2.350234   -0.648522
    101          8           0       23.398754   -3.579249   -0.694995
    102          6           0       24.963947   -1.900025   -0.909131
    103          7           0       17.884490   -2.579587   -0.474814
    104          6           0       18.985600   -3.330081   -0.717512
    105          6           0       18.619014   -4.669039   -1.355429
    106          6           0       17.010631   -4.740314   -1.064730
    107          6           0       16.731853   -3.302876   -0.598178
    108          6           0       19.100764   -4.885992   -2.862568
    109          6           0       16.541626   -5.690265    0.150669
    110          6           0       15.416757   -6.686754   -0.061063
    111          7           0       16.000772   -0.482335   -0.005614
    112          6           0       15.090698   -1.423769   -0.311037
    113          6           0       13.711346   -0.879749   -0.108442
    114          6           0       13.966576    0.455547    0.284379
    115          6           0       15.367435    0.645571    0.198134
    116          6           0       12.378093   -1.530288   -0.221539
    117          6           0       13.269322    1.627829    0.660459
    118          8           0       12.044129    1.835265    0.778129
    119          6           0       14.376549    2.663776    0.837598
    120          6           0       14.154110    3.747510   -0.092037
    121          8           0       14.024731    3.743522   -1.276253
    122          8           0       14.228275    4.919338    0.655070
    123          6           0       14.107059    6.288763    0.023122
    124          1           0       21.444268    2.523485    0.603623
    125          1           0       21.036107   -3.671083   -0.884524
    126          1           0       14.640239   -3.295777   -1.040235
    127          1           0       16.967270    4.674333    0.801876
    128          1           0       19.606181    4.013030    1.730959
    129          1           0       20.349274    5.338320   -0.162914
    130          1           0       18.554248    5.529660   -0.414379
    131          1           0       19.466238    4.277521   -1.211790
    132          1           0       17.960015    3.318531    3.325669
    133          1           0       16.258298    3.205500    2.913908
    134          1           0       17.479832    5.138585    4.363181
    135          1           0       15.899627    5.255199    3.717268
    136          1           0       23.347056    2.003710    0.352607
    137          1           0       24.125233    0.955290   -0.884235
    138          1           0       24.259676    0.534123    0.812398
    139          1           0       25.316584   -1.545186    0.058583
    140          1           0       25.012060   -0.964642   -1.467024
    141          1           0       25.504738   -2.657453   -1.476168
    142          1           0       19.080889   -5.455624   -0.757532
    143          1           0       16.466302   -5.047967   -1.957781
    144          1           0       18.256831   -5.085317   -3.523404
    145          1           0       19.821292   -5.701640   -2.911143
    146          1           0       19.550431   -3.974441   -3.256959
    147          1           0       16.323493   -5.117407    1.051856
    148          1           0       17.424880   -6.255842    0.445929
    149          1           0       14.659166   -6.459402    0.688107
    150          1           0       15.748153   -7.722926    0.001007
    151          1           0       14.940340   -6.502270   -1.024938
    152          1           0       12.405237   -2.600056   -0.428153
    153          1           0       11.793669   -1.081794   -1.025328
    154          1           0       11.844167   -1.380560    0.716653
    155          1           0       14.404099    3.068547    1.849700
    156          1           0       14.015667    6.200345   -1.059652
    157          1           0       15.018927    6.858202    0.207855
    158          1           0       13.218205    6.734668    0.469369
 ---------------------------------------------------------------------

 SCF Done:  E(RCAM-B3LYP) =  -4069.79977081     A.U. after   19 cycles

 Excitation energies and oscillator strengths:

 Excited State   1:      Singlet-A      1.7389 eV  713.01 nm  f=0.3982  <S**2>=0.000
     309 -> 316        0.19176
     312 -> 313        0.68294
     309 <- 316        0.10976
 This state for optimization and/or second-order correction.
 Total Energy, E(TD-HF/TD-DFT) =  -4069.73586825
 Copying the excited state density for this state as the 1-particle RhoCI density.

 Excited State   2:      Singlet-A      1.7948 eV  690.78 nm  f=0.3725  <S**2>=0.000
     310 -> 315       -0.18888
     311 -> 314        0.68030
     310 <- 315       -0.10306

 Excited State   3:      Singlet-A      2.1692 eV  571.57 nm  f=0.0979  <S**2>=0.000
     310 -> 314        0.64307
     311 -> 315        0.27288

 Excited State   4:      Singlet-A      2.2287 eV  556.30 nm  f=0.1028  <S**2>=0.000
     309 -> 313        0.63902
     312 -> 316       -0.29488

 Excited State   5:      Singlet-A      3.1932 eV  388.27 nm  f=0.0000  <S**2>=0.000
     312 -> 314        0.70710

 The electronic state is 1-A.
 Alpha  occ. eigenvalues --  -46.89407 -46.88494 -19.23688 -19.23219 -19.20263
 Alpha  occ. eigenvalues --  -19.19596 -19.19530 -19.19200 -19.18787 -19.18320
 Alpha  occ. eigenvalues --  -14.42484 -14.41922 -14.41695 -14.41677 -14.39698
 Alpha  occ. eigenvalues --  -14.39558 -14.39397 -14.37959 -10.38658 -10.38502
 Alpha  occ. eigenvalues --  -10.36754 -10.36236 -10.34767 -10.34481 -10.32168
 Alpha  occ. eigenvalues --  -10.31907 -10.31752 -10.31503 -10.30836 -10.30771
 Alpha  occ. eigenvalues --  -10.30682 -10.30651 -10.30591 -10.30566 -10.30221
 Alpha  occ. eigenvalues --  -10.30050 -10.30000 -10.29875 -10.29752 -10.29688
 Alpha  occ. eigenvalues --  -10.29163 -10.29021 -10.28861 -10.28780 -10.28304
 Alpha  occ. eigenvalues --  -10.28257 -10.28195 -10.28193 -10.28166 -10.28142
 Alpha  occ. eigenvalues --  -10.28046 -10.27970 -10.27965 -10.27937 -10.27847
 Alpha  occ. eigenvalues --  -10.27830 -10.27810 -10.27651 -10.27585 -10.27582
 Alpha  occ. eigenvalues --  -10.27548 -10.27522 -10.27468 -10.27404 -10.27370
 Alpha  occ. eigenvalues --  -10.27343 -10.26857 -10.26668 -10.26652 -10.26443
 Alpha  occ. eigenvalues --  -10.26218 -10.26179 -10.26173 -10.26123 -10.26111
 Alpha  occ. eigenvalues --  -10.26072 -10.26034 -10.25935 -10.25899 -10.25832
 Alpha  occ. eigenvalues --  -10.25815 -10.25573 -10.25403 -10.25372 -10.24755
 Alpha  occ. eigenvalues --  -10.24379  -3.17814  -3.16955  -1.92733  -1.92251
 Alpha  occ. eigenvalues --   -1.92125  -1.91868  -1.91412  -1.91251  -1.15637
 Alpha  occ. eigenvalues --   -1.15155  -1.10441  -1.09520  -1.09496  -1.08333
 Alpha  occ. eigenvalues --   -1.07208  -1.06951  -1.05569  -1.05062  -1.04474
 Alpha  occ. eigenvalues --   -1.04466  -1.03583  -1.02636  -1.01649  -1.00925
 Alpha  occ. eigenvalues --   -0.93500  -0.91771  -0.89239  -0.88858  -0.88615
 Alpha  occ. eigenvalues --   -0.88269  -0.87701  -0.87551  -0.87524  -0.87191
 Alpha  occ. eigenvalues --   -0.87072  -0.86913  -0.86228  -0.85396  -0.84332
 Alpha  occ. eigenvalues --   -0.83938  -0.83643  -0.83481  -0.82825  -0.82371
 Alpha  occ. eigenvalues --   -0.81652  -0.81614  -0.81195  -0.80628  -0.80306
 Alpha  occ. eigenvalues --   -0.79820  -0.78556  -0.78419  -0.77478  -0.77146
 Alpha  occ. eigenvalues --   -0.77130  -0.76333  -0.76208  -0.75354  -0.75193
 Alpha  occ. eigenvalues --   -0.75104  -0.72597  -0.72462  -0.71992  -0.71651
 Alpha  occ. eigenvalues --   -0.69785  -0.69264  -0.68646  -0.68577  -0.68233
 Alpha  occ. eigenvalues --   -0.67208  -0.66587  -0.66000  -0.65990  -0.65345
 Alpha  occ. eigenvalues --   -0.65211  -0.65150  -0.64522  -0.64479  -0.64258
 Alpha  occ. eigenvalues --   -0.63420  -0.61822  -0.61002  -0.60456  -0.60160
 Alpha  occ. eigenvalues --   -0.59932  -0.59189  -0.59058  -0.58802  -0.58557
 Alpha  occ. eigenvalues --   -0.58479  -0.58011  -0.57762  -0.57496  -0.56785
 Alpha  occ. eigenvalues --   -0.56412  -0.56033  -0.55508  -0.55391  -0.55299
 Alpha  occ. eigenvalues --   -0.55035  -0.54241  -0.54221  -0.53776  -0.53638
 Alpha  occ. eigenvalues --   -0.53155  -0.53074  -0.53050  -0.52983  -0.52779
 Alpha  occ. eigenvalues --   -0.52767  -0.52207  -0.52143  -0.52133  -0.51975
 Alpha  occ. eigenvalues --   -0.51704  -0.51689  -0.51637  -0.51413  -0.51320
 Alpha  occ. eigenvalues --   -0.51156  -0.50865  -0.50813  -0.50548  -0.50465
 Alpha  occ. eigenvalues --   -0.50130  -0.49988  -0.49812  -0.49708  -0.49402
 Alpha  occ. eigenvalues --   -0.49236  -0.49132  -0.48922  -0.48894  -0.48609
 Alpha  occ. eigenvalues --   -0.48312  -0.48287  -0.48152  -0.47979  -0.47957
 Alpha  occ. eigenvalues --   -0.47791  -0.47620  -0.47475  -0.47275  -0.47271
 Alpha  occ. eigenvalues --   -0.46975  -0.46935  -0.46598  -0.46515  -0.46463
 Alpha  occ. eigenvalues --   -0.46449  -0.46253  -0.46175  -0.46107  -0.45591
 Alpha  occ. eigenvalues --   -0.45516  -0.45402  -0.45196  -0.44998  -0.44832
 Alpha  occ. eigenvalues --   -0.44695  -0.44356  -0.44269  -0.44208  -0.43987
 Alpha  occ. eigenvalues --   -0.43904  -0.43900  -0.43699  -0.43676  -0.43284
 Alpha  occ. eigenvalues --   -0.43147  -0.43031  -0.42694  -0.42678  -0.42556
 Alpha  occ. eigenvalues --   -0.42330  -0.42211  -0.41968  -0.41753  -0.41644
 Alpha  occ. eigenvalues --   -0.41637  -0.41510  -0.41312  -0.41302  -0.41141
 Alpha  occ. eigenvalues --   -0.41104  -0.41059  -0.40932  -0.40818  -0.40214
 Alpha  occ. eigenvalues --   -0.40093  -0.39957  -0.39729  -0.39414  -0.39015
 Alpha  occ. eigenvalues --   -0.38742  -0.38427  -0.37792  -0.37679  -0.37542
 Alpha  occ. eigenvalues --   -0.37515  -0.36765  -0.36585  -0.36333  -0.36080
 Alpha  occ. eigenvalues --   -0.35710  -0.35357  -0.34496  -0.34238  -0.34127
 Alpha  occ. eigenvalues --   -0.33751  -0.33161  -0.33055  -0.31859  -0.31256
 Alpha  occ. eigenvalues --   -0.31145  -0.31106  -0.31027  -0.30430  -0.30181
 Alpha  occ. eigenvalues --   -0.30055  -0.29877  -0.28255  -0.23839  -0.23682
 Alpha  occ. eigenvalues --   -0.21284  -0.21138
 Alpha virt. eigenvalues --   -0.08521  -0.08444  -0.01980  -0.01707  -0.00081
 Alpha virt. eigenvalues --   -0.00009   0.02302   0.02763   0.02788   0.03051
 Alpha virt. eigenvalues --    0.04662   0.04867   0.05328   0.05812   0.06260

 Mulliken charges:
               1
     1  Mg   0.811753
     2  C    0.065937
     3  C   -0.080733
     4  C   -0.049824
     5  C   -0.080328
     6  N   -0.243699
     7  C   -0.044100
     8  C   -0.078535
     9  C   -0.052597
    10  C    0.070661
    11  C    0.081530
    12  C    0.031116
    13  C   -0.039721
    14  H    0.027268
    15  N   -0.472450
    16  C    0.156172
    17  C   -0.129856
    18  C   -0.044029
    19  C    0.185465
    20  C    0.083039
    21  C    0.032485
    22  O   -0.206835
    23  C    0.049058
    24  N   -0.232678
    25  C   -0.065504
    26  C    0.007698
    27  C   -0.051176
    28  C    0.034414
    29  C    0.080388
    30  C    0.038152
    31  C   -0.000209
    32  N   -0.356296
    33  C    0.124468
    34  C   -0.178836
    35  C    0.006983
    36  C    0.040669
    37  C    0.124954
    38  C    0.058966
    39  O   -0.165398
    40  C   -0.025075
    41  C    0.157028
    42  O   -0.178287
    43  O   -0.379196
    44  C    0.174381
    45  H   -0.025455
    46  H   -0.012933
    47  H   -0.046868
    48  H    0.010075
    49  H    0.009961
    50  H    0.016415
    51  H    0.011476
    52  H    0.026190
    53  H    0.000516
    54  H    0.030950
    55  H    0.019229
    56  H    0.041672
    57  H    0.019230
    58  H    0.042676
    59  H    0.038210
    60  H    0.056873
    61  H    0.022377
    62  H    0.039026
    63  H    0.015418
    64  H    0.015322
    65  H    0.024480
    66  H    0.009853
    67  H    0.034375
    68  H    0.006765
    69  H   -0.002376
    70  H    0.016842
    71  H    0.017311
    72  H    0.022453
    73  H    0.015630
    74  H    0.033876
    75  H    0.028189
    76  H    0.049882
    77  H    0.034568
    78  H    0.052926
    79  H    0.037645
    80  Mg   0.812077
    81  C   -0.074087
    82  C   -0.059168
    83  C   -0.048964
    84  C   -0.095304
    85  N   -0.287475
    86  C   -0.007273
    87  C   -0.035648
    88  C   -0.060095
    89  C    0.073576
    90  C    0.067926
    91  C    0.021889
    92  C   -0.043628
    93  H    0.021813
    94  N   -0.352748
    95  C    0.090820
    96  C   -0.157972
    97  C   -0.044742
    98  C    0.100256
    99  C    0.108423
   100  C    0.033425
   101  O   -0.220437
   102  C    0.070306
   103  N   -0.263498
   104  C    0.011763
   105  C   -0.016195
   106  C   -0.070740
   107  C    0.089946
   108  C    0.065462
   109  C    0.016614
   110  C    0.018719
   111  N   -0.299324
   112  C    0.080616
   113  C   -0.145593
   114  C   -0.016610
   115  C    0.164945
   116  C    0.124107
   117  C    0.057598
   118  O   -0.193381
   119  C    0.017374
   120  C    0.186315
   121  O   -0.169710
   122  O   -0.386245
   123  C    0.166618
   124  H   -0.032730
   125  H   -0.011498
   126  H   -0.026907
   127  H    0.021758
   128  H    0.005721
   129  H    0.022420
   130  H    0.011926
   131  H    0.016965
   132  H    0.008702
   133  H    0.010144
   134  H    0.020030
   135  H    0.030499
   136  H    0.019250
   137  H    0.030240
   138  H    0.026453
   139  H    0.033414
   140  H    0.005457
   141  H    0.050268
   142  H    0.010940
   143  H    0.010663
   144  H    0.012019
   145  H    0.028782
   146  H    0.024181
   147  H    0.014739
   148  H   -0.003672
   149  H    0.015236
   150  H    0.026184
   151  H    0.004569
   152  H    0.001606
   153  H    0.042134
   154  H    0.040872
   155  H    0.039651
   156  H    0.049423
   157  H    0.037321
   158  H    0.051487
 Sum of Mulliken charges =  -0.00000

 Dipole moment (field-independent basis, Debye):
    X=              4.1918    Y=             -1.5025    Z=              6.4508  Tot=              7.8384
 Quadrupole moment (field-independent basis, Debye-Ang):
   XX=           -423.7253   YY=           -487.0529   ZZ=           -496.0634
   XY=            101.1560   XZ=            -66.6389   YZ=             33.3027

 Normal termination of Gaussian 16 at Wed Sep 15 02:03:04 2021.
