 Gaussian 16, Revision A.03,
 Gaussian 16:  ES64L-G16RevA.03 25-Dec-2016

 ----------------------------------------------------------
 #p cam-b3lyp/Def2SVP td=(nstates=5) density=(transition=1)
 ----------------------------------------------------------

 --------------------------------
 TDDFT excited states in gaussian
 --------------------------------
 Symbolic Z-matrix:
 Charge =  0 Multiplicity = 1

                         Standard orientation:
 ---------------------------------------------------------------------
 Center     Atomic      Atomic             Coordinates (Angstroms)
 Number     Number       Type             X           Y           Z
 ---------------------------------------------------------------------
      1         12           0       26.111398   -0.817887    0.260122
      2          6           0       26.937585    2.270651   -1.108003
      3          6           0       25.047080    0.777402    3.100042
      4          6           0       25.624139   -3.884843    1.663899
      5          6           0       27.504559   -2.260826   -2.674219
      6          7           0       26.036785    1.268166    0.931812
      7          6           0       26.319807    2.347290    0.136720
      8          6           0       25.962046    3.592077    0.952503
      9          6           0       25.662654    3.094076    2.355226
     10          6           0       25.537869    1.596337    2.099922
     11          6           0       26.594471    3.435185    3.486971
     12          6           0       24.823402    4.527008    0.321916
     13          6           0       24.295649    5.674070    1.242447
     14          1           0       24.982153    7.062855    1.164652
     15          7           0       25.293528   -1.432708    2.065644
     16          6           0       24.947518   -0.639319    3.109845
     17          6           0       24.524650   -1.515801    4.170990
     18          6           0       24.701803   -2.865453    3.746413
     19          6           0       25.244452   -2.789060    2.464990
     20          6           0       24.020724   -0.952469    5.463853
     21          6           0       24.494901   -4.140162    4.615302
     22          8           0       24.985887   -5.212012    4.309297
     23          6           0       23.816549   -4.135720    5.901262
     24          7           0       26.489023   -2.665504   -0.391832
     25          6           0       26.168911   -3.817090    0.326575
     26          6           0       26.493695   -5.105248   -0.449553
     27          6           0       26.804387   -4.542401   -1.878148
     28          6           0       26.893157   -3.044883   -1.634374
     29          6           0       27.421570   -6.049636    0.195493
     30          6           0       25.836268   -4.945662   -3.123239
     31          6           0       26.402240   -5.670265   -4.348178
     32          7           0       27.117566   -0.147670   -1.573037
     33          6           0       27.618466   -0.866972   -2.621626
     34          6           0       28.168858   -0.011013   -3.617906
     35          6           0       27.853151    1.300243   -3.093122
     36          6           0       27.289305    1.139520   -1.796430
     37          6           0       28.771629   -0.483972   -4.885598
     38          6           0       27.870837    2.708794   -3.414501
     39          8           0       28.186186    3.347612   -4.399171
     40          6           0       27.256036    3.409678   -2.065211
     41          6           0       28.132834    4.501899   -1.571167
     42          8           0       29.241318    4.321308   -1.116875
     43          8           0       27.554649    5.711705   -1.670720
     44          6           0       28.238159    6.865310   -0.969176
     45          1           0       24.656831    1.282778    3.986217
     46          1           0       25.464673   -4.854551    2.139656
     47          1           0       27.856610   -2.887841   -3.496249
     48          1           0       26.913850    4.121317    0.909107
     49          1           0       24.715548    3.515134    2.691645
     50          1           0       27.063143    2.460987    3.622768
     51          1           0       26.070909    3.827653    4.358843
     52          1           0       27.403150    4.096493    3.175084
     53          1           0       24.030482    3.803524    0.131135
     54          1           0       25.180608    4.967719   -0.608079
     55          1           0       24.377951    5.413757    2.296957
     56          1           0       23.234064    5.806195    1.033489
     57          1           0       23.903585    0.128561    5.545858
     58          1           0       24.782214   -1.196619    6.203806
     59          1           0       23.108702   -1.435977    5.814462
     60          1           0       24.077261   -3.391923    6.653485
     61          1           0       23.791225   -5.093206    6.421368
     62          1           0       22.776328   -4.005007    5.603745
     63          1           0       25.487314   -5.524821   -0.451583
     64          1           0       27.834033   -4.886942   -1.972813
     65          1           0       27.023081   -7.027480    0.467260
     66          1           0       27.791392   -5.573882    1.104160
     67          1           0       28.282078   -6.316948   -0.417706
     68          1           0       25.387592   -4.025009   -3.495832
     69          1           0       24.963884   -5.561748   -2.902048
     70          1           0       26.542284   -5.042917   -5.228861
     71          1           0       25.911509   -6.612534   -4.590273
     72          1           0       27.434149   -5.935392   -4.117609
     73          1           0       29.438322   -1.316181   -4.660898
     74          1           0       29.271181    0.312293   -5.436769
     75          1           0       27.991840   -1.011360   -5.435988
     76          1           0       26.326470    3.879730   -2.384601
     77          1           0       27.816094    7.725598   -1.488172
     78          1           0       29.314635    6.769515   -1.109593
     79          1           0       27.899443    6.844066    0.066747
     80         12           0      -26.827225   -0.555136   -0.192789
     81          6           0      -25.205511    2.602815   -0.456361
     82          6           0      -28.289839    0.535042    2.721805
     83          6           0      -28.193930   -3.561560   -0.081376
     84          6           0      -24.851262   -1.731282   -2.955320
     85          7           0      -26.708702    1.387105    1.083340
     86          6           0      -26.050432    2.528551    0.663703
     87          6           0      -26.375423    3.633186    1.726825
     88          6           0      -27.364257    2.942973    2.809785
     89          6           0      -27.445627    1.547921    2.181693
     90          6           0      -26.911895    3.011136    4.283286
     91          6           0      -26.854820    5.041055    1.180131
     92          6           0      -26.010286    6.215911    1.579785
     93          1           0      -25.199416    6.268775    2.847656
     94          7           0      -28.229380   -1.389668    1.130087
     95          6           0      -28.682461   -0.777433    2.256000
     96          6           0      -29.726133   -1.625303    2.772160
     97          6           0      -29.648757   -2.839559    2.056467
     98          6           0      -28.634588   -2.686491    0.963137
     99          6           0      -30.535243   -1.186546    4.004351
    100          6           0      -30.338649   -4.128749    2.385429
    101          8           0      -30.102964   -5.180994    1.745521
    102          6           0      -31.280249   -4.178263    3.531021
    103          7           0      -26.466009   -2.406227   -1.368009
    104          6           0      -27.208023   -3.437576   -1.159764
    105          6           0      -27.020647   -4.693306   -2.167337
    106          6           0      -25.930531   -4.089729   -3.065943
    107          6           0      -25.727004   -2.715378   -2.476775
    108          6           0      -26.591367   -5.965892   -1.349179
    109          6           0      -26.234900   -4.025760   -4.603976
    110          6           0      -27.277206   -2.977304   -5.060114
    111          7           0      -25.299729    0.194399   -1.326787
    112          6           0      -24.597551   -0.428174   -2.385544
    113          6           0      -23.697800    0.571796   -2.976506
    114          6           0      -23.911390    1.772039   -2.257022
    115          6           0      -24.932640    1.504220   -1.283864
    116          6           0      -22.746471    0.329169   -4.186346
    117          6           0      -23.510056    3.076998   -2.206574
    118          8           0      -22.668708    3.697432   -2.824139
    119          6           0      -24.350360    3.744345   -1.082200
    120          6           0      -23.446351    4.381221   -0.152533
    121          8           0      -22.930733    3.825168    0.823745
    122          8           0      -23.060915    5.631339   -0.651024
    123          6           0      -21.986480    6.294824    0.128375
    124          1           0      -28.608859    0.658004    3.759266
    125          1           0      -28.528310   -4.590396    0.067970
    126          1           0      -24.229751   -2.035940   -3.799870
    127          1           0      -25.356697    3.824951    2.061272
    128          1           0      -28.308880    3.484980    2.816267
    129          1           0      -27.682689    3.472505    4.901957
    130          1           0      -25.963620    3.509634    4.483504
    131          1           0      -26.788363    1.965421    4.564936
    132          1           0      -27.885428    5.227358    1.482827
    133          1           0      -26.777275    4.967390    0.095363
    134          1           0      -26.704168    7.005266    1.871012
    135          1           0      -25.376997    6.473643    0.731628
    136          1           0      -30.443713   -0.117258    4.196380
    137          1           0      -30.199568   -1.740993    4.879774
    138          1           0      -31.565200   -1.439594    3.754905
    139          1           0      -32.053679   -3.435411    3.335791
    140          1           0      -30.790034   -3.890548    4.461871
    141          1           0      -31.653955   -5.190821    3.677825
    142          1           0      -27.930902   -4.885345   -2.735904
    143          1           0      -24.974656   -4.566518   -2.847767
    144          1           0      -26.035963   -5.626062   -0.475070
    145          1           0      -25.906349   -6.549107   -1.965586
    146          1           0      -27.374991   -6.639697   -1.001781
    147          1           0      -26.421673   -5.029262   -4.985028
    148          1           0      -25.296419   -3.803638   -5.110964
    149          1           0      -28.084106   -2.751716   -4.363692
    150          1           0      -27.647196   -3.274238   -6.042112
    151          1           0      -26.699388   -2.071875   -5.245008
    152          1           0      -22.834982    1.091098   -4.960836
    153          1           0      -22.861561   -0.657199   -4.634300
    154          1           0      -21.726873    0.574520   -3.888089
    155          1           0      -24.916081    4.485535   -1.645776
    156          1           0      -21.042321    5.764248    0.007944
    157          1           0      -22.158903    6.320386    1.203736
    158          1           0      -22.022374    7.350830   -0.139875
 ---------------------------------------------------------------------

 SCF Done:  E(RCAM-B3LYP) =  -4069.81268252     A.U. after   19 cycles

 Excitation energies and oscillator strengths:

 Excited State   1:      Singlet-A      1.6981 eV  730.13 nm  f=0.3978  <S**2>=0.000
     309 -> 315       -0.17921
     312 -> 313        0.68579
     309 <- 315       -0.10835
 This state for optimization and/or second-order correction.
 Total Energy, E(TD-HF/TD-DFT) =  -4069.75027804
 Copying the excited state density for this state as the 1-particle RhoCI density.

 Excited State   2:      Singlet-A      1.7536 eV  707.02 nm  f=0.3751  <S**2>=0.000
     310 -> 316       -0.18841
     311 -> 314        0.68194
     310 <- 316       -0.10758

 Excited State   3:      Singlet-A      2.2094 eV  561.18 nm  f=0.1080  <S**2>=0.000
     310 -> 314        0.64206
     311 -> 316        0.28091

 Excited State   4:      Singlet-A      2.2224 eV  557.87 nm  f=0.0951  <S**2>=0.000
     309 -> 313        0.63226
     312 -> 315        0.30141

 Excited State   5:      Singlet-A      3.2152 eV  385.62 nm  f=0.0000  <S**2>=0.000
     311 -> 313        0.70711

 The electronic state is 1-A.
 Alpha  occ. eigenvalues --  -46.89826 -46.87862 -19.24403 -19.24278 -19.19303
 Alpha  occ. eigenvalues --  -19.19065 -19.18780 -19.18645 -19.18242 -19.17534
 Alpha  occ. eigenvalues --  -14.42698 -14.42683 -14.42027 -14.41891 -14.39773
 Alpha  occ. eigenvalues --  -14.39685 -14.39033 -14.38423 -10.38621 -10.37950
 Alpha  occ. eigenvalues --  -10.35570 -10.35074 -10.34632 -10.33309 -10.32091
 Alpha  occ. eigenvalues --  -10.31912 -10.31727 -10.31583 -10.31426 -10.31112
 Alpha  occ. eigenvalues --  -10.31109 -10.31098 -10.30906 -10.30799 -10.30427
 Alpha  occ. eigenvalues --  -10.30210 -10.29862 -10.29790 -10.29682 -10.29592
 Alpha  occ. eigenvalues --  -10.29368 -10.28978 -10.28833 -10.28785 -10.28386
 Alpha  occ. eigenvalues --  -10.28281 -10.28123 -10.28112 -10.28096 -10.28067
 Alpha  occ. eigenvalues --  -10.28057 -10.27996 -10.27991 -10.27989 -10.27957
 Alpha  occ. eigenvalues --  -10.27699 -10.27518 -10.27515 -10.27507 -10.27414
 Alpha  occ. eigenvalues --  -10.27344 -10.27245 -10.27235 -10.27200 -10.27144
 Alpha  occ. eigenvalues --  -10.27124 -10.27042 -10.27034 -10.27017 -10.26937
 Alpha  occ. eigenvalues --  -10.26927 -10.26848 -10.26842 -10.26608 -10.26363
 Alpha  occ. eigenvalues --  -10.26338 -10.26237 -10.26140 -10.26012 -10.25982
 Alpha  occ. eigenvalues --  -10.25878 -10.25733 -10.25575 -10.25477 -10.25226
 Alpha  occ. eigenvalues --  -10.23905  -3.18162  -3.16522  -1.93076  -1.92652
 Alpha  occ. eigenvalues --   -1.92418  -1.91437  -1.90979  -1.90824  -1.15831
 Alpha  occ. eigenvalues --   -1.14364  -1.10968  -1.09474  -1.09256  -1.08471
 Alpha  occ. eigenvalues --   -1.06717  -1.06321  -1.06119  -1.05225  -1.04095
 Alpha  occ. eigenvalues --   -1.03707  -1.03301  -1.03041  -1.02337  -1.01711
 Alpha  occ. eigenvalues --   -0.92418  -0.92290  -0.89756  -0.89199  -0.88695
 Alpha  occ. eigenvalues --   -0.88318  -0.88292  -0.87835  -0.87556  -0.87261
 Alpha  occ. eigenvalues --   -0.86959  -0.86800  -0.86688  -0.85485  -0.84627
 Alpha  occ. eigenvalues --   -0.84330  -0.83691  -0.83380  -0.82627  -0.82547
 Alpha  occ. eigenvalues --   -0.82456  -0.82231  -0.81396  -0.80727  -0.80682
 Alpha  occ. eigenvalues --   -0.80056  -0.78779  -0.78330  -0.77781  -0.77586
 Alpha  occ. eigenvalues --   -0.77267  -0.76452  -0.75878  -0.75739  -0.75134
 Alpha  occ. eigenvalues --   -0.74986  -0.72764  -0.72531  -0.71801  -0.71566
 Alpha  occ. eigenvalues --   -0.70473  -0.69373  -0.69045  -0.68931  -0.68212
 Alpha  occ. eigenvalues --   -0.67847  -0.66922  -0.66903  -0.65533  -0.65409
 Alpha  occ. eigenvalues --   -0.65323  -0.64914  -0.64663  -0.64651  -0.64243
 Alpha  occ. eigenvalues --   -0.64189  -0.61426  -0.61409  -0.60515  -0.60235
 Alpha  occ. eigenvalues --   -0.59739  -0.59511  -0.58939  -0.58814  -0.58613
 Alpha  occ. eigenvalues --   -0.58138  -0.57948  -0.57943  -0.57532  -0.57285
 Alpha  occ. eigenvalues --   -0.56347  -0.56288  -0.56029  -0.55739  -0.55394
 Alpha  occ. eigenvalues --   -0.55278  -0.54957  -0.54769  -0.54560  -0.53790
 Alpha  occ. eigenvalues --   -0.53602  -0.53247  -0.53142  -0.53023  -0.52952
 Alpha  occ. eigenvalues --   -0.52847  -0.52635  -0.52577  -0.52330  -0.52061
 Alpha  occ. eigenvalues --   -0.52030  -0.51559  -0.51299  -0.51296  -0.50976
 Alpha  occ. eigenvalues --   -0.50827  -0.50815  -0.50478  -0.50461  -0.50287
 Alpha  occ. eigenvalues --   -0.49916  -0.49858  -0.49517  -0.49422  -0.49330
 Alpha  occ. eigenvalues --   -0.49255  -0.49221  -0.49124  -0.48977  -0.48961
 Alpha  occ. eigenvalues --   -0.48870  -0.48609  -0.48580  -0.48214  -0.47987
 Alpha  occ. eigenvalues --   -0.47935  -0.47706  -0.47515  -0.47434  -0.47322
 Alpha  occ. eigenvalues --   -0.47088  -0.46822  -0.46743  -0.46618  -0.46576
 Alpha  occ. eigenvalues --   -0.46523  -0.46521  -0.46236  -0.46169  -0.46050
 Alpha  occ. eigenvalues --   -0.45828  -0.45494  -0.45136  -0.45097  -0.44937
 Alpha  occ. eigenvalues --   -0.44784  -0.44605  -0.44391  -0.44230  -0.44225
 Alpha  occ. eigenvalues --   -0.43996  -0.43787  -0.43753  -0.43667  -0.43451
 Alpha  occ. eigenvalues --   -0.43355  -0.43210  -0.42794  -0.42731  -0.42687
 Alpha  occ. eigenvalues --   -0.42484  -0.42371  -0.41942  -0.41871  -0.41831
 Alpha  occ. eigenvalues --   -0.41810  -0.41587  -0.41494  -0.41380  -0.41267
 Alpha  occ. eigenvalues --   -0.41263  -0.41150  -0.40948  -0.40596  -0.40364
 Alpha  occ. eigenvalues --   -0.40183  -0.40125  -0.39784  -0.39490  -0.39261
 Alpha  occ. eigenvalues --   -0.39124  -0.38773  -0.37756  -0.37246  -0.36948
 Alpha  occ. eigenvalues --   -0.36870  -0.36636  -0.36372  -0.36274  -0.36105
 Alpha  occ. eigenvalues --   -0.36037  -0.35502  -0.34052  -0.33968  -0.33942
 Alpha  occ. eigenvalues --   -0.33680  -0.33054  -0.32968  -0.31321  -0.31292
 Alpha  occ. eigenvalues --   -0.31212  -0.30952  -0.30335  -0.30193  -0.29970
 Alpha  occ. eigenvalues --   -0.29703  -0.29565  -0.29032  -0.24189  -0.23798
 Alpha  occ. eigenvalues --   -0.21251  -0.21112
 Alpha virt. eigenvalues --   -0.08781  -0.08548  -0.01859  -0.01791   0.00135
 Alpha virt. eigenvalues --    0.00632   0.02317   0.02578   0.02746   0.03393
 Alpha virt. eigenvalues --    0.04716   0.05002   0.05258   0.05532   0.06277

 Mulliken charges:
               1
     1  Mg  12.003235
     2  C    6.023374
     3  C    5.978914
     4  C    5.976620
     5  C    6.016900
     6  N    7.005787
     7  C    5.962243
     8  C    6.007531
     9  C    5.992646
    10  C    6.029568
    11  C    5.998905
    12  C    6.005353
    13  C    5.998604
    14  H    1.000952
    15  N    6.991529
    16  C    6.042209
    17  C    6.028377
    18  C    6.008908
    19  C    6.040790
    20  C    5.993211
    21  C    6.012637
    22  O    8.021827
    23  C    5.991891
    24  N    6.995676
    25  C    6.045852
    26  C    5.989668
    27  C    6.015447
    28  C    5.961628
    29  C    5.997474
    30  C    6.003038
    31  C    6.000350
    32  N    7.006158
    33  C    5.961361
    34  C    5.968306
    35  C    5.996385
    36  C    5.963939
    37  C    6.002873
    38  C    5.984338
    39  O    7.968728
    40  C    5.996401
    41  C    5.996399
    42  O    7.995282
    43  O    7.998931
    44  C    6.001463
    45  H    1.008412
    46  H    1.009036
    47  H    0.988303
    48  H    1.000374
    49  H    0.999639
    50  H    0.995056
    51  H    1.000494
    52  H    1.013201
    53  H    0.993217
    54  H    1.005598
    55  H    0.992610
    56  H    0.997511
    57  H    1.022408
    58  H    1.023457
    59  H    1.021876
    60  H    1.005130
    61  H    1.014819
    62  H    1.007792
    63  H    0.999402
    64  H    0.997377
    65  H    1.002255
    66  H    0.996580
    67  H    1.013502
    68  H    1.003338
    69  H    0.987482
    70  H    1.004578
    71  H    0.994060
    72  H    0.997915
    73  H    0.979996
    74  H    0.984835
    75  H    0.977575
    76  H    0.992759
    77  H    0.996327
    78  H    0.998172
    79  H    0.993203
    80  Mg  12.000004
    81  C    5.999997
    82  C    6.000025
    83  C    6.000041
    84  C    5.999979
    85  N    6.999973
    86  C    6.000020
    87  C    5.999989
    88  C    6.000022
    89  C    5.999950
    90  C    6.000003
    91  C    5.999995
    92  C    6.000004
    93  H    0.999977
    94  N    7.000017
    95  C    5.999943
    96  C    5.999984
    97  C    5.999970
    98  C    5.999941
    99  C    6.000005
   100  C    6.000007
   101  O    7.999964
   102  C    6.000009
   103  N    7.000001
   104  C    5.999945
   105  C    6.000012
   106  C    6.000000
   107  C    6.000036
   108  C    6.000007
   109  C    5.999995
   110  C    5.999995
   111  N    6.999991
   112  C    6.000040
   113  C    6.000019
   114  C    6.000060
   115  C    6.000048
   116  C    5.999995
   117  C    5.999967
   118  O    8.000048
   119  C    6.000016
   120  C    5.999995
   121  O    7.999987
   122  O    8.000013
   123  C    6.000001
   124  H    0.999982
   125  H    0.999986
   126  H    1.000014
   127  H    0.999978
   128  H    1.000007
   129  H    1.000003
   130  H    0.999972
   131  H    0.999984
   132  H    1.000019
   133  H    1.000012
   134  H    1.000014
   135  H    1.000003
   136  H    0.999985
   137  H    0.999966
   138  H    1.000001
   139  H    1.000008
   140  H    0.999977
   141  H    0.999986
   142  H    1.000018
   143  H    0.999984
   144  H    0.999976
   145  H    0.999985
   146  H    1.000004
   147  H    1.000014
   148  H    1.000000
   149  H    1.000012
   150  H    1.000027
   151  H    0.999997
   152  H    1.000043
   153  H    1.000024
   154  H    1.000002
   155  H    1.000026
   156  H    0.999985
   157  H    0.999988
   158  H    1.000022
 Sum of Mulliken charges = 624.00000

 Dipole moment (field-independent basis, Debye):
    X=             -4.0365    Y=             -3.8974    Z=              9.5947  Tot=             11.1149
 Quadrupole moment (field-independent basis, Debye-Ang):
   XX=           -213.1390   YY=              2.9275   ZZ=              6.1304
   XY=           -100.1161   XZ=            251.4649   YZ=             -9.4616

 Normal termination of Gaussian 16 at Thu Sep 23 00:17:25 2021.
