 Gaussian 16, Revision A.03,
 Gaussian 16:  ES64L-G16RevA.03 25-Dec-2016

 ----------------------------------------------------------
 #p cam-b3lyp/Def2SVP td=(nstates=5) density=(transition=1)
 ----------------------------------------------------------

 --------------------------------
 TDDFT excited states in gaussian
 --------------------------------
 Symbolic Z-matrix:
 Charge =  0 Multiplicity = 1

                         Standard orientation:
 ---------------------------------------------------------------------
 Center     Atomic      Atomic             Coordinates (Angstroms)
 Number     Number       Type             X           Y           Z
 ---------------------------------------------------------------------
      1         12           0      -16.352125    0.477244    0.367081
      2          6           0      -15.014176   -2.037200   -1.628133
      3          6           0      -17.307143   -1.900773    2.642129
      4          6           0      -17.922454    2.944555    2.116559
      5          6           0      -15.492092    2.727005   -2.246776
      6          7           0      -16.213070   -1.708373    0.477049
      7          6           0      -15.511332   -2.484186   -0.407519
      8          6           0      -15.533971   -3.908437    0.152826
      9          6           0      -16.505734   -3.877582    1.319016
     10          6           0      -16.658921   -2.373700    1.516111
     11          6           0      -17.818344   -4.607598    1.220963
     12          6           0      -14.100962   -4.537309    0.498152
     13          6           0      -14.120487   -5.895406    1.270708
     14          1           0      -14.107364   -7.213856    0.453652
     15          7           0      -17.324534    0.511619    2.200129
     16          6           0      -17.646484   -0.560284    2.966234
     17          6           0      -18.397716   -0.055729    4.086119
     18          6           0      -18.575743    1.349324    3.920771
     19          6           0      -17.962163    1.666886    2.710390
     20          6           0      -18.865704   -0.983440    5.164599
     21          6           0      -19.433374    2.282753    4.824010
     22          8           0      -19.817022    3.372804    4.439077
     23          6           0      -19.942677    1.893405    6.128959
     24          7           0      -16.629064    2.417497   -0.007162
     25          6           0      -17.271934    3.288253    0.872174
     26          6           0      -17.269560    4.742167    0.368842
     27          6           0      -16.267993    4.657868   -0.832809
     28          6           0      -16.083902    3.159538   -1.008829
     29          6           0      -18.583610    5.384764    0.197821
     30          6           0      -14.867460    5.484895   -0.764536
     31          6           0      -14.532712    6.540316   -1.822780
     32          7           0      -15.462206    0.390985   -1.638571
     33          6           0      -15.213516    1.387323   -2.540402
     34          6           0      -14.595137    0.875481   -3.716751
     35          6           0      -14.413872   -0.519444   -3.376474
     36          6           0      -15.048765   -0.761274   -2.126037
     37          6           0      -14.182251    1.705194   -4.872245
     38          6           0      -13.798760   -1.747841   -3.824014
     39          8           0      -13.101980   -2.047628   -4.773611
     40          6           0      -14.199995   -2.818836   -2.648522
     41          6           0      -14.804868   -4.050298   -3.217232
     42          8           0      -15.880573   -4.076156   -3.773936
     43          8           0      -14.033021   -5.135774   -3.033284
     44          6           0      -14.650630   -6.483646   -3.336530
     45          1           0      -17.566596   -2.647369    3.395975
     46          1           0      -18.438794    3.714597    2.693219
     47          1           0      -15.289253    3.569567   -2.911429
     48          1           0      -15.951596   -4.437406   -0.703731
     49          1           0      -16.039580   -4.341815    2.187731
     50          1           0      -18.482292   -3.751635    1.104096
     51          1           0      -18.015275   -5.236860    2.089040
     52          1           0      -17.914096   -5.168214    0.290853
     53          1           0      -13.666632   -3.756176    1.122441
     54          1           0      -13.525385   -4.669379   -0.417262
     55          1           0      -15.011917   -5.993827    1.888927
     56          1           0      -13.266200   -5.905125    1.947600
     57          1           0      -18.550838   -2.026554    5.121644
     58          1           0      -19.949473   -1.025964    5.061439
     59          1           0      -18.683826   -0.598770    6.168312
     60          1           0      -20.446289    0.935511    6.254889
     61          1           0      -20.571967    2.631541    6.626031
     62          1           0      -19.037734    1.912681    6.735893
     63          1           0      -16.754124    5.184599    1.221733
     64          1           0      -16.940489    4.967937   -1.632464
     65          1           0      -18.803952    6.239149    0.838372
     66          1           0      -19.344115    4.624788    0.379077
     67          1           0      -18.751254    5.796999   -0.797116
     68          1           0      -14.058653    4.755176   -0.797392
     69          1           0      -14.653184    6.034933    0.152571
     70          1           0      -13.804908    6.225631   -2.571149
     71          1           0      -14.311404    7.531281   -1.427422
     72          1           0      -15.421168    6.670106   -2.440914
     73          1           0      -14.995465    2.389320   -5.113484
     74          1           0      -13.872523    1.108212   -5.729602
     75          1           0      -13.439856    2.416591   -4.509063
     76          1           0      -13.253977   -3.118226   -2.198557
     77          1           0      -13.768784   -7.110183   -3.468407
     78          1           0      -15.249902   -6.396026   -4.242560
     79          1           0      -15.198037   -6.783150   -2.442684
     80         12           0       15.798840    0.618329   -0.051038
     81          6           0       18.114351   -1.590705    1.090922
     82          6           0       13.490370   -1.841676   -0.773822
     83          6           0       13.710286    3.008034   -1.335803
     84          6           0       18.283625    3.231256    0.247860
     85          7           0       15.903934   -1.472652   -0.049438
     86          6           0       16.878143   -2.197034    0.716115
     87          6           0       16.431243   -3.582152    0.964047
     88          6           0       15.165901   -3.680426   -0.001073
     89          6           0       14.790375   -2.252175   -0.327673
     90          6           0       15.458100   -4.516071   -1.345881
     91          6           0       16.253829   -3.952174    2.468768
     92          6           0       16.820247   -5.275659    2.871295
     93          1           0       16.625068   -6.457173    1.841337
     94          7           0       13.833147    0.594139   -0.868372
     95          6           0       13.111733   -0.544757   -1.070471
     96          6           0       11.854000   -0.163271   -1.615276
     97          6           0       11.820944    1.281842   -1.723802
     98          6           0       13.158491    1.745212   -1.223687
     99          6           0       10.809214   -1.202101   -2.078165
    100          6           0       10.768029    2.251641   -2.161072
    101          8           0       10.867067    3.473441   -2.320623
    102          6           0        9.340890    1.627499   -2.398031
    103          7           0       15.997795    2.848434   -0.598218
    104          6           0       14.978423    3.566241   -0.999646
    105          6           0       15.258641    5.066032   -0.930797
    106          6           0       16.727451    5.115943   -0.421382
    107          6           0       17.048195    3.631726   -0.256361
    108          6           0       15.065534    5.825861   -2.340139
    109          6           0       16.763525    5.906909    0.960028
    110          6           0       16.093814    5.326860    2.230282
    111          7           0       17.850063    0.781344    0.392932
    112          6           0       18.664606    1.890821    0.518608
    113          6           0       19.930981    1.411871    1.109108
    114          6           0       19.819827    0.081509    1.381732
    115          6           0       18.499516   -0.257163    0.910848
    116          6           0       21.165906    2.238134    1.218803
    117          6           0       20.469151   -1.113675    1.919710
    118          8           0       21.582709   -1.281211    2.388060
    119          6           0       19.359937   -2.239135    1.729075
    120          6           0       19.913351   -3.241269    0.795737
    121          8           0       20.351441   -3.057613   -0.353314
    122          8           0       19.842066   -4.427643    1.497369
    123          6           0       20.168162   -5.621477    0.706378
    124          1           0       12.713321   -2.583922   -0.967274
    125          1           0       12.952129    3.730456   -1.647363
    126          1           0       19.019914    4.018668    0.418339
    127          1           0       17.248250   -4.199248    0.588015
    128          1           0       14.354748   -4.145127    0.558624
    129          1           0       16.374660   -5.104528   -1.304202
    130          1           0       15.677424   -3.776823   -2.116149
    131          1           0       14.522489   -5.045675   -1.520613
    132          1           0       15.193223   -3.968728    2.719810
    133          1           0       16.793968   -3.152177    2.974885
    134          1           0       16.351508   -5.686055    3.764835
    135          1           0       17.864694   -5.384771    3.163727
    136          1           0       10.240881   -1.689534   -1.286098
    137          1           0       11.412890   -1.885765   -2.674826
    138          1           0        9.989666   -0.758453   -2.643107
    139          1           0        9.357121    1.050867   -3.322906
    140          1           0        8.603381    2.420169   -2.273448
    141          1           0        9.011464    0.972200   -1.591444
    142          1           0       14.603609    5.505022   -0.178630
    143          1           0       17.410739    5.617766   -1.106565
    144          1           0       14.137934    6.391877   -2.247552
    145          1           0       14.956296    5.099799   -3.146396
    146          1           0       15.801312    6.561498   -2.662541
    147          1           0       16.419265    6.939737    0.909152
    148          1           0       17.832047    5.889805    1.177122
    149          1           0       16.946228    5.159577    2.888841
    150          1           0       15.516147    4.425919    2.027460
    151          1           0       15.391963    6.008679    2.710463
    152          1           0       21.633316    1.845263    2.121207
    153          1           0       20.957278    3.305400    1.295391
    154          1           0       21.854220    1.892367    0.448698
    155          1           0       19.354926   -2.649962    2.738331
    156          1           0       20.164621   -6.404023    1.465687
    157          1           0       21.194378   -5.481357    0.366738
    158          1           0       19.563202   -5.778719   -0.186832
 ---------------------------------------------------------------------

 SCF Done:  E(RCAM-B3LYP) =  -4069.80928790     A.U. after   19 cycles

 Excitation energies and oscillator strengths:

 Excited State   1:      Singlet-A      1.6971 eV  730.55 nm  f=0.4518  <S**2>=0.000
     309 -> 315        0.10390
     310 -> 316        0.14834
     311 -> 313        0.56846
     312 -> 314       -0.38282
 This state for optimization and/or second-order correction.
 Total Energy, E(TD-HF/TD-DFT) =  -4069.74691944
 Copying the excited state density for this state as the 1-particle RhoCI density.

 Excited State   2:      Singlet-A      1.7002 eV  729.24 nm  f=0.3306  <S**2>=0.000
     309 -> 315       -0.15460
     310 -> 316        0.10056
     311 -> 313        0.38363
     312 -> 314        0.56695

 Excited State   3:      Singlet-A      2.2225 eV  557.86 nm  f=0.0934  <S**2>=0.000
     310 -> 313        0.63226
     311 -> 316       -0.30143

 Excited State   4:      Singlet-A      2.2667 eV  546.99 nm  f=0.0455  <S**2>=0.000
     309 -> 314        0.60925
     312 -> 315        0.34932

 Excited State   5:      Singlet-A      3.0160 eV  411.09 nm  f=0.0000  <S**2>=0.000
     312 -> 313        0.70710

 The electronic state is 1-A.
 Alpha  occ. eigenvalues --  -46.89263 -46.87913 -19.25665 -19.24459 -19.20269
 Alpha  occ. eigenvalues --  -19.19567 -19.19507 -19.19113 -19.18697 -19.18296
 Alpha  occ. eigenvalues --  -14.42748 -14.42304 -14.42205 -14.42078 -14.39514
 Alpha  occ. eigenvalues --  -14.39494 -14.39084 -14.38474 -10.39533 -10.38004
 Alpha  occ. eigenvalues --  -10.35713 -10.35618 -10.35421 -10.34685 -10.32148
 Alpha  occ. eigenvalues --  -10.31994 -10.31846 -10.31785 -10.31633 -10.31161
 Alpha  occ. eigenvalues --  -10.31150 -10.30883 -10.30479 -10.30347 -10.30188
 Alpha  occ. eigenvalues --  -10.29907 -10.29840 -10.29733 -10.29654 -10.29601
 Alpha  occ. eigenvalues --  -10.29246 -10.29101 -10.29028 -10.28829 -10.28346
 Alpha  occ. eigenvalues --  -10.28344 -10.28331 -10.28174 -10.28143 -10.28143
 Alpha  occ. eigenvalues --  -10.28108 -10.27900 -10.27850 -10.27769 -10.27596
 Alpha  occ. eigenvalues --  -10.27573 -10.27571 -10.27570 -10.27566 -10.27508
 Alpha  occ. eigenvalues --  -10.27420 -10.27389 -10.27362 -10.27300 -10.27247
 Alpha  occ. eigenvalues --  -10.27174 -10.27089 -10.27067 -10.26987 -10.26981
 Alpha  occ. eigenvalues --  -10.26898 -10.26893 -10.26598 -10.26507 -10.26285
 Alpha  occ. eigenvalues --  -10.26239 -10.26188 -10.25853 -10.25851 -10.25786
 Alpha  occ. eigenvalues --  -10.25619 -10.25584 -10.25521 -10.25508 -10.25276
 Alpha  occ. eigenvalues --  -10.24743  -3.17667  -3.16573  -1.92570  -1.92112
 Alpha  occ. eigenvalues --   -1.91968  -1.91488  -1.91030  -1.90875  -1.15976
 Alpha  occ. eigenvalues --   -1.15886  -1.11016  -1.10211  -1.09613  -1.09527
 Alpha  occ. eigenvalues --   -1.07485  -1.06771  -1.05277  -1.05140  -1.04145
 Alpha  occ. eigenvalues --   -1.03790  -1.03351  -1.02905  -1.02388  -1.01726
 Alpha  occ. eigenvalues --   -0.92470  -0.92390  -0.89253  -0.89113  -0.88808
 Alpha  occ. eigenvalues --   -0.88742  -0.88369  -0.88020  -0.87607  -0.87290
 Alpha  occ. eigenvalues --   -0.87009  -0.86922  -0.86738  -0.86259  -0.84677
 Alpha  occ. eigenvalues --   -0.84661  -0.83741  -0.83387  -0.82675  -0.82510
 Alpha  occ. eigenvalues --   -0.82432  -0.81551  -0.81448  -0.81220  -0.80779
 Alpha  occ. eigenvalues --   -0.79975  -0.78829  -0.78096  -0.77829  -0.77371
 Alpha  occ. eigenvalues --   -0.77321  -0.77215  -0.75931  -0.75818  -0.75184
 Alpha  occ. eigenvalues --   -0.74989  -0.72814  -0.72480  -0.72191  -0.71852
 Alpha  occ. eigenvalues --   -0.69883  -0.69426  -0.69276  -0.68979  -0.68366
 Alpha  occ. eigenvalues --   -0.68263  -0.67445  -0.66953  -0.65583  -0.65459
 Alpha  occ. eigenvalues --   -0.65247  -0.65014  -0.64719  -0.64718  -0.64406
 Alpha  occ. eigenvalues --   -0.64241  -0.62551  -0.61463  -0.60565  -0.60312
 Alpha  occ. eigenvalues --   -0.59791  -0.59432  -0.58990  -0.58930  -0.58865
 Alpha  occ. eigenvalues --   -0.58790  -0.57994  -0.57988  -0.57497  -0.57338
 Alpha  occ. eigenvalues --   -0.56398  -0.55937  -0.55788  -0.55552  -0.55449
 Alpha  occ. eigenvalues --   -0.55080  -0.54890  -0.54818  -0.54611  -0.54436
 Alpha  occ. eigenvalues --   -0.53841  -0.53554  -0.53204  -0.53193  -0.53166
 Alpha  occ. eigenvalues --   -0.53001  -0.52628  -0.52410  -0.52377  -0.52300
 Alpha  occ. eigenvalues --   -0.52137  -0.52113  -0.51952  -0.51516  -0.51351
 Alpha  occ. eigenvalues --   -0.51067  -0.51029  -0.50901  -0.50878  -0.50527
 Alpha  occ. eigenvalues --   -0.50337  -0.49964  -0.49869  -0.49665  -0.49475
 Alpha  occ. eigenvalues --   -0.49385  -0.49348  -0.49176  -0.49029  -0.48929
 Alpha  occ. eigenvalues --   -0.48662  -0.48598  -0.48532  -0.48487  -0.48264
 Alpha  occ. eigenvalues --   -0.48131  -0.47753  -0.47710  -0.47482  -0.47394
 Alpha  occ. eigenvalues --   -0.47251  -0.47139  -0.46872  -0.46857  -0.46756
 Alpha  occ. eigenvalues --   -0.46625  -0.46574  -0.46288  -0.46152  -0.46100
 Alpha  occ. eigenvalues --   -0.45889  -0.45630  -0.45201  -0.45187  -0.45150
 Alpha  occ. eigenvalues --   -0.44837  -0.44786  -0.44547  -0.44442  -0.44275
 Alpha  occ. eigenvalues --   -0.44045  -0.43923  -0.43718  -0.43473  -0.43405
 Alpha  occ. eigenvalues --   -0.43230  -0.42997  -0.42920  -0.42846  -0.42782
 Alpha  occ. eigenvalues --   -0.42741  -0.42316  -0.42151  -0.42118  -0.41991
 Alpha  occ. eigenvalues --   -0.41949  -0.41859  -0.41702  -0.41549  -0.41548
 Alpha  occ. eigenvalues --   -0.41321  -0.40997  -0.40756  -0.40552  -0.40417
 Alpha  occ. eigenvalues --   -0.40230  -0.39806  -0.39542  -0.39529  -0.39310
 Alpha  occ. eigenvalues --   -0.38823  -0.37884  -0.37815  -0.37506  -0.37295
 Alpha  occ. eigenvalues --   -0.37157  -0.36921  -0.36736  -0.36409  -0.36325
 Alpha  occ. eigenvalues --   -0.36274  -0.36092  -0.34680  -0.34221  -0.34103
 Alpha  occ. eigenvalues --   -0.34019  -0.33490  -0.33021  -0.31341  -0.31232
 Alpha  occ. eigenvalues --   -0.31123  -0.31003  -0.30991  -0.30390  -0.30245
 Alpha  occ. eigenvalues --   -0.29892  -0.29754  -0.29083  -0.24422  -0.24240
 Alpha  occ. eigenvalues --   -0.21162  -0.20967
 Alpha virt. eigenvalues --   -0.08831  -0.08496  -0.02367  -0.01909  -0.00252
 Alpha virt. eigenvalues --    0.00581   0.01937   0.02161   0.02697   0.03340
 Alpha virt. eigenvalues --    0.04657   0.04721   0.04926   0.05206   0.05429

 Mulliken charges:
               1
     1  Mg  11.997340
     2  C    5.980651
     3  C    6.017472
     4  C    6.019321
     5  C    5.986072
     6  N    6.995210
     7  C    6.031302
     8  C    5.993705
     9  C    6.006125
    10  C    5.975521
    11  C    6.000912
    12  C    5.995575
    13  C    6.001164
    14  H    0.999186
    15  N    7.007033
    16  C    5.965011
    17  C    5.976488
    18  C    5.992581
    19  C    5.966214
    20  C    6.005654
    21  C    5.989515
    22  O    7.981870
    23  C    6.006731
    24  N    7.003583
    25  C    5.962019
    26  C    6.008566
    27  C    5.987197
    28  C    6.031780
    29  C    6.002118
    30  C    5.997448
    31  C    5.999727
    32  N    6.994880
    33  C    6.032009
    34  C    6.026288
    35  C    6.003019
    36  C    6.029863
    37  C    5.997631
    38  C    6.013045
    39  O    8.026034
    40  C    6.002949
    41  C    6.002994
    42  O    8.003849
    43  O    8.000928
    44  C    5.998791
    45  H    0.992981
    46  H    0.992453
    47  H    1.009728
    48  H    0.999670
    49  H    1.000295
    50  H    1.004061
    51  H    0.999539
    52  H    0.989031
    53  H    1.005678
    54  H    0.995430
    55  H    1.006048
    56  H    1.002124
    57  H    0.981414
    58  H    0.980494
    59  H    0.981829
    60  H    0.995702
    61  H    0.987648
    62  H    0.993549
    63  H    1.000493
    64  H    1.002133
    65  H    0.998080
    66  H    1.002789
    67  H    0.988776
    68  H    0.997330
    69  H    1.010387
    70  H    0.996297
    71  H    1.004917
    72  H    1.001657
    73  H    1.016517
    74  H    1.012608
    75  H    1.018694
    76  H    1.006120
    77  H    1.003102
    78  H    1.001474
    79  H    1.005581
    80  Mg  11.998529
    81  C    5.984346
    82  C    6.015152
    83  C    6.005307
    84  C    5.987926
    85  N    6.998153
    86  C    6.022730
    87  C    5.992438
    88  C    6.006481
    89  C    5.978846
    90  C    6.000930
    91  C    5.998609
    92  C    5.997629
    93  H    1.005113
    94  N    7.007491
    95  C    5.974617
    96  C    5.988762
    97  C    5.989141
    98  C    5.982003
    99  C    6.000613
   100  C    5.993934
   101  O    7.982819
   102  C    6.002842
   103  N    6.998421
   104  C    5.983177
   105  C    6.006257
   106  C    5.993120
   107  C    6.019078
   108  C    6.000792
   109  C    5.998551
   110  C    5.997055
   111  N    6.996130
   112  C    6.029290
   113  C    6.014285
   114  C    6.002724
   115  C    6.021485
   116  C    5.998222
   117  C    6.009191
   118  O    8.015425
   119  C    6.001514
   120  C    6.001825
   121  O    8.002108
   122  O    8.001007
   123  C    5.998823
   124  H    0.995984
   125  H    0.996062
   126  H    1.005008
   127  H    1.001010
   128  H    0.999111
   129  H    0.991613
   130  H    0.999646
   131  H    1.000281
   132  H    1.007359
   133  H    0.996999
   134  H    1.002194
   135  H    0.998174
   136  H    0.988087
   137  H    0.991298
   138  H    0.991889
   139  H    0.994852
   140  H    0.991618
   141  H    0.995537
   142  H    0.999300
   143  H    1.001452
   144  H    1.000835
   145  H    1.001549
   146  H    0.994149
   147  H    1.005826
   148  H    0.997385
   149  H    0.996761
   150  H    1.005273
   151  H    1.004096
   152  H    1.009287
   153  H    1.011027
   154  H    1.012018
   155  H    1.004201
   156  H    1.002562
   157  H    1.000779
   158  H    1.003891
 Sum of Mulliken charges = 624.00000

 Dipole moment (field-independent basis, Debye):
    X=             10.3241    Y=             -0.7262    Z=             -5.7687  Tot=             11.8487
 Quadrupole moment (field-independent basis, Debye-Ang):
   XX=             28.2000   YY=              3.4260   ZZ=             -4.7621
   XY=             14.7014   XZ=            166.4309   YZ=             -1.9490

 Normal termination of Gaussian 16 at Wed Sep 22 23:20:41 2021.
