 Gaussian 16, Revision A.03,
 Gaussian 16:  ES64L-G16RevA.03 25-Dec-2016

 ----------------------------------------------------------
 #p cam-b3lyp/Def2SVP td=(nstates=5) density=(transition=1)
 ----------------------------------------------------------

 --------------------------------
 TDDFT excited states in gaussian
 --------------------------------
 Symbolic Z-matrix:
 Charge =  0 Multiplicity = 1

                         Standard orientation:
 ---------------------------------------------------------------------
 Center     Atomic      Atomic             Coordinates (Angstroms)
 Number     Number       Type             X           Y           Z
 ---------------------------------------------------------------------
      1         12           0       28.856642   -0.175836   -0.095030
      2          6           0       25.572126   -0.319371    0.832988
      3          6           0       28.032567   -2.356677   -2.783424
      4          6           0       31.989133    0.250689   -1.274646
      5          6           0       29.284045    2.605707    1.958621
      6          7           0       26.835418   -0.949627   -1.118128
      7          6           0       25.694726   -1.053105   -0.380000
      8          6           0       24.650969   -1.805932   -1.157670
      9          6           0       25.451721   -2.453588   -2.369645
     10          6           0       26.899809   -1.926054   -2.118769
     11          6           0       25.103494   -3.854201   -2.719708
     12          6           0       23.283055   -1.079806   -1.566245
     13          6           0       23.316620    0.395491   -1.835205
     14          1           0       22.642160    0.881664   -3.110364
     15          7           0       29.913628   -1.129618   -1.641812
     16          6           0       29.437883   -1.981235   -2.590059
     17          6           0       30.457202   -2.384863   -3.512933
     18          6           0       31.680849   -1.705052   -3.003175
     19          6           0       31.225851   -0.812835   -1.914522
     20          6           0       30.349301   -3.284490   -4.650037
     21          6           0       33.120908   -1.854120   -3.472602
     22          8           0       33.373046   -2.464950   -4.449850
     23          6           0       34.331477   -1.201790   -2.864484
     24          7           0       30.335018    1.283847    0.190678
     25          6           0       31.580482    1.109236   -0.276955
     26          6           0       32.507603    2.387357    0.074957
     27          6           0       31.730616    2.885312    1.389411
     28          6           0       30.378231    2.266800    1.126583
     29          6           0       33.989950    2.089767    0.317386
     30          6           0       31.807364    4.410054    1.586669
     31          6           0       32.174785    5.007078    2.950266
     32          7           0       27.649773    1.006545    1.072768
     33          6           0       27.935441    2.087491    1.897526
     34          6           0       26.826622    2.438297    2.696926
     35          6           0       25.856028    1.501707    2.381796
     36          6           0       26.397018    0.628966    1.372358
     37          6           0       26.741473    3.524107    3.724666
     38          6           0       24.579833    0.971555    2.627042
     39          8           0       23.740858    1.391297    3.421532
     40          6           0       24.258796   -0.098497    1.545016
     41          6           0       23.774855   -1.284495    2.366306
     42          8           0       22.699167   -1.886259    2.162470
     43          8           0       24.786400   -1.626413    3.232595
     44          6           0       24.761401   -2.886614    4.014738
     45          1           0       27.690063   -2.921665   -3.652796
     46          1           0       32.915241    0.519384   -1.786838
     47          1           0       29.448516    3.433360    2.651207
     48          1           0       24.242504   -2.587436   -0.515916
     49          1           0       25.174331   -1.875983   -3.250948
     50          1           0       25.972698   -4.501760   -2.834213
     51          1           0       24.416109   -3.909894   -3.563819
     52          1           0       24.567533   -4.309391   -1.886799
     53          1           0       22.493270   -1.154705   -0.818671
     54          1           0       22.945196   -1.462620   -2.529771
     55          1           0       24.284928    0.867624   -1.672529
     56          1           0       22.646089    0.861097   -1.112165
     57          1           0       29.578562   -4.024787   -4.437794
     58          1           0       31.275645   -3.800861   -4.898891
     59          1           0       30.046821   -2.674715   -5.502141
     60          1           0       33.942550   -1.210725   -1.845992
     61          1           0       34.485912   -0.181903   -3.215350
     62          1           0       35.281491   -1.728056   -2.958768
     63          1           0       32.324913    3.110136   -0.720805
     64          1           0       32.012311    2.463668    2.353960
     65          1           0       34.155498    2.167855    1.392255
     66          1           0       34.610290    2.677259   -0.358842
     67          1           0       34.270973    1.070527    0.053964
     68          1           0       30.831586    4.807409    1.305992
     69          1           0       32.459959    4.812618    0.811822
     70          1           0       32.949012    5.773266    2.993400
     71          1           0       32.365390    4.247813    3.709874
     72          1           0       31.209339    5.372586    3.298692
     73          1           0       26.108625    3.292382    4.581690
     74          1           0       26.359036    4.424273    3.242919
     75          1           0       27.702259    3.758151    4.185020
     76          1           0       23.474256    0.380869    0.960787
     77          1           0       25.743841   -3.352331    4.090348
     78          1           0       24.075973   -3.576445    3.522110
     79          1           0       24.415282   -2.893651    5.047544
     80         12           0      -28.804449    0.321928   -0.453007
     81          6           0      -26.161432   -0.310833    1.918467
     82          6           0      -29.933377   -2.930654    0.212995
     83          6           0      -31.286800    0.918340   -2.517497
     84          6           0      -27.335672    3.405487   -1.198316
     85          7           0      -28.049060   -1.429467    0.939438
     86          6           0      -27.122424   -1.373753    1.932158
     87          6           0      -27.223350   -2.563598    2.872652
     88          6           0      -28.225563   -3.590415    2.100419
     89          6           0      -28.754938   -2.619289    1.005881
     90          6           0      -27.564833   -4.901020    1.604490
     91          6           0      -27.720876   -2.163696    4.302731
     92          6           0      -26.753526   -2.572336    5.443749
     93          1           0      -27.383816   -3.670742    6.479478
     94          7           0      -30.345242   -0.808313   -1.042718
     95          6           0      -30.687586   -2.163818   -0.714750
     96          6           0      -31.928054   -2.634182   -1.375444
     97          6           0      -32.319995   -1.469033   -2.112552
     98          6           0      -31.318587   -0.409326   -1.906183
     99          6           0      -32.518652   -4.038815   -1.236977
    100          6           0      -33.464355   -1.307672   -3.039176
    101          8           0      -33.895122   -0.240768   -3.463339
    102          6           0      -34.279278   -2.564264   -3.403300
    103          7           0      -29.312890    1.977514   -1.520978
    104          6           0      -30.387337    1.981046   -2.342611
    105          6           0      -30.417330    3.167942   -3.264948
    106          6           0      -29.192040    4.014628   -2.840923
    107          6           0      -28.576148    3.126336   -1.736527
    108          6           0      -30.500294    2.824747   -4.737520
    109          6           0      -29.670945    5.461629   -2.234371
    110          6           0      -28.998564    6.770699   -2.921764
    111          7           0      -26.952020    1.259352    0.006251
    112          6           0      -26.557249    2.575525   -0.334469
    113          6           0      -25.311729    2.867064    0.384437
    114          6           0      -25.237381    1.825132    1.345964
    115          6           0      -26.161960    0.839339    0.997626
    116          6           0      -24.341080    4.033914    0.229088
    117          6           0      -24.318715    1.278789    2.384392
    118          8           0      -23.220768    1.638408    2.892952
    119          6           0      -24.992290   -0.068447    2.853583
    120          6           0      -23.967130   -1.161561    2.782940
    121          8           0      -23.212125   -1.321557    1.866011
    122          8           0      -23.954927   -1.853509    3.962136
    123          6           0      -22.754985   -2.716684    4.102222
    124          1           0      -30.162273   -3.988934    0.353332
    125          1           0      -32.084336    1.177190   -3.217482
    126          1           0      -26.879596    4.379373   -1.386776
    127          1           0      -26.231596   -3.015543    2.890986
    128          1           0      -29.096144   -3.855065    2.701145
    129          1           0      -27.562490   -4.946728    0.515056
    130          1           0      -28.086684   -5.768322    2.011003
    131          1           0      -26.550035   -5.085366    1.957135
    132          1           0      -28.681011   -2.623093    4.539095
    133          1           0      -27.846938   -1.084814    4.397248
    134          1           0      -26.561439   -1.765530    6.151525
    135          1           0      -25.757855   -2.876279    5.122235
    136          1           0      -32.178702   -4.638956   -0.392368
    137          1           0      -32.447976   -4.667258   -2.124708
    138          1           0      -33.585977   -3.876797   -1.083073
    139          1           0      -33.648158   -3.290619   -3.915279
    140          1           0      -35.165870   -2.327478   -3.992477
    141          1           0      -34.636205   -3.009253   -2.474504
    142          1           0      -31.357390    3.696094   -3.099802
    143          1           0      -28.481956    4.121169   -3.660474
    144          1           0      -31.475137    3.034389   -5.178640
    145          1           0      -30.370618    1.768783   -4.974360
    146          1           0      -29.712303    3.373978   -5.253218
    147          1           0      -29.493661    5.574167   -1.165286
    148          1           0      -30.743692    5.622533   -2.337954
    149          1           0      -28.648923    6.436996   -3.898945
    150          1           0      -28.178578    7.168329   -2.322338
    151          1           0      -29.749853    7.521515   -3.165201
    152          1           0      -23.859422    4.296890    1.170667
    153          1           0      -24.934635    4.919905    0.000681
    154          1           0      -23.737820    3.746482   -0.632172
    155          1           0      -25.205316    0.065723    3.913808
    156          1           0      -22.708755   -3.352866    3.218554
    157          1           0      -23.008251   -3.365129    4.940814
    158          1           0      -21.772248   -2.253146    4.188164
 ---------------------------------------------------------------------

 SCF Done:  E(RCAM-B3LYP) =  -4069.75082321     A.U. after   18 cycles

 Excitation energies and oscillator strengths:

 Excited State   1:      Singlet-A      1.6348 eV  758.42 nm  f=0.3870  <S**2>=0.000
     309 -> 315        0.16911
     311 -> 313        0.68877
     309 <- 315        0.10872
 This state for optimization and/or second-order correction.
 Total Energy, E(TD-HF/TD-DFT) =  -4069.69074649
 Copying the excited state density for this state as the 1-particle RhoCI density.

 Excited State   2:      Singlet-A      1.6722 eV  741.46 nm  f=0.3721  <S**2>=0.000
     310 -> 316       -0.18800
     312 -> 314        0.68426
     310 <- 316       -0.11182

 Excited State   3:      Singlet-A      2.1489 eV  576.98 nm  f=0.1480  <S**2>=0.000
     309 -> 313        0.65208
     311 -> 315       -0.25547

 Excited State   4:      Singlet-A      2.1741 eV  570.29 nm  f=0.1340  <S**2>=0.000
     310 -> 314        0.64732
     312 -> 316        0.27758

 Excited State   5:      Singlet-A      2.9963 eV  413.79 nm  f=0.0000  <S**2>=0.000
     312 -> 313        0.70711

 The electronic state is 1-A.
 Alpha  occ. eigenvalues --  -46.89955 -46.88518 -19.26228 -19.25632 -19.20330
 Alpha  occ. eigenvalues --  -19.19731 -19.18941 -19.18672 -19.18483 -19.17246
 Alpha  occ. eigenvalues --  -14.42595 -14.42588 -14.42041 -14.41923 -14.40704
 Alpha  occ. eigenvalues --  -14.40061 -14.39666 -14.39238 -10.40483 -10.38805
 Alpha  occ. eigenvalues --  -10.35129 -10.35112 -10.34282 -10.33584 -10.32827
 Alpha  occ. eigenvalues --  -10.32099 -10.31910 -10.31816 -10.31613 -10.31565
 Alpha  occ. eigenvalues --  -10.31476 -10.31277 -10.31017 -10.30932 -10.30855
 Alpha  occ. eigenvalues --  -10.30787 -10.30766 -10.30703 -10.30655 -10.30183
 Alpha  occ. eigenvalues --  -10.29967 -10.29396 -10.29087 -10.29027 -10.28982
 Alpha  occ. eigenvalues --  -10.28903 -10.28893 -10.28862 -10.28616 -10.28519
 Alpha  occ. eigenvalues --  -10.28468 -10.28440 -10.28439 -10.28302 -10.28227
 Alpha  occ. eigenvalues --  -10.28206 -10.28071 -10.27976 -10.27964 -10.27949
 Alpha  occ. eigenvalues --  -10.27817 -10.27810 -10.27525 -10.27517 -10.27315
 Alpha  occ. eigenvalues --  -10.27238 -10.27228 -10.27133 -10.26797 -10.26783
 Alpha  occ. eigenvalues --  -10.26745 -10.26736 -10.26699 -10.26582 -10.26352
 Alpha  occ. eigenvalues --  -10.26229 -10.26112 -10.26098 -10.26074 -10.26044
 Alpha  occ. eigenvalues --  -10.25903 -10.25521 -10.25479 -10.25176 -10.25172
 Alpha  occ. eigenvalues --  -10.25089  -3.18427  -3.17162  -1.93285  -1.92919
 Alpha  occ. eigenvalues --   -1.92702  -1.92059  -1.91616  -1.91483  -1.16948
 Alpha  occ. eigenvalues --   -1.15687  -1.11423  -1.09957  -1.09363  -1.08671
 Alpha  occ. eigenvalues --   -1.07259  -1.07051  -1.05177  -1.04373  -1.03987
 Alpha  occ. eigenvalues --   -1.03254  -1.02945  -1.02571  -1.02165  -1.02003
 Alpha  occ. eigenvalues --   -0.93701  -0.91563  -0.89852  -0.88746  -0.88629
 Alpha  occ. eigenvalues --   -0.88485  -0.88414  -0.88115  -0.87952  -0.87401
 Alpha  occ. eigenvalues --   -0.87262  -0.86982  -0.85897  -0.85623  -0.84562
 Alpha  occ. eigenvalues --   -0.84009  -0.84007  -0.83158  -0.83111  -0.82188
 Alpha  occ. eigenvalues --   -0.81804  -0.81382  -0.80995  -0.80662  -0.80601
 Alpha  occ. eigenvalues --   -0.79747  -0.79083  -0.78528  -0.77818  -0.77086
 Alpha  occ. eigenvalues --   -0.77005  -0.76772  -0.76708  -0.76022  -0.75489
 Alpha  occ. eigenvalues --   -0.75214  -0.73599  -0.72544  -0.71767  -0.71406
 Alpha  occ. eigenvalues --   -0.70044  -0.69402  -0.69163  -0.68735  -0.68417
 Alpha  occ. eigenvalues --   -0.67581  -0.67078  -0.66581  -0.66285  -0.65908
 Alpha  occ. eigenvalues --   -0.65621  -0.65505  -0.64727  -0.64414  -0.64373
 Alpha  occ. eigenvalues --   -0.63984  -0.63608  -0.62353  -0.60789  -0.60294
 Alpha  occ. eigenvalues --   -0.59408  -0.59250  -0.58902  -0.58724  -0.58335
 Alpha  occ. eigenvalues --   -0.58077  -0.57944  -0.57636  -0.57232  -0.57125
 Alpha  occ. eigenvalues --   -0.56544  -0.56126  -0.55811  -0.55341  -0.55263
 Alpha  occ. eigenvalues --   -0.55124  -0.55049  -0.54484  -0.54478  -0.53984
 Alpha  occ. eigenvalues --   -0.53766  -0.53381  -0.53287  -0.53196  -0.52655
 Alpha  occ. eigenvalues --   -0.52550  -0.52522  -0.52143  -0.52090  -0.51860
 Alpha  occ. eigenvalues --   -0.51817  -0.51641  -0.51439  -0.51364  -0.51363
 Alpha  occ. eigenvalues --   -0.51092  -0.50835  -0.50706  -0.50605  -0.50448
 Alpha  occ. eigenvalues --   -0.50051  -0.49995  -0.49956  -0.49789  -0.49727
 Alpha  occ. eigenvalues --   -0.49475  -0.49416  -0.49197  -0.49196  -0.49011
 Alpha  occ. eigenvalues --   -0.48772  -0.48242  -0.48232  -0.48101  -0.47994
 Alpha  occ. eigenvalues --   -0.47883  -0.47573  -0.47552  -0.47455  -0.47318
 Alpha  occ. eigenvalues --   -0.47236  -0.47096  -0.47034  -0.46913  -0.46829
 Alpha  occ. eigenvalues --   -0.46555  -0.46426  -0.46189  -0.46156  -0.45932
 Alpha  occ. eigenvalues --   -0.45628  -0.45561  -0.45542  -0.45330  -0.45032
 Alpha  occ. eigenvalues --   -0.44974  -0.44897  -0.44801  -0.44761  -0.44363
 Alpha  occ. eigenvalues --   -0.44166  -0.44086  -0.44012  -0.43870  -0.43774
 Alpha  occ. eigenvalues --   -0.43395  -0.43305  -0.43084  -0.42848  -0.42720
 Alpha  occ. eigenvalues --   -0.42650  -0.42595  -0.42386  -0.42204  -0.42087
 Alpha  occ. eigenvalues --   -0.42023  -0.41957  -0.41738  -0.41531  -0.41496
 Alpha  occ. eigenvalues --   -0.41299  -0.41298  -0.40780  -0.40683  -0.40576
 Alpha  occ. eigenvalues --   -0.40421  -0.40240  -0.40166  -0.39366  -0.39044
 Alpha  occ. eigenvalues --   -0.38687  -0.38586  -0.38220  -0.37997  -0.37476
 Alpha  occ. eigenvalues --   -0.37377  -0.37326  -0.36892  -0.36366  -0.36159
 Alpha  occ. eigenvalues --   -0.35614  -0.35489  -0.34794  -0.34626  -0.34407
 Alpha  occ. eigenvalues --   -0.33875  -0.33094  -0.33006  -0.31621  -0.31579
 Alpha  occ. eigenvalues --   -0.30980  -0.30905  -0.30583  -0.30516  -0.30259
 Alpha  occ. eigenvalues --   -0.29557  -0.29371  -0.28361  -0.24471  -0.23894
 Alpha  occ. eigenvalues --   -0.21729  -0.21293
 Alpha virt. eigenvalues --   -0.09675  -0.08968  -0.01968  -0.01822   0.00135
 Alpha virt. eigenvalues --    0.00144   0.00991   0.02069   0.02683   0.03569
 Alpha virt. eigenvalues --    0.04241   0.04562   0.04905   0.05228   0.05712

 Mulliken charges:
               1
     1  Mg  12.003244
     2  C    6.005415
     3  C    5.977487
     4  C    5.977385
     5  C    6.020759
     6  N    6.992804
     7  C    5.972116
     8  C    6.010506
     9  C    5.984616
    10  C    6.039494
    11  C    5.998855
    12  C    6.000813
    13  C    6.003174
    14  H    0.988620
    15  N    6.992997
    16  C    6.050471
    17  C    6.023856
    18  C    6.007231
    19  C    6.047464
    20  C    5.993712
    21  C    6.010908
    22  O    8.020454
    23  C    6.000188
    24  N    7.004013
    25  C    6.030891
    26  C    5.989660
    27  C    6.013031
    28  C    5.960479
    29  C    5.999537
    30  C    6.001944
    31  C    5.998636
    32  N    7.004376
    33  C    5.959594
    34  C    5.976598
    35  C    5.990602
    36  C    5.971007
    37  C    6.003704
    38  C    5.984498
    39  O    7.964061
    40  C    6.000952
    41  C    5.993948
    42  O    7.988638
    43  O    8.005399
    44  C    6.005702
    45  H    1.008808
    46  H    1.006700
    47  H    0.992399
    48  H    1.001507
    49  H    1.005786
    50  H    0.994049
    51  H    1.004241
    52  H    1.009610
    53  H    1.002971
    54  H    0.989898
    55  H    1.004517
    56  H    1.003914
    57  H    1.020256
    58  H    1.016904
    59  H    1.023609
    60  H    1.004800
    61  H    1.012522
    62  H    1.013562
    63  H    1.004527
    64  H    0.995843
    65  H    1.008545
    66  H    1.001187
    67  H    0.992962
    68  H    1.003118
    69  H    0.989329
    70  H    0.994996
    71  H    0.998888
    72  H    1.005123
    73  H    0.985536
    74  H    0.980805
    75  H    0.980733
    76  H    0.991348
    77  H    0.992516
    78  H    0.992985
    79  H    0.995670
    80  Mg  12.000029
    81  C    5.999843
    82  C    6.000015
    83  C    6.000214
    84  C    5.999965
    85  N    6.999886
    86  C    6.000241
    87  C    5.999944
    88  C    6.000082
    89  C    5.999819
    90  C    6.000022
    91  C    5.999981
    92  C    5.999980
    93  H    1.000048
    94  N    6.999993
    95  C    5.999750
    96  C    5.999814
    97  C    5.999923
    98  C    5.999774
    99  C    6.000068
   100  C    5.999900
   101  O    7.999764
   102  C    6.000042
   103  N    7.000070
   104  C    5.999741
   105  C    6.000065
   106  C    5.999941
   107  C    6.000156
   108  C    6.000016
   109  C    5.999960
   110  C    5.999991
   111  N    7.000021
   112  C    6.000289
   113  C    6.000219
   114  C    6.000026
   115  C    6.000196
   116  C    5.999981
   117  C    6.000101
   118  O    8.000271
   119  C    5.999996
   120  C    6.000048
   121  O    8.000020
   122  O    8.000008
   123  C    5.999971
   124  H    0.999891
   125  H    0.999962
   126  H    1.000101
   127  H    0.999994
   128  H    0.999982
   129  H    0.999992
   130  H    0.999960
   131  H    0.999917
   132  H    1.000056
   133  H    0.999965
   134  H    0.999998
   135  H    1.000000
   136  H    0.999874
   137  H    0.999834
   138  H    0.999863
   139  H    0.999936
   140  H    0.999869
   141  H    0.999950
   142  H    0.999993
   143  H    1.000029
   144  H    0.999995
   145  H    1.000029
   146  H    0.999924
   147  H    1.000000
   148  H    1.000076
   149  H    1.000021
   150  H    0.999999
   151  H    1.000034
   152  H    1.000144
   153  H    1.000124
   154  H    1.000137
   155  H    1.000057
   156  H    1.000027
   157  H    1.000041
   158  H    1.000043
 Sum of Mulliken charges = 624.00000

 Dipole moment (field-independent basis, Debye):
    X=              6.5616    Y=             -4.9515    Z=             -7.5685  Tot=             11.1738
 Quadrupole moment (field-independent basis, Debye-Ang):
   XX=            366.4984   YY=             -0.7076   ZZ=              5.3156
   XY=           -147.1332   XZ=           -219.8721   YZ=              3.9862

 Normal termination of Gaussian 16 at Wed Sep 22 02:25:14 2021.
