 Gaussian 16, Revision A.03,
 Gaussian 16:  ES64L-G16RevA.03 25-Dec-2016

 ----------------------------------------------------------
 #p cam-b3lyp/Def2SVP td=(nstates=5) density=(transition=1)
 ----------------------------------------------------------

 --------------------------------
 TDDFT excited states in gaussian
 --------------------------------
 Symbolic Z-matrix:
 Charge =  0 Multiplicity = 1

                         Standard orientation:
 ---------------------------------------------------------------------
 Center     Atomic      Atomic             Coordinates (Angstroms)
 Number     Number       Type             X           Y           Z
 ---------------------------------------------------------------------
      1         12           0      -20.811789    0.146189   -0.252909
      2          6           0      -17.573065   -0.654346    0.945648
      3          6           0      -21.889636   -2.798339    1.049252
      4          6           0      -23.985958    1.293183   -0.663323
      5          6           0      -19.627088    3.307409   -1.037706
      6          7           0      -19.758299   -1.407173    1.005579
      7          6           0      -18.437635   -1.618393    1.301069
      8          6           0      -18.217109   -2.928808    1.960713
      9          6           0      -19.578187   -3.717809    1.664697
     10          6           0      -20.467184   -2.601699    1.233661
     11          6           0      -19.388356   -4.802322    0.616469
     12          6           0      -17.868874   -2.646943    3.430716
     13          6           0      -16.526270   -3.272095    4.000376
     14          1           0      -16.527259   -4.169286    5.274641
     15          7           0      -22.703553   -0.605468    0.073884
     16          6           0      -22.921312   -1.906850    0.547174
     17          6           0      -24.320922   -2.184806    0.425588
     18          6           0      -24.991791   -1.004968   -0.042960
     19          6           0      -23.871612   -0.061625   -0.303427
     20          6           0      -24.874583   -3.563848    0.760398
     21          6           0      -26.469946   -0.777337   -0.267680
     22          8           0      -27.169199   -1.820235   -0.113124
     23          6           0      -27.217494    0.557055   -0.547648
     24          7           0      -21.721018    2.054049   -0.792720
     25          6           0      -23.050802    2.254976   -0.923921
     26          6           0      -23.413541    3.714134   -1.307319
     27          6           0      -21.989781    4.329221   -1.535894
     28          6           0      -21.034878    3.147343   -1.031694
     29          6           0      -24.298271    3.713080   -2.541092
     30          6           0      -21.708958    5.595685   -0.786243
     31          6           0      -21.569820    6.806808   -1.668142
     32          7           0      -19.027816    1.109919   -0.276468
     33          6           0      -18.623169    2.393114   -0.665618
     34          6           0      -17.255626    2.511469   -0.709092
     35          6           0      -16.789353    1.319763   -0.117443
     36          6           0      -17.903467    0.544341    0.195443
     37          6           0      -16.532442    3.649773   -1.397291
     38          6           0      -15.554688    0.557580    0.208471
     39          8           0      -14.414614    0.854808    0.028560
     40          6           0      -16.108014   -0.698401    0.982176
     41          6           0      -15.292790   -1.889804    0.528736
     42          8           0      -14.402630   -2.421967    1.191958
     43          8           0      -15.735711   -2.334705   -0.740570
     44          6           0      -15.063301   -3.561475   -1.167340
     45          1           0      -22.206753   -3.822140    1.259560
     46          1           0      -24.982155    1.671786   -0.903947
     47          1           0      -19.226709    4.322650   -1.050368
     48          1           0      -17.372068   -3.432944    1.491656
     49          1           0      -19.900774   -4.195139    2.589620
     50          1           0      -18.700533   -4.516534   -0.178164
     51          1           0      -20.341204   -4.957140    0.109197
     52          1           0      -19.108977   -5.770821    1.031205
     53          1           0      -18.702542   -3.011377    4.030780
     54          1           0      -17.877789   -1.588408    3.690580
     55          1           0      -15.977404   -2.357416    4.225947
     56          1           0      -15.928217   -3.698620    3.195938
     57          1           0      -24.535377   -3.894912    1.741958
     58          1           0      -24.460824   -4.243221    0.015273
     59          1           0      -25.956616   -3.662628    0.857540
     60          1           0      -26.896389    0.812683   -1.556920
     61          1           0      -26.879164    1.301517    0.173146
     62          1           0      -28.299304    0.459012   -0.453406
     63          1           0      -23.962361    4.253403   -0.535667
     64          1           0      -21.782435    4.397486   -2.603503
     65          1           0      -25.121724    3.023100   -2.356052
     66          1           0      -23.702730    3.362115   -3.384469
     67          1           0      -24.671748    4.658522   -2.932658
     68          1           0      -20.774842    5.573698   -0.224949
     69          1           0      -22.425826    5.879067   -0.015848
     70          1           0      -22.265098    7.563880   -1.307568
     71          1           0      -21.878214    6.618444   -2.696497
     72          1           0      -20.552312    7.192129   -1.741929
     73          1           0      -15.510974    3.302753   -1.556405
     74          1           0      -16.518910    4.556825   -0.793463
     75          1           0      -17.086681    3.809145   -2.321966
     76          1           0      -15.740939   -0.515941    1.992821
     77          1           0      -15.698649   -4.128213   -1.848092
     78          1           0      -14.944738   -4.258569   -0.339034
     79          1           0      -14.079256   -3.381222   -1.600957
     80         12           0       20.717345    0.554194   -0.248717
     81          6           0       19.018336   -2.467114   -0.481529
     82          6           0       17.506638    2.056053    0.248608
     83          6           0       22.204608    3.393268    0.481348
     84          6           0       23.731601   -1.242630   -0.040370
     85          7           0       18.550383   -0.163041   -0.013855
     86          6           0       18.139168   -1.455244   -0.252371
     87          6           0       16.620835   -1.563722   -0.087548
     88          6           0       16.190562   -0.071550   -0.137692
     89          6           0       17.477263    0.678598    0.085878
     90          6           0       15.471282    0.462664   -1.438087
     91          6           0       16.204186   -2.278039    1.208665
     92          6           0       14.757944   -2.565604    1.345927
     93          1           0       14.345842   -3.717661    2.339925
     94          7           0       19.971379    2.494090    0.311123
     95          6           0       18.635587    2.908032    0.431162
     96          6           0       18.631472    4.301728    0.778578
     97          6           0       20.007753    4.683979    0.987977
     98          6           0       20.811006    3.487542    0.558208
     99          6           0       17.326425    5.104548    1.035931
    100          6           0       20.415249    6.082243    1.463160
    101          8           0       19.609777    6.994260    1.549473
    102          6           0       21.830328    6.335207    1.819599
    103          7           0       22.720589    1.022302   -0.059651
    104          6           0       23.069357    2.286535    0.202169
    105          6           0       24.626243    2.365480    0.473513
    106          6           0       25.158133    0.884283    0.371777
    107          6           0       23.744308    0.124166    0.116313
    108          6           0       25.445851    3.396377   -0.346334
    109          6           0       25.805755    0.456207    1.706069
    110          6           0       26.925850   -0.584106    1.584298
    111          7           0       21.345030   -1.449682   -0.254480
    112          6           0       22.584355   -2.024864   -0.291442
    113          6           0       22.421790   -3.460994   -0.547524
    114          6           0       21.074909   -3.640089   -0.715500
    115          6           0       20.445689   -2.440666   -0.470322
    116          6           0       23.552453   -4.477587   -0.735919
    117          6           0       20.066014   -4.626666   -0.959279
    118          8           0       20.129884   -5.806392   -1.203308
    119          6           0       18.685258   -3.900530   -0.831672
    120          6           0       18.027202   -3.950822   -2.166167
    121          8           0       18.509177   -3.656475   -3.224708
    122          8           0       16.671043   -4.272082   -1.982994
    123          6           0       15.869639   -4.283066   -3.173612
    124          1           0       16.482790    2.431847    0.293804
    125          1           0       22.834844    4.261331    0.687844
    126          1           0       24.655447   -1.824944   -0.051502
    127          1           0       16.258620   -2.046641   -0.994110
    128          1           0       15.557003    0.269092    0.680504
    129          1           0       14.574684    0.952162   -1.058414
    130          1           0       15.453673   -0.186426   -2.313983
    131          1           0       16.081688    1.286762   -1.807073
    132          1           0       16.376274   -1.720814    2.129927
    133          1           0       16.766244   -3.205829    1.315984
    134          1           0       14.390972   -2.798388    0.346305
    135          1           0       14.243059   -1.648797    1.632554
    136          1           0       17.404105    5.137692    2.123123
    137          1           0       16.393223    4.569188    0.859759
    138          1           0       17.143311    6.101057    0.633590
    139          1           0       22.093471    5.516586    2.489450
    140          1           0       21.879514    7.260674    2.393581
    141          1           0       22.340615    6.312026    0.856388
    142          1           0       24.721703    2.711867    1.502980
    143          1           0       25.829654    0.688613   -0.463606
    144          1           0       25.709496    4.220304    0.317554
    145          1           0       24.869458    3.674313   -1.228106
    146          1           0       26.407322    2.964293   -0.623707
    147          1           0       24.980279    0.069565    2.303188
    148          1           0       26.167213    1.287292    2.311997
    149          1           0       27.772729   -0.083896    2.055323
    150          1           0       27.119170   -0.926393    0.567575
    151          1           0       26.699034   -1.456834    2.196792
    152          1           0       23.435175   -5.432657   -0.224945
    153          1           0       24.416499   -3.916315   -0.379466
    154          1           0       23.736614   -4.523226   -1.809395
    155          1           0       18.116548   -4.456503   -0.086213
    156          1           0       15.629367   -5.327738   -3.371390
    157          1           0       16.261147   -3.835250   -4.087319
    158          1           0       14.962588   -3.719428   -2.956958
 ---------------------------------------------------------------------

 SCF Done:  E(RCAM-B3LYP) =  -4069.81322454     A.U. after   19 cycles

 Excitation energies and oscillator strengths:

 Excited State   1:      Singlet-A      1.6837 eV  736.38 nm  f=0.3616  <S**2>=0.000
     310 -> 316       -0.17392
     311 -> 313        0.68684
     310 <- 316       -0.10795
 This state for optimization and/or second-order correction.
 Total Energy, E(TD-HF/TD-DFT) =  -4069.75134978
 Copying the excited state density for this state as the 1-particle RhoCI density.

 Excited State   2:      Singlet-A      1.7656 eV  702.23 nm  f=0.3961  <S**2>=0.000
     309 -> 315       -0.17237
     312 -> 314        0.68747
     309 <- 315       -0.10343

 Excited State   3:      Singlet-A      2.2196 eV  558.59 nm  f=0.1603  <S**2>=0.000
     310 -> 313        0.64873
     311 -> 316        0.26683

 Excited State   4:      Singlet-A      2.2943 eV  540.41 nm  f=0.1177  <S**2>=0.000
     309 -> 314        0.63734
     312 -> 315        0.29068

 Excited State   5:      Singlet-A      3.1164 eV  397.85 nm  f=0.0000  <S**2>=0.000
     312 -> 313        0.70710

 The electronic state is 1-A.
 Alpha  occ. eigenvalues --  -46.89637 -46.89035 -19.25657 -19.24918 -19.21038
 Alpha  occ. eigenvalues --  -19.20471 -19.19883 -19.18668 -19.18504 -19.18329
 Alpha  occ. eigenvalues --  -14.42634 -14.42397 -14.42321 -14.42257 -14.40203
 Alpha  occ. eigenvalues --  -14.40116 -14.39072 -14.39026 -10.40383 -10.39480
 Alpha  occ. eigenvalues --  -10.35689 -10.35508 -10.34836 -10.34130 -10.32338
 Alpha  occ. eigenvalues --  -10.32013 -10.31692 -10.31570 -10.31196 -10.31153
 Alpha  occ. eigenvalues --  -10.31150 -10.31094 -10.31054 -10.30883 -10.30694
 Alpha  occ. eigenvalues --  -10.30663 -10.30578 -10.30537 -10.29518 -10.29210
 Alpha  occ. eigenvalues --  -10.29087 -10.28890 -10.28597 -10.28568 -10.28565
 Alpha  occ. eigenvalues --  -10.28554 -10.28431 -10.28356 -10.28347 -10.28324
 Alpha  occ. eigenvalues --  -10.28231 -10.28220 -10.28210 -10.28166 -10.28140
 Alpha  occ. eigenvalues --  -10.28013 -10.27879 -10.27763 -10.27754 -10.27722
 Alpha  occ. eigenvalues --  -10.27718 -10.27506 -10.27501 -10.27397 -10.27389
 Alpha  occ. eigenvalues --  -10.27327 -10.27061 -10.26998 -10.26898 -10.26785
 Alpha  occ. eigenvalues --  -10.26769 -10.26613 -10.26517 -10.26517 -10.26472
 Alpha  occ. eigenvalues --  -10.26375 -10.26322 -10.26222 -10.26054 -10.26038
 Alpha  occ. eigenvalues --  -10.25979 -10.25608 -10.25394 -10.25229 -10.25112
 Alpha  occ. eigenvalues --  -10.23960  -3.18058  -3.17599  -1.92965  -1.92517
 Alpha  occ. eigenvalues --   -1.92479  -1.92346  -1.92060  -1.91904  -1.16593
 Alpha  occ. eigenvalues --   -1.15619  -1.12071  -1.10314  -1.10094  -1.08803
 Alpha  occ. eigenvalues --   -1.07981  -1.07655  -1.05281  -1.04570  -1.04301
 Alpha  occ. eigenvalues --   -1.03766  -1.03698  -1.03385  -1.02800  -1.02780
 Alpha  occ. eigenvalues --   -0.93347  -0.93242  -0.89962  -0.89387  -0.89350
 Alpha  occ. eigenvalues --   -0.89211  -0.89090  -0.88817  -0.88070  -0.87893
 Alpha  occ. eigenvalues --   -0.87042  -0.86436  -0.85982  -0.85925  -0.85189
 Alpha  occ. eigenvalues --   -0.84867  -0.84308  -0.84027  -0.83137  -0.82663
 Alpha  occ. eigenvalues --   -0.82565  -0.81979  -0.81277  -0.80828  -0.80733
 Alpha  occ. eigenvalues --   -0.80526  -0.77844  -0.77737  -0.77492  -0.77329
 Alpha  occ. eigenvalues --   -0.77087  -0.76929  -0.76529  -0.76182  -0.75539
 Alpha  occ. eigenvalues --   -0.75504  -0.73557  -0.73224  -0.72257  -0.72022
 Alpha  occ. eigenvalues --   -0.69443  -0.69311  -0.69052  -0.69020  -0.67764
 Alpha  occ. eigenvalues --   -0.67746  -0.67268  -0.66740  -0.66383  -0.66077
 Alpha  occ. eigenvalues --   -0.65727  -0.65555  -0.65384  -0.64965  -0.64956
 Alpha  occ. eigenvalues --   -0.64592  -0.63155  -0.62673  -0.60563  -0.60217
 Alpha  occ. eigenvalues --   -0.60127  -0.59875  -0.59628  -0.59289  -0.58993
 Alpha  occ. eigenvalues --   -0.58831  -0.58436  -0.58090  -0.57551  -0.56922
 Alpha  occ. eigenvalues --   -0.56482  -0.56261  -0.55878  -0.55862  -0.55662
 Alpha  occ. eigenvalues --   -0.55453  -0.54982  -0.54907  -0.54382  -0.54363
 Alpha  occ. eigenvalues --   -0.54004  -0.53933  -0.53622  -0.53549  -0.53296
 Alpha  occ. eigenvalues --   -0.53240  -0.53126  -0.52733  -0.52622  -0.52318
 Alpha  occ. eigenvalues --   -0.52078  -0.51883  -0.51747  -0.51704  -0.51634
 Alpha  occ. eigenvalues --   -0.51154  -0.50910  -0.50820  -0.50714  -0.50577
 Alpha  occ. eigenvalues --   -0.50345  -0.50323  -0.50262  -0.50076  -0.49901
 Alpha  occ. eigenvalues --   -0.49854  -0.49690  -0.49295  -0.49026  -0.48944
 Alpha  occ. eigenvalues --   -0.48837  -0.48682  -0.48374  -0.48272  -0.48080
 Alpha  occ. eigenvalues --   -0.48028  -0.47762  -0.47518  -0.47356  -0.47246
 Alpha  occ. eigenvalues --   -0.47134  -0.47075  -0.46919  -0.46638  -0.46493
 Alpha  occ. eigenvalues --   -0.46444  -0.46378  -0.46122  -0.46052  -0.45941
 Alpha  occ. eigenvalues --   -0.45785  -0.45779  -0.45527  -0.45340  -0.45304
 Alpha  occ. eigenvalues --   -0.45184  -0.45110  -0.44918  -0.44649  -0.44143
 Alpha  occ. eigenvalues --   -0.44086  -0.44000  -0.43890  -0.43698  -0.43672
 Alpha  occ. eigenvalues --   -0.43300  -0.43294  -0.43215  -0.42934  -0.42691
 Alpha  occ. eigenvalues --   -0.42684  -0.42532  -0.42468  -0.42442  -0.42358
 Alpha  occ. eigenvalues --   -0.42272  -0.42105  -0.42011  -0.41839  -0.41766
 Alpha  occ. eigenvalues --   -0.41611  -0.41519  -0.41424  -0.41142  -0.40589
 Alpha  occ. eigenvalues --   -0.40238  -0.40162  -0.39889  -0.39695  -0.39068
 Alpha  occ. eigenvalues --   -0.38805  -0.38797  -0.38254  -0.38023  -0.37841
 Alpha  occ. eigenvalues --   -0.37651  -0.37360  -0.37285  -0.36878  -0.36494
 Alpha  occ. eigenvalues --   -0.36453  -0.36067  -0.35445  -0.35224  -0.34729
 Alpha  occ. eigenvalues --   -0.34224  -0.33701  -0.33219  -0.31777  -0.31741
 Alpha  occ. eigenvalues --   -0.31155  -0.31013  -0.30633  -0.30610  -0.30101
 Alpha  occ. eigenvalues --   -0.30047  -0.29925  -0.29818  -0.24645  -0.24441
 Alpha  occ. eigenvalues --   -0.21672  -0.21640
 Alpha virt. eigenvalues --   -0.09356  -0.09009  -0.01917  -0.01862   0.00201
 Alpha virt. eigenvalues --    0.00942   0.01773   0.02054   0.02376   0.02752
 Alpha virt. eigenvalues --    0.04118   0.04445   0.04992   0.05424   0.05680

 Mulliken charges:
               1
     1  Mg  11.998447
     2  C    6.026783
     3  C    5.998472
     4  C    5.960796
     5  C    5.987000
     6  N    7.027650
     7  C    5.969939
     8  C    6.010153
     9  C    5.983196
    10  C    6.026041
    11  C    5.994865
    12  C    6.005464
    13  C    5.999428
    14  H    0.994398
    15  N    6.989768
    16  C    6.043110
    17  C    6.019690
    18  C    6.008914
    19  C    6.048766
    20  C    5.996071
    21  C    6.010908
    22  O    8.019656
    23  C    6.001861
    24  N    6.981515
    25  C    6.041670
    26  C    5.988201
    27  C    6.006748
    28  C    5.981065
    29  C    5.996071
    30  C    6.005387
    31  C    6.002195
    32  N    7.001183
    33  C    5.970711
    34  C    5.971269
    35  C    5.994986
    36  C    5.961726
    37  C    6.000590
    38  C    5.981909
    39  O    7.973489
    40  C    5.996519
    41  C    5.996575
    42  O    7.993668
    43  O    8.002034
    44  C    6.003357
    45  H    1.015411
    46  H    1.000815
    47  H    0.984197
    48  H    1.001608
    49  H    1.005568
    50  H    1.015511
    51  H    0.995095
    52  H    1.010920
    53  H    0.988804
    54  H    1.003743
    55  H    1.004782
    56  H    1.001581
    57  H    1.018019
    58  H    1.018606
    59  H    1.015652
    60  H    1.009968
    61  H    1.010078
    62  H    1.010771
    63  H    1.001043
    64  H    0.997995
    65  H    0.991880
    66  H    1.005235
    67  H    1.006850
    68  H    1.005417
    69  H    0.988892
    70  H    0.992738
    71  H    0.994593
    72  H    1.002250
    73  H    0.984691
    74  H    0.978997
    75  H    0.983479
    76  H    0.995381
    77  H    0.992979
    78  H    0.994373
    79  H    0.999837
    80  Mg  11.999976
    81  C    6.000163
    82  C    5.999996
    83  C    5.999750
    84  C    6.000022
    85  N    7.000042
    86  C    5.999851
    87  C    6.000040
    88  C    5.999950
    89  C    6.000139
    90  C    5.999971
    91  C    6.000007
    92  C    5.999977
    93  H    1.000011
    94  N    6.999950
    95  C    6.000287
    96  C    6.000118
    97  C    6.000069
    98  C    6.000289
    99  C    5.999932
   100  C    6.000072
   101  O    8.000169
   102  C    5.999990
   103  N    6.999986
   104  C    6.000234
   105  C    5.999951
   106  C    6.000041
   107  C    5.999859
   108  C    6.000007
   109  C    6.000037
   110  C    6.000050
   111  N    6.999988
   112  C    5.999755
   113  C    5.999771
   114  C    6.000001
   115  C    5.999754
   116  C    6.000045
   117  C    5.999868
   118  O    7.999787
   119  C    6.000007
   120  C    5.999970
   121  O    7.999956
   122  O    7.999994
   123  C    5.999992
   124  H    1.000206
   125  H    0.999995
   126  H    0.999862
   127  H    1.000032
   128  H    1.000066
   129  H    1.000161
   130  H    1.000123
   131  H    0.999968
   132  H    0.999940
   133  H    1.000003
   134  H    1.000042
   135  H    1.000044
   136  H    1.000116
   137  H    1.000216
   138  H    1.000179
   139  H    1.000033
   140  H    1.000062
   141  H    1.000035
   142  H    0.999973
   143  H    0.999938
   144  H    0.999965
   145  H    1.000001
   146  H    1.000001
   147  H    1.000008
   148  H    0.999892
   149  H    0.999904
   150  H    0.999988
   151  H    0.999981
   152  H    0.999824
   153  H    0.999845
   154  H    0.999820
   155  H    0.999953
   156  H    0.999971
   157  H    0.999978
   158  H    1.000053
 Sum of Mulliken charges = 624.00000

 Dipole moment (field-independent basis, Debye):
    X=             -8.8229    Y=             -5.8087    Z=              1.3004  Tot=             10.6431
 Quadrupole moment (field-independent basis, Debye-Ang):
   XX=            363.2507   YY=             -3.1479   ZZ=             -0.8687
   XY=            123.0765   XZ=            -25.1737   YZ=              1.3384

 Normal termination of Gaussian 16 at Wed Sep 22 19:50:59 2021.
