 Gaussian 16, Revision A.03,
 Gaussian 16:  ES64L-G16RevA.03 25-Dec-2016

 -----------------------------------
 #p cam-b3lyp/Def2SVP td=(nstates=5)
 -----------------------------------

 --------------------------------
 TDDFT excited states in gaussian
 --------------------------------
 Symbolic Z-matrix:
 Charge =  0 Multiplicity = 1

                         Standard orientation:
 ---------------------------------------------------------------------
 Center     Atomic      Atomic             Coordinates (Angstroms)
 Number     Number       Type             X           Y           Z
 ---------------------------------------------------------------------
      1         12           0      -17.248309   -0.760069    0.278779
      2          6           0      -17.227630    2.593043   -0.737913
      3          6           0      -15.471999    0.218736    3.180960
      4          6           0      -16.946104   -4.035070    1.122888
      5          6           0      -18.302816   -1.642737   -2.888228
      6          7           0      -16.623645    1.182462    1.143815
      7          6           0      -16.906843    2.433077    0.587256
      8          6           0      -16.736724    3.538033    1.691248
      9          6           0      -16.104635    2.757073    2.849219
     10          6           0      -16.010149    1.273567    2.348486
     11          6           0      -14.707703    3.339003    3.195877
     12          6           0      -18.097688    4.167009    1.963583
     13          6           0      -18.135035    5.605547    2.452872
     14          1           0      -16.817610    6.244266    2.947667
     15          7           0      -16.361522   -1.811226    1.910380
     16          6           0      -15.655647   -1.227881    2.979734
     17          6           0      -15.154008   -2.251625    3.879571
     18          6           0      -15.609834   -3.532404    3.374142
     19          6           0      -16.321662   -3.159217    2.077204
     20          6           0      -14.457692   -1.963038    5.215648
     21          6           0      -15.453285   -4.933562    3.933148
     22          8           0      -15.940135   -5.890688    3.346132
     23          6           0      -14.894129   -5.095813    5.294317
     24          7           0      -17.656808   -2.579641   -0.754869
     25          6           0      -17.533198   -3.793046   -0.148421
     26          6           0      -18.126385   -4.897416   -1.061944
     27          6           0      -18.632413   -4.129634   -2.344285
     28          6           0      -18.291594   -2.664196   -1.969070
     29          6           0      -17.066909   -5.974074   -1.357640
     30          6           0      -20.152581   -4.260447   -2.627287
     31          6           0      -20.368767   -5.277441   -3.743665
     32          7           0      -17.601439    0.186590   -1.553373
     33          6           0      -17.953033   -0.265778   -2.781269
     34          6           0      -17.839107    0.874981   -3.722255
     35          6           0      -17.670359    2.006750   -2.979574
     36          6           0      -17.485136    1.518573   -1.660872
     37          6           0      -18.106034    0.707353   -5.208655
     38          6           0      -17.590153    3.473551   -2.981968
     39          8           0      -17.644769    4.250124   -3.927903
     40          6           0      -17.393188    3.866946   -1.530687
     41          6           0      -16.240507    4.781502   -1.524442
     42          8           0      -15.027782    4.541525   -1.598235
     43          8           0      -16.735465    6.069160   -1.492730
     44          6           0      -15.765150    7.140740   -1.550478
     45          1           0      -14.998486    0.568669    4.100382
     46          1           0      -16.901878   -5.051702    1.519153
     47          1           0      -18.549820   -2.011812   -3.885915
     48          1           0      -16.032805    4.205074    1.192130
     49          1           0      -16.707345    2.989490    3.727131
     50          1           0      -13.866226    2.690209    2.952213
     51          1           0      -14.633609    3.314064    4.282700
     52          1           0      -14.526320    4.295294    2.705639
     53          1           0      -18.580543    3.469043    2.648214
     54          1           0      -18.709307    4.081705    1.066166
     55          1           0      -18.896774    5.688820    3.226884
     56          1           0      -18.513498    6.117476    1.567417
     57          1           0      -14.221309   -0.910521    5.373102
     58          1           0      -13.521204   -2.519435    5.273084
     59          1           0      -15.063333   -2.380877    6.018964
     60          1           0      -15.583606   -4.644346    6.008124
     61          1           0      -13.846448   -4.796860    5.326500
     62          1           0      -14.878738   -6.140941    5.603619
     63          1           0      -18.921374   -5.391536   -0.503898
     64          1           0      -17.975284   -4.461230   -3.149293
     65          1           0      -16.840433   -6.160928   -2.406952
     66          1           0      -17.596211   -6.844253   -0.969991
     67          1           0      -16.080878   -5.767012   -0.942693
     68          1           0      -20.522527   -3.361630   -3.120933
     69          1           0      -20.740107   -4.541346   -1.753004
     70          1           0      -21.166632   -5.912805   -3.359490
     71          1           0      -19.548952   -5.983974   -3.871061
     72          1           0      -20.643554   -4.859060   -4.712338
     73          1           0      -18.153773   -0.323491   -5.560586
     74          1           0      -17.376302    1.228616   -5.827023
     75          1           0      -19.127142    1.034100   -5.408450
     76          1           0      -18.306906    4.355931   -1.194444
     77          1           0      -15.109858    6.945281   -2.399680
     78          1           0      -15.153334    7.223467   -0.651913
     79          1           0      -16.318376    7.988224   -1.953789
     80         12           0       17.371002   -0.542027   -0.134787
     81          6           0       15.066637    1.996516    0.403802
     82          6           0       19.899776    1.670683    0.153899
     83          6           0       19.484657   -3.039599   -0.841520
     84          6           0       14.673594   -2.730627   -0.577498
     85          7           0       17.394077    1.606928    0.273800
     86          6           0       16.394874    2.411350    0.547204
     87          6           0       17.009952    3.850901    0.867894
     88          6           0       18.263975    3.738823    0.026870
     89          6           0       18.596244    2.220342    0.178981
     90          6           0       17.992191    4.237367   -1.408852
     91          6           0       17.078750    4.094444    2.436719
     92          6           0       17.190460    5.565342    2.849454
     93          1           0       17.462584    6.607520    1.778474
     94          7           0       19.387665   -0.705025   -0.141833
     95          6           0       20.276007    0.343528    0.085149
     96          6           0       21.643092   -0.245006    0.211100
     97          6           0       21.548006   -1.655743   -0.151254
     98          6           0       20.100272   -1.788831   -0.463956
     99          6           0       22.855986    0.575041    0.582096
    100          6           0       22.646406   -2.816437   -0.175290
    101          8           0       22.391216   -3.996775   -0.437138
    102          6           0       24.064814   -2.409866    0.165925
    103          7           0       17.126634   -2.507997   -0.732365
    104          6           0       18.134845   -3.339825   -0.979986
    105          6           0       17.657473   -4.730292   -1.501549
    106          6           0       16.162687   -4.645240   -1.161078
    107          6           0       15.948887   -3.226065   -0.737381
    108          6           0       17.962235   -5.000812   -3.001425
    109          6           0       15.534820   -5.764840   -0.217092
    110          6           0       15.258972   -5.392780    1.202668
    111          7           0       15.292400   -0.408094   -0.309666
    112          6           0       14.335945   -1.360388   -0.420310
    113          6           0       13.018144   -0.832863   -0.412878
    114          6           0       13.247326    0.538177   -0.075495
    115          6           0       14.615490    0.680239   -0.032279
    116          6           0       11.652229   -1.419101   -0.659489
    117          6           0       12.666393    1.813747    0.220889
    118          8           0       11.514548    2.187085    0.277092
    119          6           0       13.786894    2.791086    0.699587
    120          6           0       13.684003    4.054509   -0.036822
    121          8           0       13.807811    4.117169   -1.250544
    122          8           0       13.251788    5.147691    0.756855
    123          6           0       13.018509    6.412236    0.041787
    124          1           0       20.684740    2.427586    0.187865
    125          1           0       20.198351   -3.820558   -1.109231
    126          1           0       13.859432   -3.431789   -0.770571
    127          1           0       16.330855    4.627348    0.518259
    128          1           0       19.130183    4.254911    0.440165
    129          1           0       18.604177    5.138719   -1.456534
    130          1           0       16.942912    4.477857   -1.584955
    131          1           0       18.441436    3.497389   -2.070838
    132          1           0       17.941681    3.578147    2.858246
    133          1           0       16.119010    3.742345    2.815627
    134          1           0       17.974977    5.616429    3.603827
    135          1           0       16.260729    5.819426    3.357925
    136          1           0       22.597653    1.378715    1.272587
    137          1           0       23.426522    1.016045   -0.234637
    138          1           0       23.539893   -0.060634    1.144293
    139          1           0       24.252729   -1.567467   -0.499352
    140          1           0       24.820479   -3.160240   -0.064663
    141          1           0       24.138312   -2.183607    1.229775
    142          1           0       18.132070   -5.544300   -0.953815
    143          1           0       15.649699   -4.637290   -2.122090
    144          1           0       17.055197   -5.460607   -3.394570
    145          1           0       18.829717   -5.619589   -3.225681
    146          1           0       18.196228   -4.044675   -3.469638
    147          1           0       16.145312   -6.664178   -0.299088
    148          1           0       14.536721   -6.010528   -0.579054
    149          1           0       14.176291   -5.380373    1.330368
    150          1           0       15.482757   -4.362678    1.482727
    151          1           0       15.648113   -6.095910    1.939145
    152          1           0       11.698348   -2.459908   -0.981885
    153          1           0       11.101797   -0.761483   -1.332918
    154          1           0       11.012998   -1.547437    0.214283
    155          1           0       13.708283    3.006405    1.764885
    156          1           0       12.857757    7.280277    0.680658
    157          1           0       12.125862    6.199292   -0.547007
    158          1           0       13.860457    6.514987   -0.641794
 ---------------------------------------------------------------------

 SCF Done:  E(RCAM-B3LYP) =  -4069.81520641     A.U. after   19 cycles

 Excitation energies and oscillator strengths:

 Excited State   1:      Singlet-A      1.6782 eV  738.78 nm  f=0.3971  <S**2>=0.000
     310 -> 315       -0.17296
     312 -> 314        0.68709
     310 <- 315       -0.10453
 This state for optimization and/or second-order correction.
 Total Energy, E(TD-HF/TD-DFT) =  -4069.75353301
 Copying the excited state density for this state as the 1-particle RhoCI density.

 Excited State   2:      Singlet-A      1.7355 eV  714.41 nm  f=0.3919  <S**2>=0.000
     309 -> 316       -0.17783
     311 -> 313        0.68645
     309 <- 316       -0.10692

 Excited State   3:      Singlet-A      2.1968 eV  564.39 nm  f=0.1165  <S**2>=0.000
     310 -> 314        0.64510
     312 -> 315        0.27387

 Excited State   4:      Singlet-A      2.2152 eV  559.70 nm  f=0.1533  <S**2>=0.000
     309 -> 313        0.65487
     311 -> 316        0.25751

 Excited State   5:      Singlet-A      3.0105 eV  411.84 nm  f=0.0000  <S**2>=0.000
     312 -> 313        0.70709

 The electronic state is 1-A.
 Alpha  occ. eigenvalues --  -46.89058 -46.87753 -19.24392 -19.23899 -19.20469
 Alpha  occ. eigenvalues --  -19.19729 -19.19473 -19.19236 -19.19148 -19.17889
 Alpha  occ. eigenvalues --  -14.42130 -14.42001 -14.41681 -14.41448 -14.40099
 Alpha  occ. eigenvalues --  -14.40060 -14.39143 -14.38621 -10.39297 -10.38860
 Alpha  occ. eigenvalues --  -10.37226 -10.35422 -10.35343 -10.34093 -10.31933
 Alpha  occ. eigenvalues --  -10.31318 -10.31147 -10.31126 -10.31096 -10.31049
 Alpha  occ. eigenvalues --  -10.30986 -10.30932 -10.30904 -10.30589 -10.30580
 Alpha  occ. eigenvalues --  -10.30445 -10.30297 -10.30026 -10.29840 -10.29479
 Alpha  occ. eigenvalues --  -10.29286 -10.29004 -10.28999 -10.28809 -10.28662
 Alpha  occ. eigenvalues --  -10.28533 -10.28343 -10.28110 -10.28108 -10.28085
 Alpha  occ. eigenvalues --  -10.27987 -10.27946 -10.27939 -10.27717 -10.27708
 Alpha  occ. eigenvalues --  -10.27616 -10.27609 -10.27582 -10.27553 -10.27541
 Alpha  occ. eigenvalues --  -10.27538 -10.27507 -10.27338 -10.27281 -10.27230
 Alpha  occ. eigenvalues --  -10.27155 -10.27054 -10.26751 -10.26737 -10.26468
 Alpha  occ. eigenvalues --  -10.26437 -10.26321 -10.26239 -10.26169 -10.25882
 Alpha  occ. eigenvalues --  -10.25748 -10.25731 -10.25658 -10.25568 -10.25462
 Alpha  occ. eigenvalues --  -10.25448 -10.25205 -10.24957 -10.24714 -10.24513
 Alpha  occ. eigenvalues --  -10.24171  -3.17456  -3.16518  -1.92369  -1.91870
 Alpha  occ. eigenvalues --   -1.91787  -1.91429  -1.90938  -1.90866  -1.15729
 Alpha  occ. eigenvalues --   -1.14484  -1.10475  -1.10401  -1.09949  -1.09562
 Alpha  occ. eigenvalues --   -1.06800  -1.06729  -1.05573  -1.04716  -1.04261
 Alpha  occ. eigenvalues --   -1.04137  -1.03151  -1.02729  -1.02578  -1.01568
 Alpha  occ. eigenvalues --   -0.93309  -0.92119  -0.89209  -0.89197  -0.88726
 Alpha  occ. eigenvalues --   -0.88570  -0.88274  -0.87907  -0.87285  -0.87109
 Alpha  occ. eigenvalues --   -0.87049  -0.86794  -0.86249  -0.85538  -0.84323
 Alpha  occ. eigenvalues --   -0.84250  -0.83825  -0.83654  -0.82752  -0.82669
 Alpha  occ. eigenvalues --   -0.82557  -0.82325  -0.80942  -0.80836  -0.80058
 Alpha  occ. eigenvalues --   -0.79961  -0.78577  -0.78038  -0.77231  -0.77202
 Alpha  occ. eigenvalues --   -0.76754  -0.76651  -0.75898  -0.75847  -0.75059
 Alpha  occ. eigenvalues --   -0.74477  -0.72806  -0.72476  -0.71166  -0.70947
 Alpha  occ. eigenvalues --   -0.69241  -0.69001  -0.68741  -0.68435  -0.67921
 Alpha  occ. eigenvalues --   -0.67866  -0.67013  -0.66607  -0.65369  -0.65043
 Alpha  occ. eigenvalues --   -0.64857  -0.64654  -0.64574  -0.64179  -0.63992
 Alpha  occ. eigenvalues --   -0.63836  -0.62065  -0.61237  -0.60626  -0.60065
 Alpha  occ. eigenvalues --   -0.59586  -0.59577  -0.59118  -0.59032  -0.58733
 Alpha  occ. eigenvalues --   -0.58292  -0.58005  -0.57968  -0.57608  -0.57580
 Alpha  occ. eigenvalues --   -0.55827  -0.55791  -0.55706  -0.55660  -0.55428
 Alpha  occ. eigenvalues --   -0.55027  -0.54776  -0.54714  -0.53981  -0.53675
 Alpha  occ. eigenvalues --   -0.53576  -0.53542  -0.53358  -0.53350  -0.53259
 Alpha  occ. eigenvalues --   -0.52984  -0.52848  -0.52758  -0.52650  -0.52326
 Alpha  occ. eigenvalues --   -0.52125  -0.51827  -0.51786  -0.51662  -0.51316
 Alpha  occ. eigenvalues --   -0.51197  -0.50715  -0.50712  -0.50684  -0.50333
 Alpha  occ. eigenvalues --   -0.50274  -0.49880  -0.49768  -0.49558  -0.49493
 Alpha  occ. eigenvalues --   -0.49250  -0.49221  -0.49190  -0.48997  -0.48963
 Alpha  occ. eigenvalues --   -0.48796  -0.48585  -0.48533  -0.48487  -0.48107
 Alpha  occ. eigenvalues --   -0.47801  -0.47745  -0.47367  -0.47338  -0.47072
 Alpha  occ. eigenvalues --   -0.46865  -0.46673  -0.46443  -0.46338  -0.46277
 Alpha  occ. eigenvalues --   -0.46010  -0.45973  -0.45827  -0.45775  -0.45559
 Alpha  occ. eigenvalues --   -0.45173  -0.44931  -0.44928  -0.44675  -0.44633
 Alpha  occ. eigenvalues --   -0.44391  -0.44334  -0.44314  -0.44160  -0.43999
 Alpha  occ. eigenvalues --   -0.43936  -0.43536  -0.43434  -0.43340  -0.43310
 Alpha  occ. eigenvalues --   -0.43213  -0.43117  -0.42978  -0.42966  -0.42743
 Alpha  occ. eigenvalues --   -0.42561  -0.42467  -0.42302  -0.42054  -0.41825
 Alpha  occ. eigenvalues --   -0.41783  -0.41471  -0.41396  -0.41185  -0.41014
 Alpha  occ. eigenvalues --   -0.41006  -0.40959  -0.40514  -0.40377  -0.40207
 Alpha  occ. eigenvalues --   -0.39963  -0.39917  -0.39174  -0.38868  -0.38410
 Alpha  occ. eigenvalues --   -0.38182  -0.38045  -0.37967  -0.37901  -0.37699
 Alpha  occ. eigenvalues --   -0.37555  -0.36611  -0.36388  -0.36245  -0.36138
 Alpha  occ. eigenvalues --   -0.35787  -0.35610  -0.34427  -0.34300  -0.34027
 Alpha  occ. eigenvalues --   -0.33922  -0.33239  -0.32559  -0.32184  -0.31518
 Alpha  occ. eigenvalues --   -0.31398  -0.31215  -0.31141  -0.30494  -0.30217
 Alpha  occ. eigenvalues --   -0.30168  -0.29925  -0.29547  -0.23883  -0.23744
 Alpha  occ. eigenvalues --   -0.21379  -0.20878
 Alpha virt. eigenvalues --   -0.08823  -0.08610  -0.01405  -0.01243  -0.00005
 Alpha virt. eigenvalues --    0.00244   0.01882   0.02487   0.02566   0.03515
 Alpha virt. eigenvalues --    0.04809   0.05195   0.05266   0.05338   0.05931

 Mulliken charges:
               1
     1  Mg   0.819578
     2  C   -0.001580
     3  C   -0.062345
     4  C   -0.049496
     5  C   -0.063052
     6  N   -0.299505
     7  C   -0.121790
     8  C    0.023397
     9  C   -0.072160
    10  C    0.088157
    11  C    0.047542
    12  C    0.044046
    13  C   -0.030774
    14  H    0.030359
    15  N   -0.363616
    16  C    0.139354
    17  C   -0.154929
    18  C   -0.043620
    19  C    0.067720
    20  C    0.127864
    21  C    0.011830
    22  O   -0.199383
    23  C    0.049173
    24  N   -0.300425
    25  C    0.068965
    26  C   -0.058301
    27  C   -0.010015
    28  C    0.028446
    29  C    0.054667
    30  C    0.057306
    31  C   -0.011221
    32  N   -0.319250
    33  C    0.103419
    34  C   -0.191825
    35  C    0.027757
    36  C    0.105660
    37  C    0.107764
    38  C    0.039860
    39  O   -0.159283
    40  C    0.037434
    41  C    0.197710
    42  O   -0.231912
    43  O   -0.337911
    44  C    0.191704
    45  H   -0.027639
    46  H   -0.005063
    47  H   -0.030866
    48  H    0.010702
    49  H    0.014823
    50  H    0.011883
    51  H    0.006955
    52  H    0.029439
    53  H   -0.005520
    54  H    0.003327
    55  H    0.027318
    56  H    0.033798
    57  H    0.021013
    58  H    0.019311
    59  H    0.028824
    60  H    0.047426
    61  H    0.037114
    62  H    0.017571
    63  H    0.015698
    64  H    0.017521
    65  H    0.007128
    66  H    0.020729
    67  H    0.033916
    68  H    0.010918
    69  H    0.016042
    70  H    0.002341
    71  H    0.006568
    72  H    0.025352
    73  H   -0.003266
    74  H    0.037575
    75  H    0.027337
    76  H    0.052155
    77  H    0.027408
    78  H    0.040766
    79  H    0.034078
    80  Mg   0.842549
    81  C   -0.021664
    82  C   -0.078621
    83  C   -0.075116
    84  C   -0.111267
    85  N   -0.243020
    86  C   -0.062025
    87  C   -0.047376
    88  C   -0.052466
    89  C    0.015696
    90  C    0.105883
    91  C    0.057322
    92  C   -0.053896
    93  H    0.023592
    94  N   -0.393548
    95  C    0.179568
    96  C   -0.141580
    97  C   -0.075176
    98  C    0.104611
    99  C    0.096187
   100  C    0.057895
   101  O   -0.196838
   102  C    0.033361
   103  N   -0.301820
   104  C    0.062651
   105  C   -0.047739
   106  C    0.014852
   107  C    0.029746
   108  C    0.068821
   109  C    0.044628
   110  C    0.006259
   111  N   -0.283337
   112  C    0.112484
   113  C   -0.165592
   114  C    0.022733
   115  C    0.067170
   116  C    0.123692
   117  C    0.018847
   118  O   -0.167158
   119  C    0.053348
   120  C    0.179846
   121  O   -0.224351
   122  O   -0.371098
   123  C    0.187033
   124  H   -0.022537
   125  H   -0.009374
   126  H   -0.032002
   127  H   -0.002118
   128  H   -0.023002
   129  H    0.012567
   130  H    0.048835
   131  H    0.014426
   132  H    0.011100
   133  H    0.016532
   134  H    0.022707
   135  H    0.030164
   136  H    0.017711
   137  H    0.042050
   138  H    0.008674
   139  H    0.038380
   140  H    0.029167
   141  H    0.060214
   142  H    0.009211
   143  H    0.004444
   144  H    0.017364
   145  H    0.022848
   146  H    0.019468
   147  H    0.008867
   148  H    0.003242
   149  H   -0.003655
   150  H    0.027790
   151  H    0.017042
   152  H   -0.005916
   153  H    0.044062
   154  H    0.023709
   155  H    0.037065
   156  H    0.044974
   157  H    0.038881
   158  H    0.032024
 Sum of Mulliken charges =  -0.00000

 Dipole moment (field-independent basis, Debye):
    X=              3.6698    Y=             -0.5808    Z=              6.2351  Tot=              7.2582
 Quadrupole moment (field-independent basis, Debye-Ang):
   XX=           -276.1450   YY=           -499.5060   ZZ=           -499.1222
   XY=             48.2780   XZ=            -33.1077   YZ=             31.0137

 Normal termination of Gaussian 16 at Wed Sep 15 23:00:39 2021.
