 Gaussian 16, Revision A.03,
 Gaussian 16:  ES64L-G16RevA.03 25-Dec-2016

 -----------------------------------
 #p cam-b3lyp/Def2SVP td=(nstates=5)
 -----------------------------------

 --------------------------------
 TDDFT excited states in gaussian
 --------------------------------
 Symbolic Z-matrix:
 Charge =  0 Multiplicity = 1

                         Standard orientation:
 ---------------------------------------------------------------------
 Center     Atomic      Atomic             Coordinates (Angstroms)
 Number     Number       Type             X           Y           Z
 ---------------------------------------------------------------------
      1         12           0       20.350041   -0.756380    0.254167
      2          6           0       19.600884    2.357438   -1.092233
      3          6           0       21.022741    0.913574    3.218691
      4          6           0       21.573209   -3.697730    1.445202
      5          6           0       19.794067   -2.194641   -2.840699
      6          7           0       20.365715    1.401480    0.956030
      7          6           0       19.983949    2.527264    0.242252
      8          6           0       20.163078    3.878727    1.039329
      9          6           0       20.933624    3.341969    2.307330
     10          6           0       20.813450    1.780638    2.156834
     11          6           0       22.400033    3.707989    2.554672
     12          6           0       18.800923    4.547579    1.299718
     13          6           0       18.481873    5.786767    0.505502
     14          1           0       17.702608    6.896015    1.234118
     15          7           0       21.003723   -1.400695    2.113249
     16          6           0       21.116766   -0.558463    3.175108
     17          6           0       21.631815   -1.388555    4.281483
     18          6           0       21.896046   -2.677917    3.793717
     19          6           0       21.497797   -2.672460    2.439757
     20          6           0       21.687122   -0.866011    5.659626
     21          6           0       22.504976   -3.865751    4.479425
     22          8           0       22.585329   -5.009045    3.950243
     23          6           0       23.085964   -3.822069    5.784419
     24          7           0       20.561979   -2.642523   -0.528395
     25          6           0       21.062938   -3.708113    0.154323
     26          6           0       21.129195   -4.947586   -0.648153
     27          6           0       20.502872   -4.503849   -2.018789
     28          6           0       20.339373   -3.046683   -1.800261
     29          6           0       22.443665   -5.752603   -0.868712
     30          6           0       19.193846   -5.318719   -2.475819
     31          6           0       17.757261   -4.960663   -1.991922
     32          7           0       19.852387   -0.124793   -1.614984
     33          6           0       19.623558   -0.819009   -2.767997
     34          6           0       19.069916    0.023619   -3.735813
     35          6           0       19.137434    1.326566   -3.107683
     36          6           0       19.593739    1.162631   -1.814972
     37          6           0       18.523427   -0.354847   -5.111148
     38          6           0       18.747171    2.690726   -3.320404
     39          8           0       18.156203    3.281245   -4.201534
     40          6           0       19.266763    3.464536   -2.058316
     41          6           0       20.442322    4.281505   -2.419266
     42          8           0       21.617676    4.105802   -2.029494
     43          8           0       20.180068    5.292198   -3.276463
     44          6           0       21.228102    6.337234   -3.536891
     45          1           0       21.293973    1.451921    4.128525
     46          1           0       21.986634   -4.659766    1.755677
     47          1           0       19.435506   -2.596704   -3.791085
     48          1           0       20.948512    4.504823    0.614717
     49          1           0       20.334938    3.653807    3.163098
     50          1           0       23.034330    2.831776    2.418354
     51          1           0       22.486862    3.895185    3.623947
     52          1           0       22.784948    4.537133    1.959984
     53          1           0       18.838094    4.864747    2.342549
     54          1           0       18.027842    3.783097    1.222193
     55          1           0       17.885291    5.478071   -0.353329
     56          1           0       19.336670    6.287438    0.050588
     57          1           0       21.008212   -1.503116    6.224972
     58          1           0       21.431484    0.176659    5.852646
     59          1           0       22.692590   -0.998363    6.059064
     60          1           0       23.689903   -2.915149    5.797211
     61          1           0       23.536689   -4.780125    6.040177
     62          1           0       22.333056   -3.606419    6.542568
     63          1           0       20.433975   -5.559697   -0.074361
     64          1           0       21.251407   -4.601632   -2.804186
     65          1           0       22.405018   -6.736008   -0.400099
     66          1           0       23.296656   -5.245854   -0.416095
     67          1           0       22.717002   -5.856720   -1.918672
     68          1           0       19.397736   -6.312366   -2.076257
     69          1           0       19.321098   -5.303504   -3.558364
     70          1           0       17.668484   -4.022364   -1.444979
     71          1           0       17.203658   -5.761378   -1.500710
     72          1           0       17.195386   -4.868260   -2.920436
     73          1           0       19.016766    0.197474   -5.911621
     74          1           0       17.477127   -0.051267   -5.141692
     75          1           0       18.521956   -1.424996   -5.319894
     76          1           0       18.517738    4.216507   -1.809525
     77          1           0       20.567343    7.069260   -4.001470
     78          1           0       22.044707    6.021493   -4.185338
     79          1           0       21.653543    6.674411   -2.591178
     80         12           0      -20.900574   -0.402343   -0.163673
     81          6           0      -18.534320    2.034043    0.025962
     82          6           0      -23.267127    1.701888    1.181145
     83          6           0      -23.099337   -2.975201   -0.245001
     84          6           0      -18.341318   -2.658569   -1.086392
     85          7           0      -20.835467    1.583522    0.734259
     86          6           0      -19.855747    2.460166    0.386848
     87          6           0      -20.228301    3.886417    0.611631
     88          6           0      -21.703834    3.681614    1.237637
     89          6           0      -21.980067    2.226050    1.049036
     90          6           0      -21.786216    4.105324    2.773772
     91          6           0      -20.271286    4.637426   -0.800099
     92          6           0      -20.106746    6.158757   -0.790700
     93          1           0      -20.213509    7.042385    0.477095
     94          7           0      -22.930860   -0.631771    0.283207
     95          6           0      -23.726367    0.372468    0.858672
     96          6           0      -25.041486   -0.191889    1.055302
     97          6           0      -25.015097   -1.532361    0.619643
     98          6           0      -23.649437   -1.725362    0.151729
     99          6           0      -26.207042    0.667032    1.598945
    100          6           0      -26.202314   -2.626566    0.718890
    101          8           0      -26.132404   -3.738879    0.180987
    102          6           0      -27.520806   -2.394613    1.438271
    103          7           0      -20.721338   -2.545890   -0.686229
    104          6           0      -21.795430   -3.365048   -0.586754
    105          6           0      -21.390510   -4.833388   -0.705706
    106          6           0      -19.878811   -4.707133   -1.318328
    107          6           0      -19.612494   -3.204466   -1.137538
    108          6           0      -21.576210   -5.723308    0.607372
    109          6           0      -19.717601   -4.990063   -2.897419
    110          6           0      -18.634762   -5.933174   -3.388490
    111          7           0      -18.845875   -0.394607   -0.539164
    112          6           0      -17.951325   -1.338667   -0.880260
    113          6           0      -16.609425   -0.711571   -1.093966
    114          6           0      -16.857058    0.647206   -0.785956
    115          6           0      -18.199130    0.726564   -0.340422
    116          6           0      -15.321556   -1.294005   -1.558422
    117          6           0      -16.179268    1.887914   -0.730392
    118          8           0      -14.991503    2.170848   -0.989499
    119          6           0      -17.235631    2.851294   -0.195125
    120          6           0      -16.768980    3.407596    1.054252
    121          8           0      -16.408018    2.875479    2.057088
    122          8           0      -16.919442    4.786725    0.943731
    123          6           0      -16.593707    5.728246    2.082508
    124          1           0      -24.112364    2.361828    1.385396
    125          1           0      -23.788855   -3.819595   -0.176395
    126          1           0      -17.478159   -3.320577   -1.175554
    127          1           0      -19.642881    4.533918    1.264114
    128          1           0      -22.448300    4.265686    0.696623
    129          1           0      -22.720782    4.567872    3.090318
    130          1           0      -20.903350    4.691088    3.029297
    131          1           0      -21.712530    3.181529    3.348520
    132          1           0      -21.195282    4.424594   -1.338072
    133          1           0      -19.455593    4.200672   -1.376844
    134          1           0      -20.822149    6.533100   -1.524030
    135          1           0      -19.141208    6.404146   -1.231352
    136          1           0      -25.955323    1.715378    1.758736
    137          1           0      -26.534335    0.194568    2.524505
    138          1           0      -27.027212    0.577980    0.886187
    139          1           0      -28.036304   -1.655178    0.826527
    140          1           0      -27.401376   -1.813157    2.352683
    141          1           0      -27.982865   -3.345491    1.702875
    142          1           0      -22.007909   -5.282770   -1.484424
    143          1           0      -19.187739   -5.363825   -0.789498
    144          1           0      -20.631548   -6.167809    0.921523
    145          1           0      -22.320318   -6.499226    0.431142
    146          1           0      -21.883460   -5.104194    1.450560
    147          1           0      -19.648461   -4.065181   -3.469869
    148          1           0      -20.674071   -5.394009   -3.227850
    149          1           0      -18.028399   -5.365215   -4.093214
    150          1           0      -19.033280   -6.841737   -3.839074
    151          1           0      -17.966654   -6.185212   -2.563766
    152          1           0      -15.371187   -2.342392   -1.852110
    153          1           0      -14.563700   -1.234469   -0.776832
    154          1           0      -14.976110   -0.718365   -2.416913
    155          1           0      -17.438888    3.667174   -0.889371
    156          1           0      -16.295060    5.165099    2.966954
    157          1           0      -17.488359    6.286029    2.362443
    158          1           0      -15.785829    6.359568    1.712650
 ---------------------------------------------------------------------

 SCF Done:  E(RCAM-B3LYP) =  -4069.81526499     A.U. after   19 cycles

 Excitation energies and oscillator strengths:

 Excited State   1:      Singlet-A      1.7035 eV  727.84 nm  f=0.3872  <S**2>=0.000
     310 -> 316       -0.17721
     312 -> 313        0.68470
     310 <- 316       -0.10752
 This state for optimization and/or second-order correction.
 Total Energy, E(TD-HF/TD-DFT) =  -4069.75266407
 Copying the excited state density for this state as the 1-particle RhoCI density.

 Excited State   2:      Singlet-A      1.7389 eV  713.00 nm  f=0.3970  <S**2>=0.000
     309 -> 315        0.19174
     311 -> 314        0.68288
     309 <- 315        0.10975

 Excited State   3:      Singlet-A      2.2075 eV  561.65 nm  f=0.1397  <S**2>=0.000
     310 -> 313        0.65102
     312 -> 316        0.26104

 Excited State   4:      Singlet-A      2.2287 eV  556.30 nm  f=0.1039  <S**2>=0.000
     309 -> 314        0.63901
     311 -> 315       -0.29488

 Excited State   5:      Singlet-A      3.1680 eV  391.37 nm  f=0.0000  <S**2>=0.000
     311 -> 313        0.70710

 The electronic state is 1-A.
 Alpha  occ. eigenvalues --  -46.89400 -46.87500 -19.24036 -19.23683 -19.19591
 Alpha  occ. eigenvalues --  -19.19194 -19.18779 -19.18232 -19.18195 -19.17924
 Alpha  occ. eigenvalues --  -14.42478 -14.41973 -14.41831 -14.41670 -14.39551
 Alpha  occ. eigenvalues --  -14.39503 -14.39390 -14.38330 -10.38652 -10.38511
 Alpha  occ. eigenvalues --  -10.36230 -10.34490 -10.34473 -10.34149 -10.31987
 Alpha  occ. eigenvalues --  -10.31902 -10.31746 -10.30929 -10.30775 -10.30675
 Alpha  occ. eigenvalues --  -10.30644 -10.30564 -10.30438 -10.30214 -10.30094
 Alpha  occ. eigenvalues --  -10.29995 -10.29993 -10.29868 -10.29745 -10.29012
 Alpha  occ. eigenvalues --  -10.28873 -10.28854 -10.28773 -10.28527 -10.28336
 Alpha  occ. eigenvalues --  -10.28298 -10.28263 -10.28250 -10.28188 -10.28186
 Alpha  occ. eigenvalues --  -10.28118 -10.27963 -10.27958 -10.27823 -10.27809
 Alpha  occ. eigenvalues --  -10.27702 -10.27634 -10.27515 -10.27460 -10.27398
 Alpha  occ. eigenvalues --  -10.27363 -10.27349 -10.27227 -10.27223 -10.27113
 Alpha  occ. eigenvalues --  -10.27063 -10.26875 -10.26853 -10.26719 -10.26667
 Alpha  occ. eigenvalues --  -10.26662 -10.26436 -10.26285 -10.26209 -10.26169
 Alpha  occ. eigenvalues --  -10.26114 -10.26067 -10.25972 -10.25892 -10.25886
 Alpha  occ. eigenvalues --  -10.25861 -10.25687 -10.25640 -10.25361 -10.24747
 Alpha  occ. eigenvalues --  -10.24580  -3.17807  -3.16216  -1.92726  -1.92244
 Alpha  occ. eigenvalues --   -1.92118  -1.91126  -1.90675  -1.90520  -1.15632
 Alpha  occ. eigenvalues --   -1.15106  -1.09514  -1.09496  -1.08325  -1.07922
 Alpha  occ. eigenvalues --   -1.07202  -1.05562  -1.05102  -1.04810  -1.04460
 Alpha  occ. eigenvalues --   -1.04056  -1.03576  -1.03209  -1.02629  -1.02198
 Alpha  occ. eigenvalues --   -0.93493  -0.93052  -0.89005  -0.88608  -0.88418
 Alpha  occ. eigenvalues --   -0.88269  -0.88262  -0.87546  -0.87517  -0.87064
 Alpha  occ. eigenvalues --   -0.86978  -0.86905  -0.86221  -0.86068  -0.84349
 Alpha  occ. eigenvalues --   -0.84325  -0.83615  -0.83473  -0.82779  -0.82431
 Alpha  occ. eigenvalues --   -0.82364  -0.81608  -0.81188  -0.80957  -0.80515
 Alpha  occ. eigenvalues --   -0.80299  -0.78525  -0.78412  -0.77479  -0.77471
 Alpha  occ. eigenvalues --   -0.77123  -0.76837  -0.76202  -0.76180  -0.75266
 Alpha  occ. eigenvalues --   -0.75187  -0.73081  -0.72589  -0.71985  -0.71304
 Alpha  occ. eigenvalues --   -0.70073  -0.69257  -0.68744  -0.68638  -0.68225
 Alpha  occ. eigenvalues --   -0.67971  -0.67070  -0.65983  -0.65337  -0.65204
 Alpha  occ. eigenvalues --   -0.65169  -0.65057  -0.64580  -0.64515  -0.64335
 Alpha  occ. eigenvalues --   -0.64251  -0.61816  -0.61461  -0.60449  -0.59930
 Alpha  occ. eigenvalues --   -0.59926  -0.59614  -0.59182  -0.59118  -0.58795
 Alpha  occ. eigenvalues --   -0.58562  -0.58472  -0.57765  -0.57755  -0.57275
 Alpha  occ. eigenvalues --   -0.56139  -0.56026  -0.55607  -0.55502  -0.55293
 Alpha  occ. eigenvalues --   -0.54866  -0.54412  -0.54235  -0.53797  -0.53770
 Alpha  occ. eigenvalues --   -0.53217  -0.53043  -0.52975  -0.52881  -0.52759
 Alpha  occ. eigenvalues --   -0.52496  -0.52408  -0.52201  -0.52137  -0.52044
 Alpha  occ. eigenvalues --   -0.51854  -0.51695  -0.51630  -0.51406  -0.51039
 Alpha  occ. eigenvalues --   -0.50807  -0.50806  -0.50541  -0.50322  -0.50134
 Alpha  occ. eigenvalues --   -0.49805  -0.49732  -0.49702  -0.49608  -0.49397
 Alpha  occ. eigenvalues --   -0.49395  -0.49125  -0.48916  -0.48910  -0.48774
 Alpha  occ. eigenvalues --   -0.48447  -0.48306  -0.48157  -0.48145  -0.47951
 Alpha  occ. eigenvalues --   -0.47898  -0.47735  -0.47614  -0.47267  -0.47197
 Alpha  occ. eigenvalues --   -0.46927  -0.46722  -0.46592  -0.46465  -0.46457
 Alpha  occ. eigenvalues --   -0.46247  -0.46218  -0.46168  -0.45959  -0.45675
 Alpha  occ. eigenvalues --   -0.45583  -0.45371  -0.45234  -0.45188  -0.45140
 Alpha  occ. eigenvalues --   -0.44771  -0.44688  -0.44349  -0.44262  -0.44219
 Alpha  occ. eigenvalues --   -0.43979  -0.43950  -0.43897  -0.43786  -0.43762
 Alpha  occ. eigenvalues --   -0.43691  -0.43386  -0.43140  -0.42862  -0.42728
 Alpha  occ. eigenvalues --   -0.42671  -0.42423  -0.42323  -0.41746  -0.41630
 Alpha  occ. eigenvalues --   -0.41570  -0.41451  -0.41295  -0.41134  -0.41094
 Alpha  occ. eigenvalues --   -0.41052  -0.40811  -0.40762  -0.40302  -0.40207
 Alpha  occ. eigenvalues --   -0.39951  -0.39721  -0.39673  -0.39407  -0.38893
 Alpha  occ. eigenvalues --   -0.38419  -0.38173  -0.37786  -0.37785  -0.37535
 Alpha  occ. eigenvalues --   -0.36881  -0.36758  -0.36579  -0.36473  -0.36357
 Alpha  occ. eigenvalues --   -0.36074  -0.35573  -0.34491  -0.34276  -0.34231
 Alpha  occ. eigenvalues --   -0.33158  -0.33154  -0.32851  -0.31249  -0.31099
 Alpha  occ. eigenvalues --   -0.31020  -0.30963  -0.30585  -0.30173  -0.30048
 Alpha  occ. eigenvalues --   -0.30002  -0.29864  -0.29287  -0.23832  -0.23610
 Alpha  occ. eigenvalues --   -0.21131  -0.21079
 Alpha virt. eigenvalues --   -0.08658  -0.08514  -0.01700  -0.01277  -0.00002
 Alpha virt. eigenvalues --    0.00717   0.02309   0.02393   0.02796   0.03601
 Alpha virt. eigenvalues --    0.04669   0.05079   0.05334   0.05673   0.05805

 Mulliken charges:
               1
     1  Mg   0.842037
     2  C   -0.018359
     3  C   -0.053893
     4  C   -0.067828
     5  C   -0.096669
     6  N   -0.267816
     7  C   -0.058747
     8  C   -0.002112
     9  C   -0.086424
    10  C    0.002181
    11  C    0.086096
    12  C    0.098641
    13  C   -0.086501
    14  H    0.020515
    15  N   -0.397026
    16  C    0.159480
    17  C   -0.172388
    18  C    0.028788
    19  C    0.105196
    20  C    0.105042
    21  C   -0.012487
    22  O   -0.250270
    23  C    0.087506
    24  N   -0.298726
    25  C    0.055472
    26  C   -0.041423
    27  C   -0.007441
    28  C    0.040368
    29  C    0.076573
    30  C    0.015305
    31  C    0.012074
    32  N   -0.356450
    33  C    0.119040
    34  C   -0.160397
    35  C   -0.009448
    36  C    0.183600
    37  C    0.132490
    38  C    0.018620
    39  O   -0.153137
    40  C   -0.052035
    41  C    0.191745
    42  O   -0.263472
    43  O   -0.324251
    44  C    0.186504
    45  H   -0.034029
    46  H   -0.005158
    47  H   -0.038780
    48  H    0.013757
    49  H    0.000852
    50  H    0.026188
    51  H    0.010478
    52  H    0.029915
    53  H    0.011966
    54  H    0.021682
    55  H    0.043744
    56  H    0.030132
    57  H    0.034879
    58  H    0.019930
    59  H    0.013902
    60  H    0.022499
    61  H    0.040292
    62  H    0.021403
    63  H    0.020256
    64  H    0.009385
    65  H    0.022346
    66  H    0.017738
    67  H    0.015155
    68  H    0.010509
    69  H    0.016439
    70  H    0.036111
    71  H    0.017614
    72  H    0.007458
    73  H    0.037948
    74  H    0.031088
    75  H    0.003131
    76  H    0.027449
    77  H    0.047683
    78  H    0.049063
    79  H    0.037004
    80  Mg   0.812096
    81  C   -0.074114
    82  C   -0.059218
    83  C   -0.048945
    84  C   -0.095301
    85  N   -0.287530
    86  C   -0.007203
    87  C   -0.035675
    88  C   -0.060083
    89  C    0.073606
    90  C    0.067934
    91  C    0.021878
    92  C   -0.043644
    93  H    0.021773
    94  N   -0.352764
    95  C    0.090830
    96  C   -0.157982
    97  C   -0.044720
    98  C    0.100246
    99  C    0.108433
   100  C    0.033405
   101  O   -0.220432
   102  C    0.070299
   103  N   -0.263494
   104  C    0.011742
   105  C   -0.016177
   106  C   -0.070743
   107  C    0.089956
   108  C    0.065460
   109  C    0.016601
   110  C    0.018718
   111  N   -0.299344
   112  C    0.080624
   113  C   -0.145589
   114  C   -0.016598
   115  C    0.164964
   116  C    0.124107
   117  C    0.057609
   118  O   -0.193348
   119  C    0.017355
   120  C    0.186318
   121  O   -0.169762
   122  O   -0.386221
   123  C    0.166637
   124  H   -0.032734
   125  H   -0.011505
   126  H   -0.026904
   127  H    0.021739
   128  H    0.005735
   129  H    0.022407
   130  H    0.011904
   131  H    0.016935
   132  H    0.008724
   133  H    0.010176
   134  H    0.020063
   135  H    0.030533
   136  H    0.019242
   137  H    0.030210
   138  H    0.026460
   139  H    0.033426
   140  H    0.005438
   141  H    0.050255
   142  H    0.010955
   143  H    0.010641
   144  H    0.011995
   145  H    0.028780
   146  H    0.024156
   147  H    0.014773
   148  H   -0.003659
   149  H    0.015283
   150  H    0.026197
   151  H    0.004541
   152  H    0.001617
   153  H    0.042095
   154  H    0.040940
   155  H    0.039694
   156  H    0.049366
   157  H    0.037315
   158  H    0.051500
 Sum of Mulliken charges =  -0.00000

 Dipole moment (field-independent basis, Debye):
    X=             -3.3861    Y=              1.5445    Z=              2.8289  Tot=              4.6748
 Quadrupole moment (field-independent basis, Debye-Ang):
   XX=           -371.3793   YY=           -478.1764   ZZ=           -496.3307
   XY=            -38.6566   XZ=             43.0525   YZ=             34.4315

 Normal termination of Gaussian 16 at Tue Sep 14 22:41:26 2021.
