 Gaussian 16, Revision A.03,
 Gaussian 16:  ES64L-G16RevA.03 25-Dec-2016

 -----------------------------------
 #p cam-b3lyp/Def2SVP td=(nstates=5)
 -----------------------------------

 --------------------------------
 TDDFT excited states in gaussian
 --------------------------------
 Symbolic Z-matrix:
 Charge =  0 Multiplicity = 1

                         Standard orientation:
 ---------------------------------------------------------------------
 Center     Atomic      Atomic             Coordinates (Angstroms)
 Number     Number       Type             X           Y           Z
 ---------------------------------------------------------------------
      1         12           0       19.464134   -0.835156   -0.126561
      2          6           0       21.300559    2.192573   -0.192961
      3          6           0       17.323932    0.792503    2.107015
      4          6           0       17.582722   -3.524216   -0.032884
      5          6           0       22.125498   -2.452681   -1.672742
      6          7           0       19.350943    1.256512    0.786205
      7          6           0       20.106297    2.355023    0.507200
      8          6           0       19.723351    3.643597    1.255084
      9          6           0       18.474657    3.052600    2.085899
     10          6           0       18.414042    1.625174    1.628770
     11          6           0       18.653454    3.104858    3.654805
     12          6           0       19.319407    4.810554    0.296091
     13          6           0       20.124180    6.090291    0.105298
     14          1           0       19.436824    7.428153   -0.133793
     15          7           0       17.646626   -1.308881    0.828057
     16          6           0       16.952201   -0.532562    1.767030
     17          6           0       15.863182   -1.338534    2.272016
     18          6           0       15.816266   -2.531421    1.554767
     19          6           0       17.013557   -2.472321    0.693755
     20          6           0       14.900253   -0.715037    3.223848
     21          6           0       14.878926   -3.734637    1.651457
     22          8           0       14.974909   -4.756524    0.965017
     23          6           0       13.698371   -3.596645    2.529927
     24          7           0       19.813697   -2.761788   -0.659668
     25          6           0       18.812300   -3.690045   -0.732421
     26          6           0       19.219507   -4.887253   -1.656696
     27          6           0       20.652109   -4.546528   -2.046073
     28          6           0       20.932478   -3.181389   -1.358532
     29          6           0       19.003566   -6.288429   -0.996946
     30          6           0       20.774413   -4.501003   -3.576796
     31          6           0       21.951683   -5.147666   -4.211215
     32          7           0       21.384144   -0.329581   -0.724415
     33          6           0       22.345588   -1.071168   -1.363148
     34          6           0       23.501999   -0.280837   -1.662783
     35          6           0       23.143139    1.112397   -1.313829
     36          6           0       21.813532    0.991912   -0.746901
     37          6           0       24.810791   -0.798911   -2.283271
     38          6           0       23.560791    2.536643   -1.277619
     39          8           0       24.554377    3.094009   -1.774104
     40          6           0       22.362122    3.273708   -0.549978
     41          6           0       23.092084    3.864066    0.615782
     42          8           0       23.336649    3.351935    1.701452
     43          8           0       23.367689    5.121425    0.401411
     44          6           0       24.231152    5.858501    1.355742
     45          1           0       16.666621    1.464161    2.662550
     46          1           0       17.079636   -4.492889   -0.052364
     47          1           0       22.920242   -2.961871   -2.221224
     48          1           0       20.544939    3.890244    1.928752
     49          1           0       17.481415    3.452966    1.880380
     50          1           0       19.660848    3.272645    4.034749
     51          1           0       18.330257    2.162167    4.094976
     52          1           0       18.012394    3.895242    4.045664
     53          1           0       18.340471    5.154446    0.630438
     54          1           0       19.230100    4.444213   -0.725820
     55          1           0       20.602300    5.877847   -0.851040
     56          1           0       20.767583    6.076776    0.985101
     57          1           0       13.891921   -0.674365    2.814198
     58          1           0       15.196797    0.304571    3.471240
     59          1           0       14.812259   -1.257324    4.164786
     60          1           0       13.185158   -2.661751    2.304428
     61          1           0       13.971508   -3.438228    3.573290
     62          1           0       12.953136   -4.382286    2.409609
     63          1           0       18.510959   -4.777186   -2.477475
     64          1           0       21.340988   -5.333783   -1.740292
     65          1           0       18.453289   -6.260741   -0.056567
     66          1           0       19.929694   -6.815542   -0.770744
     67          1           0       18.561750   -6.971696   -1.722088
     68          1           0       20.797485   -3.430374   -3.776032
     69          1           0       19.947015   -4.964254   -4.113734
     70          1           0       22.403842   -4.359599   -4.812923
     71          1           0       21.646015   -6.048100   -4.743934
     72          1           0       22.750948   -5.423470   -3.522975
     73          1           0       25.489083   -1.093829   -1.483468
     74          1           0       25.229589   -0.007404   -2.904555
     75          1           0       24.654879   -1.693746   -2.886215
     76          1           0       22.017864    4.053380   -1.229220
     77          1           0       23.828224    5.914476    2.366394
     78          1           0       24.485133    6.869558    1.037980
     79          1           0       25.239452    5.473336    1.504558
     80         12           0      -20.143040   -0.542280    0.110742
     81          6           0      -19.814519    2.524207   -1.595407
     82          6           0      -19.661283    1.232071    3.037210
     83          6           0      -20.319786   -3.451802    1.887828
     84          6           0      -20.256725   -2.179188   -2.817889
     85          7           0      -19.809829    1.664958    0.663849
     86          6           0      -19.846078    2.771431   -0.176154
     87          6           0      -19.913166    4.049735    0.635144
     88          6           0      -19.496547    3.591581    2.080022
     89          6           0      -19.682398    2.099780    1.916542
     90          6           0      -18.065887    4.055838    2.560573
     91          6           0      -21.317356    4.671119    0.671040
     92          6           0      -21.359587    6.202852    0.651562
     93          1           0      -20.859192    6.974084    1.904509
     94          7           0      -20.100962   -1.039403    2.165186
     95          6           0      -19.851503   -0.140946    3.145511
     96          6           0      -19.750973   -0.838325    4.386259
     97          6           0      -20.077449   -2.221084    4.166205
     98          6           0      -20.123410   -2.287145    2.716170
     99          6           0      -19.413141   -0.137537    5.672864
    100          6           0      -20.188981   -3.408033    5.123249
    101          8           0      -20.651659   -4.509761    4.753557
    102          6           0      -19.676017   -3.356796    6.557930
    103          7           0      -20.358977   -2.496072   -0.388340
    104          6           0      -20.340113   -3.569587    0.496991
    105          6           0      -20.390125   -4.843592   -0.282260
    106          6           0      -20.442963   -4.514253   -1.817514
    107          6           0      -20.396336   -2.981159   -1.714377
    108          6           0      -19.329517   -5.905588    0.137006
    109          6           0      -21.700850   -5.010661   -2.562800
    110          6           0      -21.497289   -6.357521   -3.283207
    111          7           0      -20.015900   -0.023281   -1.793313
    112          6           0      -20.140282   -0.776445   -2.959928
    113          6           0      -20.113527    0.074299   -4.207045
    114          6           0      -19.951329    1.354371   -3.652749
    115          6           0      -19.952523    1.261645   -2.223819
    116          6           0      -20.232191   -0.407260   -5.641553
    117          6           0      -19.814878    2.748943   -4.045074
    118          8           0      -19.755783    3.273179   -5.158058
    119          6           0      -19.845398    3.560632   -2.681023
    120          6           0      -18.610154    4.481232   -2.730544
    121          8           0      -17.509244    4.189537   -3.150177
    122          8           0      -19.002052    5.768625   -2.368509
    123          6           0      -17.898246    6.728640   -2.389195
    124          1           0      -19.586296    1.832427    3.946068
    125          1           0      -20.396002   -4.436530    2.353127
    126          1           0      -20.176166   -2.792818   -3.717183
    127          1           0      -19.214142    4.824335    0.320729
    128          1           0      -20.141226    3.960281    2.877908
    129          1           0      -17.544044    4.740200    1.891053
    130          1           0      -17.323494    3.272243    2.710109
    131          1           0      -18.136324    4.619401    3.490931
    132          1           0      -21.874097    4.342254    1.548227
    133          1           0      -21.888333    4.384400   -0.212294
    134          1           0      -22.348566    6.579196    0.390420
    135          1           0      -20.775019    6.603485   -0.176353
    136          1           0      -18.536643    0.442842    5.384355
    137          1           0      -19.106077   -0.751162    6.519663
    138          1           0      -20.175421    0.553904    6.031216
    139          1           0      -18.655172   -2.975886    6.591968
    140          1           0      -19.750121   -4.401424    6.859839
    141          1           0      -20.284588   -2.690437    7.169235
    142          1           0      -21.273572   -5.382124    0.062022
    143          1           0      -19.562257   -4.814533   -2.386683
    144          1           0      -18.698524   -5.457443    0.904851
    145          1           0      -18.708096   -6.140639   -0.726690
    146          1           0      -19.925449   -6.730439    0.529061
    147          1           0      -22.048125   -4.191032   -3.191463
    148          1           0      -22.494096   -5.263303   -1.858874
    149          1           0      -20.684362   -6.909210   -2.810687
    150          1           0      -21.176923   -6.311298   -4.324204
    151          1           0      -22.405380   -6.947044   -3.153539
    152          1           0      -21.270042   -0.702877   -5.796107
    153          1           0      -19.625385   -1.275060   -5.899272
    154          1           0      -19.976572    0.452094   -6.261245
    155          1           0      -20.733092    4.170501   -2.514271
    156          1           0      -17.352266    6.818645   -1.449613
    157          1           0      -18.377605    7.666025   -2.671030
    158          1           0      -17.073847    6.576341   -3.085790
 ---------------------------------------------------------------------

 SCF Done:  E(RCAM-B3LYP) =  -4069.83652280     A.U. after   17 cycles

 Excitation energies and oscillator strengths:

 Excited State   1:      Singlet-A      1.7014 eV  728.72 nm  f=0.3730  <S**2>=0.000
     309 -> 316       -0.18653
     312 -> 313        0.68386
     309 <- 316       -0.10956
 This state for optimization and/or second-order correction.
 Total Energy, E(TD-HF/TD-DFT) =  -4069.77399753
 Copying the excited state density for this state as the 1-particle RhoCI density.

 Excited State   2:      Singlet-A      1.7572 eV  705.59 nm  f=0.3833  <S**2>=0.000
     310 -> 315       -0.18343
     311 -> 314        0.68374
     310 <- 315       -0.10474

 Excited State   3:      Singlet-A      2.2202 eV  558.44 nm  f=0.1038  <S**2>=0.000
     310 -> 314        0.63624
     311 -> 315        0.29383

 Excited State   4:      Singlet-A      2.2323 eV  555.40 nm  f=0.1009  <S**2>=0.000
     309 -> 313        0.63574
     312 -> 316        0.29945

 Excited State   5:      Singlet-A      3.1855 eV  389.22 nm  f=0.0000  <S**2>=0.000
     312 -> 314        0.70710

 The electronic state is 1-A.
 Alpha  occ. eigenvalues --  -46.88526 -46.87677 -19.25794 -19.25304 -19.20442
 Alpha  occ. eigenvalues --  -19.19582 -19.19235 -19.19125 -19.18872 -19.18188
 Alpha  occ. eigenvalues --  -14.42704 -14.42583 -14.41903 -14.41305 -14.39923
 Alpha  occ. eigenvalues --  -14.39822 -14.39510 -14.38985 -10.39715 -10.38647
 Alpha  occ. eigenvalues --  -10.35975 -10.35875 -10.35441 -10.35108 -10.31946
 Alpha  occ. eigenvalues --  -10.31634 -10.31510 -10.31468 -10.31404 -10.31111
 Alpha  occ. eigenvalues --  -10.30912 -10.30903 -10.30772 -10.30756 -10.30743
 Alpha  occ. eigenvalues --  -10.30524 -10.30354 -10.30305 -10.29614 -10.29427
 Alpha  occ. eigenvalues --  -10.29250 -10.29133 -10.29036 -10.28859 -10.28772
 Alpha  occ. eigenvalues --  -10.28767 -10.28767 -10.28742 -10.28735 -10.28659
 Alpha  occ. eigenvalues --  -10.28622 -10.28588 -10.28408 -10.28398 -10.28037
 Alpha  occ. eigenvalues --  -10.28030 -10.27950 -10.27882 -10.27878 -10.27710
 Alpha  occ. eigenvalues --  -10.27575 -10.27521 -10.27400 -10.27230 -10.27095
 Alpha  occ. eigenvalues --  -10.27076 -10.27057 -10.26981 -10.26634 -10.26524
 Alpha  occ. eigenvalues --  -10.26499 -10.26454 -10.26432 -10.26406 -10.26361
 Alpha  occ. eigenvalues --  -10.26037 -10.26018 -10.25853 -10.25823 -10.25722
 Alpha  occ. eigenvalues --  -10.25690 -10.25688 -10.25640 -10.25586 -10.25222
 Alpha  occ. eigenvalues --  -10.24859  -3.17123  -3.16460  -1.92024  -1.91580
 Alpha  occ. eigenvalues --   -1.91427  -1.91358  -1.90891  -1.90804  -1.17797
 Alpha  occ. eigenvalues --   -1.16333  -1.10084  -1.09261  -1.08957  -1.08388
 Alpha  occ. eigenvalues --   -1.08206  -1.06488  -1.05474  -1.04745  -1.04008
 Alpha  occ. eigenvalues --   -1.03696  -1.03103  -1.02777  -1.01486  -1.01360
 Alpha  occ. eigenvalues --   -0.92603  -0.91845  -0.89576  -0.89465  -0.89049
 Alpha  occ. eigenvalues --   -0.89043  -0.88793  -0.88326  -0.87719  -0.87513
 Alpha  occ. eigenvalues --   -0.87044  -0.86759  -0.86176  -0.85110  -0.84446
 Alpha  occ. eigenvalues --   -0.84339  -0.83577  -0.83479  -0.82876  -0.82698
 Alpha  occ. eigenvalues --   -0.82330  -0.81759  -0.81018  -0.80829  -0.80517
 Alpha  occ. eigenvalues --   -0.80116  -0.78776  -0.78485  -0.77497  -0.77496
 Alpha  occ. eigenvalues --   -0.77319  -0.76874  -0.76191  -0.76184  -0.75159
 Alpha  occ. eigenvalues --   -0.75090  -0.72712  -0.72228  -0.71816  -0.71694
 Alpha  occ. eigenvalues --   -0.69415  -0.69226  -0.68845  -0.68217  -0.68201
 Alpha  occ. eigenvalues --   -0.67612  -0.67347  -0.66929  -0.65873  -0.65819
 Alpha  occ. eigenvalues --   -0.65535  -0.65282  -0.64865  -0.64522  -0.64202
 Alpha  occ. eigenvalues --   -0.64195  -0.62609  -0.62403  -0.60948  -0.60405
 Alpha  occ. eigenvalues --   -0.60183  -0.59512  -0.58982  -0.58966  -0.58530
 Alpha  occ. eigenvalues --   -0.58497  -0.57849  -0.57781  -0.57641  -0.57530
 Alpha  occ. eigenvalues --   -0.56699  -0.56052  -0.55640  -0.55482  -0.55146
 Alpha  occ. eigenvalues --   -0.54974  -0.54726  -0.54307  -0.54180  -0.53840
 Alpha  occ. eigenvalues --   -0.53836  -0.53556  -0.53527  -0.53167  -0.52921
 Alpha  occ. eigenvalues --   -0.52910  -0.52641  -0.52598  -0.52565  -0.52182
 Alpha  occ. eigenvalues --   -0.52138  -0.51886  -0.51782  -0.51422  -0.51256
 Alpha  occ. eigenvalues --   -0.50579  -0.50516  -0.50449  -0.50247  -0.50074
 Alpha  occ. eigenvalues --   -0.50026  -0.49883  -0.49826  -0.49741  -0.49414
 Alpha  occ. eigenvalues --   -0.49399  -0.49101  -0.49063  -0.48934  -0.48710
 Alpha  occ. eigenvalues --   -0.48526  -0.48498  -0.48273  -0.48190  -0.48118
 Alpha  occ. eigenvalues --   -0.48033  -0.47807  -0.47651  -0.47433  -0.47432
 Alpha  occ. eigenvalues --   -0.46887  -0.46692  -0.46633  -0.46558  -0.46319
 Alpha  occ. eigenvalues --   -0.46307  -0.46088  -0.45937  -0.45837  -0.45581
 Alpha  occ. eigenvalues --   -0.45547  -0.45451  -0.45171  -0.45027  -0.44953
 Alpha  occ. eigenvalues --   -0.44657  -0.44655  -0.44564  -0.44386  -0.44375
 Alpha  occ. eigenvalues --   -0.44358  -0.44259  -0.44018  -0.43622  -0.43526
 Alpha  occ. eigenvalues --   -0.43220  -0.43195  -0.43060  -0.43046  -0.42812
 Alpha  occ. eigenvalues --   -0.42717  -0.42419  -0.42390  -0.41969  -0.41903
 Alpha  occ. eigenvalues --   -0.41782  -0.41646  -0.41641  -0.41407  -0.41261
 Alpha  occ. eigenvalues --   -0.41235  -0.41083  -0.40827  -0.40479  -0.40419
 Alpha  occ. eigenvalues --   -0.40276  -0.40071  -0.39842  -0.39720  -0.39513
 Alpha  occ. eigenvalues --   -0.38740  -0.38443  -0.38343  -0.37964  -0.37923
 Alpha  occ. eigenvalues --   -0.37297  -0.37238  -0.36906  -0.36669  -0.36628
 Alpha  occ. eigenvalues --   -0.36383  -0.35847  -0.35189  -0.34988  -0.34451
 Alpha  occ. eigenvalues --   -0.33443  -0.33091  -0.32885  -0.31921  -0.31782
 Alpha  occ. eigenvalues --   -0.31551  -0.31006  -0.30972  -0.30603  -0.30587
 Alpha  occ. eigenvalues --   -0.30314  -0.30029  -0.28716  -0.23982  -0.23916
 Alpha  occ. eigenvalues --   -0.21180  -0.21109
 Alpha virt. eigenvalues --   -0.08604  -0.08522  -0.01864  -0.01812  -0.00193
 Alpha virt. eigenvalues --   -0.00034   0.01715   0.02074   0.02693   0.03706
 Alpha virt. eigenvalues --    0.04722   0.04996   0.05240   0.05573   0.05765

 Mulliken charges:
               1
     1  Mg   0.832082
     2  C    0.053299
     3  C   -0.082078
     4  C   -0.070456
     5  C   -0.080601
     6  N   -0.209701
     7  C   -0.071923
     8  C    0.011117
     9  C   -0.072291
    10  C   -0.024571
    11  C    0.046705
    12  C    0.028495
    13  C   -0.068372
    14  H    0.028048
    15  N   -0.362197
    16  C    0.170277
    17  C   -0.116467
    18  C   -0.038000
    19  C    0.148188
    20  C    0.098568
    21  C    0.036635
    22  O   -0.200881
    23  C    0.053979
    24  N   -0.348540
    25  C   -0.000971
    26  C   -0.010935
    27  C   -0.014557
    28  C    0.090617
    29  C    0.058943
    30  C    0.000421
    31  C    0.009592
    32  N   -0.370102
    33  C    0.134146
    34  C   -0.185253
    35  C   -0.007954
    36  C    0.094274
    37  C    0.119445
    38  C    0.044313
    39  O   -0.191185
    40  C   -0.048585
    41  C    0.168006
    42  O   -0.239955
    43  O   -0.279002
    44  C    0.189685
    45  H   -0.020186
    46  H   -0.008661
    47  H   -0.032236
    48  H    0.036451
    49  H    0.020262
    50  H    0.030103
    51  H    0.017471
    52  H    0.014688
    53  H    0.014805
    54  H    0.008479
    55  H    0.040758
    56  H    0.030034
    57  H    0.032432
    58  H    0.010800
    59  H    0.024854
    60  H    0.019495
    61  H    0.028212
    62  H    0.034462
    63  H    0.027695
    64  H    0.006911
    65  H    0.037035
    66  H    0.003332
    67  H    0.012719
    68  H    0.013029
    69  H    0.007206
    70  H    0.015206
    71  H    0.020906
    72  H    0.005598
    73  H    0.033364
    74  H    0.038401
    75  H    0.005126
    76  H    0.046528
    77  H    0.033281
    78  H    0.033838
    79  H    0.035339
    80  Mg   0.856923
    81  C   -0.058762
    82  C   -0.109488
    83  C   -0.071366
    84  C   -0.087097
    85  N   -0.241845
    86  C   -0.014023
    87  C    0.014349
    88  C   -0.051387
    89  C   -0.006701
    90  C    0.052951
    91  C    0.064867
    92  C   -0.070547
    93  H    0.002353
    94  N   -0.342935
    95  C    0.211703
    96  C   -0.159433
    97  C   -0.006365
    98  C    0.104264
    99  C    0.108385
   100  C    0.005846
   101  O   -0.228210
   102  C    0.038022
   103  N   -0.379051
   104  C    0.084272
   105  C   -0.051041
   106  C   -0.001763
   107  C    0.029991
   108  C    0.063121
   109  C    0.044998
   110  C   -0.000571
   111  N   -0.392742
   112  C    0.133064
   113  C   -0.159675
   114  C   -0.023308
   115  C    0.156285
   116  C    0.124929
   117  C    0.083860
   118  O   -0.172872
   119  C   -0.034156
   120  C    0.197903
   121  O   -0.193154
   122  O   -0.339660
   123  C    0.167158
   124  H   -0.033804
   125  H   -0.010965
   126  H   -0.037282
   127  H    0.007760
   128  H    0.014696
   129  H    0.013025
   130  H    0.020405
   131  H    0.012804
   132  H    0.016752
   133  H    0.012020
   134  H    0.024826
   135  H    0.028568
   136  H    0.024944
   137  H    0.003796
   138  H    0.034970
   139  H    0.040245
   140  H    0.037969
   141  H    0.041737
   142  H    0.016604
   143  H    0.017678
   144  H    0.022085
   145  H    0.012470
   146  H    0.021731
   147  H    0.012897
   148  H    0.003424
   149  H    0.004427
   150  H    0.019165
   151  H    0.018497
   152  H    0.027714
   153  H    0.026017
   154  H    0.042298
   155  H    0.042770
   156  H    0.025700
   157  H    0.037262
   158  H    0.047701
 Sum of Mulliken charges =  -0.00000

 Dipole moment (field-independent basis, Debye):
    X=             -5.0029    Y=              1.0225    Z=              5.6434  Tot=              7.6107
 Quadrupole moment (field-independent basis, Debye-Ang):
   XX=           -692.8256   YY=           -488.4512   ZZ=           -510.5125
   XY=            -22.0116   XZ=            -42.7369   YZ=             54.2763

 Normal termination of Gaussian 16 at Thu Sep  2 22:39:42 2021.
