 Gaussian 16, Revision A.03,
 Gaussian 16:  ES64L-G16RevA.03 25-Dec-2016

 ----------------------------------------------------------
 #p cam-b3lyp/Def2SVP td=(nstates=5) density=(transition=1)
 ----------------------------------------------------------

 --------------------------------
 TDDFT excited states in gaussian
 --------------------------------
 Symbolic Z-matrix:
 Charge =  0 Multiplicity = 1

                         Standard orientation:
 ---------------------------------------------------------------------
 Center     Atomic      Atomic             Coordinates (Angstroms)
 Number     Number       Type             X           Y           Z
 ---------------------------------------------------------------------
      1         12           0       28.978661    0.185363   -0.125584
      2          6           0       26.013738   -1.625204   -0.111070
      3          6           0       27.005922    2.964316   -1.219782
      4          6           0       31.587409    2.143703    0.280150
      5          6           0       30.513621   -2.457362    1.611547
      6          7           0       26.754966    0.623840   -0.483668
      7          6           0       25.773397   -0.341691   -0.490751
      8          6           0       24.422279    0.283380   -0.848574
      9          6           0       24.855735    1.648529   -1.450830
     10          6           0       26.285258    1.799141   -1.001291
     11          6           0       24.755721    1.849053   -3.014019
     12          6           0       23.480985    0.418208    0.359647
     13          6           0       22.100563    0.856923    0.051239
     14          1           0       20.984064    0.512403    1.109460
     15          7           0       29.281168    2.296775   -0.414563
     16          6           0       28.364283    3.247118   -0.890242
     17          6           0       29.034407    4.515673   -0.959561
     18          6           0       30.347769    4.325785   -0.391111
     19          6           0       30.461663    2.843063   -0.167635
     20          6           0       28.324297    5.823064   -1.407187
     21          6           0       31.342048    5.475886   -0.202242
     22          8           0       31.134802    6.588768   -0.656725
     23          6           0       32.595060    5.225844    0.546709
     24          7           0       30.863462   -0.209869    0.622195
     25          6           0       31.774326    0.769222    0.635752
     26          6           0       33.068542    0.283615    1.405781
     27          6           0       32.751212   -1.178384    1.904842
     28          6           0       31.215804   -1.296196    1.384665
     29          6           0       34.431904    0.429155    0.680028
     30          6           0       32.841502   -1.248945    3.444280
     31          6           0       33.249737   -2.613456    4.012742
     32          7           0       28.450473   -1.699208    0.635302
     33          6           0       29.188191   -2.704383    1.195235
     34          6           0       28.341359   -3.898766    1.299161
     35          6           0       27.152255   -3.540497    0.722919
     36          6           0       27.216203   -2.205285    0.394643
     37          6           0       28.782101   -5.276078    1.805234
     38          6           0       25.833638   -4.008013    0.417448
     39          8           0       25.308323   -5.086835    0.542220
     40          6           0       25.041978   -2.783744   -0.152187
     41          6           0       24.691723   -3.094538   -1.565401
     42          8           0       25.426811   -3.497827   -2.423570
     43          8           0       23.360993   -2.702327   -1.791796
     44          6           0       22.887572   -2.861307   -3.137359
     45          1           0       26.341789    3.720630   -1.642209
     46          1           0       32.534240    2.661077    0.451057
     47          1           0       30.980118   -3.323703    2.085404
     48          1           0       24.019347   -0.325588   -1.656701
     49          1           0       24.368316    2.529169   -1.033967
     50          1           0       24.201053    2.780780   -3.123007
     51          1           0       24.547739    0.972422   -3.628090
     52          1           0       25.759948    2.102374   -3.353492
     53          1           0       23.761900    1.173867    1.093748
     54          1           0       23.444281   -0.524291    0.906062
     55          1           0       21.840755    0.413326   -0.909917
     56          1           0       22.104419    1.932794   -0.122788
     57          1           0       28.223187    6.264589   -0.415244
     58          1           0       27.294445    5.715067   -1.748148
     59          1           0       28.762895    6.538569   -2.102978
     60          1           0       32.271552    4.729969    1.461879
     61          1           0       33.025468    6.187558    0.826383
     62          1           0       33.170885    4.593779   -0.129772
     63          1           0       33.156546    0.946379    2.267116
     64          1           0       33.349346   -1.965332    1.446542
     65          1           0       34.972679    1.254975    1.143381
     66          1           0       34.245851    0.534799   -0.388253
     67          1           0       35.053589   -0.441688    0.887868
     68          1           0       31.849238   -0.964276    3.793320
     69          1           0       33.477390   -0.482755    3.888243
     70          1           0       34.139413   -2.375707    4.596890
     71          1           0       33.402590   -3.390274    3.263444
     72          1           0       32.498833   -2.968555    4.718644
     73          1           0       28.096418   -5.785889    2.481206
     74          1           0       29.737491   -5.043573    2.276227
     75          1           0       29.092719   -5.833199    0.921220
     76          1           0       24.149901   -2.683524    0.466199
     77          1           0       22.171740   -3.683057   -3.115046
     78          1           0       23.603407   -3.042794   -3.939432
     79          1           0       22.390620   -1.932507   -3.416174
     80         12           0      -28.671338    0.496353    0.455869
     81          6           0      -27.135605   -2.196029   -1.388697
     82          6           0      -27.794823    2.586673   -2.219876
     83          6           0      -30.168671    2.936525    2.063178
     84          6           0      -29.171743   -1.688000    3.139024
     85          7           0      -27.538051    0.164229   -1.589188
     86          6           0      -27.217190   -1.011440   -2.190935
     87          6           0      -26.896958   -0.827563   -3.665413
     88          6           0      -26.771020    0.787472   -3.841289
     89          6           0      -27.374323    1.217947   -2.473058
     90          6           0      -25.345549    1.301589   -4.163639
     91          6           0      -27.971222   -1.475206   -4.603014
     92          6           0      -27.394350   -2.514682   -5.598695
     93          1           0      -27.548869   -2.079297   -7.168110
     94          7           0      -28.940318    2.424005   -0.003536
     95          6           0      -28.497456    3.183240   -1.139137
     96          6           0      -28.913001    4.605178   -1.095112
     97          6           0      -29.648045    4.651289    0.134562
     98          6           0      -29.607423    3.323454    0.769849
     99          6           0      -28.561062    5.656211   -2.149836
    100          6           0      -30.279329    5.822111    0.786396
    101          8           0      -31.087952    5.777246    1.707196
    102          6           0      -30.014223    7.214139    0.180023
    103          7           0      -29.673346    0.540842    2.226191
    104          6           0      -30.194391    1.691520    2.709909
    105          6           0      -30.615117    1.586106    4.149424
    106          6           0      -30.355531    0.104551    4.517690
    107          6           0      -29.740926   -0.431804    3.205188
    108          6           0      -29.987199    2.611221    5.070290
    109          6           0      -31.764581   -0.660657    4.864245
    110          6           0      -31.818757   -1.421102    6.298489
    111          7           0      -28.016030   -1.466749    0.943702
    112          6           0      -28.392851   -2.233281    2.072719
    113          6           0      -27.886891   -3.596325    1.874585
    114          6           0      -27.532327   -3.617114    0.499982
    115          6           0      -27.513414   -2.302551    0.031429
    116          6           0      -27.813032   -4.765577    2.851943
    117          6           0      -26.875865   -4.497274   -0.507563
    118          8           0      -26.449344   -5.685261   -0.522112
    119          6           0      -26.727999   -3.598911   -1.795961
    120          6           0      -25.303660   -3.668143   -2.262121
    121          8           0      -24.351411   -3.591948   -1.538376
    122          8           0      -25.273834   -3.947661   -3.600188
    123          6           0      -23.926665   -4.365982   -4.063540
    124          1           0      -27.382685    3.216158   -3.011036
    125          1           0      -30.677449    3.705067    2.649298
    126          1           0      -29.351008   -2.397920    3.948873
    127          1           0      -25.906222   -1.257686   -3.812392
    128          1           0      -27.452479    1.179608   -4.596713
    129          1           0      -24.957447    1.908950   -3.345438
    130          1           0      -25.349678    1.882236   -5.087017
    131          1           0      -24.606602    0.536778   -4.402762
    132          1           0      -28.483022   -0.726302   -5.207975
    133          1           0      -28.733986   -2.006583   -4.033242
    134          1           0      -27.964348   -3.443745   -5.625596
    135          1           0      -26.376293   -2.842284   -5.390486
    136          1           0      -28.234292    5.291384   -3.124116
    137          1           0      -27.844153    6.414696   -1.835600
    138          1           0      -29.492471    6.195458   -2.325357
    139          1           0      -28.951218    7.451011    0.224055
    140          1           0      -30.611955    7.993670    0.653615
    141          1           0      -30.319447    7.184339   -0.865933
    142          1           0      -31.673491    1.843635    4.208193
    143          1           0      -29.626266    0.018840    5.322713
    144          1           0      -30.682570    3.383863    5.399435
    145          1           0      -29.188410    3.204649    4.625602
    146          1           0      -29.563031    2.079312    5.922161
    147          1           0      -32.053485   -1.410949    4.128967
    148          1           0      -32.614394    0.021031    4.887175
    149          1           0      -31.041794   -0.953368    6.903503
    150          1           0      -31.649073   -2.493738    6.196232
    151          1           0      -32.735449   -1.185557    6.838503
    152          1           0      -27.925194   -5.727560    2.352213
    153          1           0      -28.698765   -4.713202    3.486129
    154          1           0      -26.915241   -4.552186    3.432239
    155          1           0      -27.313749   -4.097359   -2.567910
    156          1           0      -23.224486   -3.589449   -3.760763
    157          1           0      -24.005439   -4.309596   -5.149116
    158          1           0      -23.507001   -5.305090   -3.703004
 ---------------------------------------------------------------------

 SCF Done:  E(RCAM-B3LYP) =  -4069.80678918     A.U. after   18 cycles

 Excitation energies and oscillator strengths:

 Excited State   1:      Singlet-A      1.6722 eV  741.46 nm  f=0.3699  <S**2>=0.000
     310 -> 316       -0.18802
     312 -> 314        0.68427
     310 <- 316       -0.11183
 This state for optimization and/or second-order correction.
 Total Energy, E(TD-HF/TD-DFT) =  -4069.74533837
 Copying the excited state density for this state as the 1-particle RhoCI density.

 Excited State   2:      Singlet-A      1.7655 eV  702.27 nm  f=0.3968  <S**2>=0.000
     309 -> 315       -0.17239
     311 -> 313        0.68748
     309 <- 315       -0.10345

 Excited State   3:      Singlet-A      2.1741 eV  570.29 nm  f=0.1342  <S**2>=0.000
     310 -> 314        0.64729
     312 -> 316        0.27760

 Excited State   4:      Singlet-A      2.2942 eV  540.42 nm  f=0.1178  <S**2>=0.000
     309 -> 313        0.63734
     311 -> 315        0.29069

 Excited State   5:      Singlet-A      3.1741 eV  390.62 nm  f=0.0000  <S**2>=0.000
     312 -> 313        0.70711

 The electronic state is 1-A.
 Alpha  occ. eigenvalues --  -46.89666 -46.88528 -19.25643 -19.24949 -19.20501
 Alpha  occ. eigenvalues --  -19.19742 -19.18951 -19.18697 -19.18682 -19.18532
 Alpha  occ. eigenvalues --  -14.42662 -14.42605 -14.42350 -14.41933 -14.40714
 Alpha  occ. eigenvalues --  -14.40232 -14.39248 -14.39100 -10.39510 -10.38816
 Alpha  occ. eigenvalues --  -10.35139 -10.35121 -10.34865 -10.34158 -10.32365
 Alpha  occ. eigenvalues --  -10.31922 -10.31826 -10.31598 -10.31575 -10.31486
 Alpha  occ. eigenvalues --  -10.31286 -10.31229 -10.31182 -10.31124 -10.31082
 Alpha  occ. eigenvalues --  -10.30864 -10.30797 -10.30665 -10.30567 -10.29977
 Alpha  occ. eigenvalues --  -10.29547 -10.29238 -10.29097 -10.29038 -10.28992
 Alpha  occ. eigenvalues --  -10.28904 -10.28626 -10.28593 -10.28529 -10.28449
 Alpha  occ. eigenvalues --  -10.28353 -10.28254 -10.28237 -10.28235 -10.28191
 Alpha  occ. eigenvalues --  -10.28174 -10.28080 -10.27959 -10.27908 -10.27827
 Alpha  occ. eigenvalues --  -10.27793 -10.27751 -10.27748 -10.27530 -10.27417
 Alpha  occ. eigenvalues --  -10.27325 -10.27237 -10.27142 -10.26926 -10.26804
 Alpha  occ. eigenvalues --  -10.26755 -10.26592 -10.26541 -10.26504 -10.26410
 Alpha  occ. eigenvalues --  -10.26245 -10.26122 -10.26108 -10.26082 -10.26063
 Alpha  occ. eigenvalues --  -10.26054 -10.25912 -10.25630 -10.25489 -10.25186
 Alpha  occ. eigenvalues --  -10.23989  -3.18087  -3.17172  -1.92994  -1.92545
 Alpha  occ. eigenvalues --   -1.92375  -1.92069  -1.91626  -1.91493  -1.16959
 Alpha  occ. eigenvalues --   -1.16624  -1.10342  -1.10123  -1.09966  -1.08834
 Alpha  occ. eigenvalues --   -1.08682  -1.07062  -1.04599  -1.03997  -1.03795
 Alpha  occ. eigenvalues --   -1.03727  -1.03264  -1.02829  -1.02581  -1.02013
 Alpha  occ. eigenvalues --   -0.93271  -0.91573  -0.89421  -0.89239  -0.88843
 Alpha  occ. eigenvalues --   -0.88639  -0.88494  -0.88125  -0.88098  -0.87411
 Alpha  occ. eigenvalues --   -0.86992  -0.86465  -0.85954  -0.85633  -0.85219
 Alpha  occ. eigenvalues --   -0.84053  -0.84019  -0.83169  -0.83168  -0.82592
 Alpha  occ. eigenvalues --   -0.81814  -0.81391  -0.81306  -0.80858  -0.80672
 Alpha  occ. eigenvalues --   -0.79757  -0.79093  -0.77766  -0.77357  -0.77118
 Alpha  occ. eigenvalues --   -0.77096  -0.76783  -0.76211  -0.76032  -0.75532
 Alpha  occ. eigenvalues --   -0.75224  -0.73252  -0.72554  -0.72052  -0.71416
 Alpha  occ. eigenvalues --   -0.69342  -0.69173  -0.69077  -0.68744  -0.67794
 Alpha  occ. eigenvalues --   -0.67591  -0.67088  -0.66772  -0.66104  -0.65918
 Alpha  occ. eigenvalues --   -0.65631  -0.65586  -0.64986  -0.64621  -0.64383
 Alpha  occ. eigenvalues --   -0.63994  -0.62703  -0.62364  -0.60799  -0.60246
 Alpha  occ. eigenvalues --   -0.59904  -0.59319  -0.59260  -0.58861  -0.58734
 Alpha  occ. eigenvalues --   -0.58465  -0.58345  -0.57955  -0.57579  -0.57135
 Alpha  occ. eigenvalues --   -0.56511  -0.56136  -0.55909  -0.55483  -0.55274
 Alpha  occ. eigenvalues --   -0.55060  -0.54935  -0.54494  -0.54395  -0.54032
 Alpha  occ. eigenvalues --   -0.53776  -0.53579  -0.53391  -0.53325  -0.53156
 Alpha  occ. eigenvalues --   -0.52665  -0.52652  -0.52560  -0.52153  -0.51912
 Alpha  occ. eigenvalues --   -0.51729  -0.51663  -0.51651  -0.51448  -0.51373
 Alpha  occ. eigenvalues --   -0.50848  -0.50845  -0.50743  -0.50458  -0.50372
 Alpha  occ. eigenvalues --   -0.50293  -0.50061  -0.49966  -0.49882  -0.49799
 Alpha  occ. eigenvalues --   -0.49425  -0.49323  -0.49207  -0.49053  -0.48865
 Alpha  occ. eigenvalues --   -0.48782  -0.48304  -0.48242  -0.48111  -0.48108
 Alpha  occ. eigenvalues --   -0.48004  -0.47562  -0.47546  -0.47465  -0.47386
 Alpha  occ. eigenvalues --   -0.47161  -0.47101  -0.47044  -0.46839  -0.46565
 Alpha  occ. eigenvalues --   -0.46473  -0.46409  -0.46199  -0.46154  -0.45942
 Alpha  occ. eigenvalues --   -0.45814  -0.45571  -0.45333  -0.45138  -0.44984
 Alpha  occ. eigenvalues --   -0.44811  -0.44771  -0.44681  -0.44372  -0.44173
 Alpha  occ. eigenvalues --   -0.44096  -0.43920  -0.43880  -0.43784  -0.43700
 Alpha  occ. eigenvalues --   -0.43324  -0.43316  -0.43243  -0.42963  -0.42858
 Alpha  occ. eigenvalues --   -0.42721  -0.42605  -0.42388  -0.42301  -0.42214
 Alpha  occ. eigenvalues --   -0.42040  -0.42033  -0.41868  -0.41546  -0.41541
 Alpha  occ. eigenvalues --   -0.41309  -0.40790  -0.40692  -0.40615  -0.40431
 Alpha  occ. eigenvalues --   -0.40270  -0.40176  -0.39925  -0.39720  -0.39376
 Alpha  occ. eigenvalues --   -0.38824  -0.38596  -0.38230  -0.38052  -0.37681
 Alpha  occ. eigenvalues --   -0.37486  -0.37337  -0.36913  -0.36525  -0.36376
 Alpha  occ. eigenvalues --   -0.36096  -0.35499  -0.35254  -0.34636  -0.34418
 Alpha  occ. eigenvalues --   -0.34252  -0.33729  -0.33016  -0.31770  -0.31631
 Alpha  occ. eigenvalues --   -0.31042  -0.30990  -0.30661  -0.30593  -0.30269
 Alpha  occ. eigenvalues --   -0.30129  -0.29953  -0.29381  -0.24674  -0.23903
 Alpha  occ. eigenvalues --   -0.21668  -0.21303
 Alpha virt. eigenvalues --   -0.09038  -0.08978  -0.01945  -0.01832   0.00134
 Alpha virt. eigenvalues --    0.00913   0.02025   0.02059   0.02723   0.03560
 Alpha virt. eigenvalues --    0.04231   0.04409   0.05218   0.05394   0.05702

 Mulliken charges:
               1
     1  Mg  12.000000
     2  C    6.000011
     3  C    5.999992
     4  C    5.999989
     5  C    6.000021
     6  N    7.000022
     7  C    5.999954
     8  C    6.000000
     9  C    5.999981
    10  C    6.000039
    11  C    5.999991
    12  C    6.000007
    13  C    6.000010
    14  H    0.999978
    15  N    6.999983
    16  C    6.000121
    17  C    5.999993
    18  C    6.000062
    19  C    6.000082
    20  C    5.999971
    21  C    6.000045
    22  O    8.000054
    23  C    5.999989
    24  N    6.999977
    25  C    6.000053
    26  C    5.999975
    27  C    6.000021
    28  C    5.999963
    29  C    5.999998
    30  C    6.000004
    31  C    6.000002
    32  N    7.000002
    33  C    5.999894
    34  C    5.999923
    35  C    6.000026
    36  C    5.999943
    37  C    6.000023
    38  C    5.999922
    39  O    7.999936
    40  C    6.000016
    41  C    5.999978
    42  O    7.999994
    43  O    7.999994
    44  C    6.000009
    45  H    1.000038
    46  H    1.000010
    47  H    0.999978
    48  H    0.999998
    49  H    1.000010
    50  H    1.000025
    51  H    1.000025
    52  H    1.000000
    53  H    0.999988
    54  H    1.000000
    55  H    0.999995
    56  H    1.000002
    57  H    1.000047
    58  H    1.000052
    59  H    1.000061
    60  H    1.000017
    61  H    1.000043
    62  H    1.000018
    63  H    1.000006
    64  H    0.999992
    65  H    1.000007
    66  H    0.999999
    67  H    1.000021
    68  H    0.999999
    69  H    0.999982
    70  H    0.999992
    71  H    0.999998
    72  H    0.999995
    73  H    0.999934
    74  H    0.999954
    75  H    0.999940
    76  H    0.999969
    77  H    0.999968
    78  H    0.999994
    79  H    0.999996
    80  Mg  12.004475
    81  C    5.971497
    82  C    6.006706
    83  C    6.034385
    84  C    5.988825
    85  N    6.982974
    86  C    6.036057
    87  C    5.989429
    88  C    6.012661
    89  C    5.968364
    90  C    6.002937
    91  C    5.998164
    92  C    5.997894
    93  H    1.007334
    94  N    7.006908
    95  C    5.960286
    96  C    5.975723
    97  C    5.985461
    98  C    5.967571
    99  C    6.004958
   100  C    5.988524
   101  O    7.968074
   102  C    6.004418
   103  N    7.007929
   104  C    5.959599
   105  C    6.010599
   106  C    5.987685
   107  C    6.031747
   108  C    6.000815
   109  C    5.994908
   110  C    5.999060
   111  N    6.995232
   112  C    6.046565
   113  C    6.030311
   114  C    6.004748
   115  C    6.033532
   116  C    6.000197
   117  C    6.009570
   118  O    8.031092
   119  C    6.004774
   120  C    6.006796
   121  O    8.000272
   122  O    8.001913
   123  C    5.997816
   124  H    0.986456
   125  H    0.998927
   126  H    1.012792
   127  H    0.997625
   128  H    0.998748
   129  H    1.000496
   130  H    0.996012
   131  H    0.985636
   132  H    1.009293
   133  H    0.994987
   134  H    0.996939
   135  H    0.998017
   136  H    0.983183
   137  H    0.979638
   138  H    0.983278
   139  H    0.992206
   140  H    0.984952
   141  H    0.994674
   142  H    1.001121
   143  H    1.003976
   144  H    1.002356
   145  H    1.005375
   146  H    0.989915
   147  H    0.998959
   148  H    1.012782
   149  H    1.004050
   150  H    0.997101
   151  H    1.006505
   152  H    1.015832
   153  H    1.017051
   154  H    1.017527
   155  H    1.004768
   156  H    1.004666
   157  H    1.005238
   158  H    1.000133
 Sum of Mulliken charges = 624.00000

 Dipole moment (field-independent basis, Debye):
    X=              1.2024    Y=            -10.2487    Z=              3.1901  Tot=             10.8009
 Quadrupole moment (field-independent basis, Debye-Ang):
   XX=            -67.4727   YY=            -11.6171   ZZ=              5.0526
   XY=            293.7722   XZ=            -91.1839   YZ=             -1.6406

 Normal termination of Gaussian 16 at Thu Sep 23 12:35:57 2021.
