 Gaussian 16, Revision A.03,
 Gaussian 16:  ES64L-G16RevA.03 25-Dec-2016

 -----------------------------------
 #p cam-b3lyp/Def2SVP td=(nstates=5)
 -----------------------------------

 --------------------------------
 TDDFT excited states in gaussian
 --------------------------------
 Symbolic Z-matrix:
 Charge =  0 Multiplicity = 1

                         Standard orientation:
 ---------------------------------------------------------------------
 Center     Atomic      Atomic             Coordinates (Angstroms)
 Number     Number       Type             X           Y           Z
 ---------------------------------------------------------------------
      1         12           0       14.719806   -0.204612    0.560685
      2          6           0       12.404243   -1.311595   -1.780660
      3          6           0       16.327527    1.470234   -2.163590
      4          6           0       16.689308    1.313349    2.710600
      5          6           0       12.572762   -1.331098    3.106064
      6          7           0       14.314516    0.132573   -1.672554
      7          6           0       13.336327   -0.525935   -2.383392
      8          6           0       13.401569   -0.129349   -3.860800
      9          6           0       14.812357    0.515240   -3.952507
     10          6           0       15.181999    0.770974   -2.515054
     11          6           0       15.964110   -0.290073   -4.672723
     12          6           0       12.266567    0.818606   -4.281706
     13          6           0       12.174003    1.103888   -5.731946
     14          1           0       10.782177    1.603225   -6.278371
     15          7           0       16.309741    1.227650    0.328712
     16          6           0       16.829589    1.761198   -0.860902
     17          6           0       17.914044    2.638468   -0.518181
     18          6           0       17.949973    2.714772    0.923000
     19          6           0       16.953512    1.689639    1.389418
     20          6           0       18.713956    3.446692   -1.576864
     21          6           0       18.919444    3.628450    1.679512
     22          8           0       19.814039    4.231729    1.110508
     23          6           0       18.770617    3.776050    3.145647
     24          7           0       14.744363   -0.232764    2.626226
     25          6           0       15.697181    0.447263    3.272891
     26          6           0       15.409441    0.420762    4.828608
     27          6           0       14.059063   -0.374650    5.004678
     28          6           0       13.714043   -0.638349    3.438356
     29          6           0       16.555212   -0.051027    5.762030
     30          6           0       12.997614    0.517906    5.682670
     31          6           0       11.956412   -0.229971    6.524259
     32          7           0       12.849470   -1.145170    0.724195
     33          6           0       12.165249   -1.651385    1.793642
     34          6           0       11.028926   -2.432110    1.289943
     35          6           0       11.150489   -2.394568   -0.073212
     36          6           0       12.203427   -1.566713   -0.390426
     37          6           0       10.036209   -3.231892    2.139775
     38          6           0       10.537385   -2.818096   -1.296061
     39          8           0        9.588295   -3.527654   -1.522198
     40          6           0       11.337591   -2.142266   -2.459232
     41          6           0       11.976671   -3.227328   -3.253376
     42          8           0       12.625595   -4.146265   -2.836361
     43          8           0       11.820353   -2.932143   -4.618791
     44          6           0       12.453505   -3.845036   -5.527464
     45          1           0       16.798285    1.861152   -3.067525
     46          1           0       17.271824    1.728618    3.536191
     47          1           0       11.919430   -1.756168    3.871034
     48          1           0       13.424871   -1.065168   -4.417545
     49          1           0       14.854544    1.506797   -4.401854
     50          1           0       16.370103    0.421160   -5.391727
     51          1           0       15.773757   -1.332617   -4.929022
     52          1           0       16.761906   -0.402786   -3.938759
     53          1           0       12.331940    1.834487   -3.891132
     54          1           0       11.310876    0.428895   -3.930989
     55          1           0       12.460396    0.187498   -6.247998
     56          1           0       12.940745    1.831846   -5.996488
     57          1           0       18.256824    4.416096   -1.375855
     58          1           0       18.459700    3.252224   -2.619001
     59          1           0       19.801105    3.527601   -1.577270
     60          1           0       17.712089    3.990851    3.292157
     61          1           0       19.332907    4.655138    3.460920
     62          1           0       19.092096    2.807779    3.530106
     63          1           0       15.252455    1.462435    5.109983
     64          1           0       14.147056   -1.329997    5.521069
     65          1           0       16.955286    0.825654    6.272407
     66          1           0       17.275087   -0.614206    5.169063
     67          1           0       16.145490   -0.660111    6.567762
     68          1           0       12.521082    1.053648    4.862090
     69          1           0       13.414301    1.326825    6.283106
     70          1           0       12.064069    0.230229    7.507063
     71          1           0       12.067086   -1.314410    6.525017
     72          1           0       10.950258    0.006320    6.177746
     73          1           0        8.984542   -3.140890    1.870104
     74          1           0       10.245370   -2.852525    3.140272
     75          1           0       10.436035   -4.244730    2.191222
     76          1           0       10.606737   -1.592463   -3.052373
     77          1           0       11.650691   -4.399638   -6.013357
     78          1           0       13.189157   -4.554790   -5.148330
     79          1           0       12.997987   -3.247252   -6.257917
     80         12           0      -14.384313    0.871002   -0.283214
     81          6           0      -14.309185   -2.589707    0.012990
     82          6           0      -11.041942    0.662717   -1.185903
     83          6           0      -14.286396    4.264745   -0.085312
     84          6           0      -17.666986    0.862382    0.803006
     85          7           0      -12.841758   -0.779133   -0.499536
     86          6           0      -13.037943   -2.145140   -0.364812
     87          6           0      -11.722489   -2.999406   -0.548340
     88          6           0      -10.655645   -1.838573   -0.611488
     89          6           0      -11.547017   -0.548439   -0.737412
     90          6           0       -9.640736   -1.635584    0.517343
     91          6           0      -11.823364   -3.903304   -1.790685
     92          6           0      -12.000566   -5.379802   -1.552542
     93          1           0      -11.278491   -6.330536   -2.523768
     94          7           0      -12.967205    2.304830   -0.767542
     95          6           0      -11.714319    1.976311   -1.182306
     96          6           0      -11.021229    3.262031   -1.394306
     97          6           0      -11.872826    4.305025   -0.997903
     98          6           0      -13.084665    3.693972   -0.610730
     99          6           0       -9.700062    3.312738   -2.048012
    100          6           0      -11.625168    5.783550   -0.930313
    101          8           0      -12.523166    6.627656   -0.657006
    102          6           0      -10.346283    6.388058   -1.133998
    103          7           0      -15.761035    2.319805    0.186316
    104          6           0      -15.507425    3.656981    0.172696
    105          6           0      -16.665374    4.483518    0.573498
    106          6           0      -17.789255    3.410992    0.806751
    107          6           0      -17.020972    2.152796    0.650225
    108          6           0      -16.618361    5.507894    1.745238
    109          6           0      -19.101876    3.576242   -0.107664
    110          6           0      -19.208824    3.005332   -1.552919
    111          7           0      -15.745186   -0.508649    0.337167
    112          6           0      -17.051161   -0.378329    0.712910
    113          6           0      -17.649687   -1.636765    0.819277
    114          6           0      -16.535920   -2.542262    0.628556
    115          6           0      -15.418297   -1.795849    0.312362
    116          6           0      -19.121865   -1.960364    1.067086
    117          6           0      -16.242173   -3.941145    0.504748
    118          8           0      -16.907717   -4.956655    0.516445
    119          6           0      -14.685772   -4.015809    0.321267
    120          6           0      -14.057879   -4.517198    1.559823
    121          8           0      -13.314883   -3.870906    2.330872
    122          8           0      -14.363582   -5.797442    1.864101
    123          6           0      -13.610310   -6.502293    2.956833
    124          1           0       -9.975205    0.595288   -1.406602
    125          1           0      -14.308909    5.350264    0.032881
    126          1           0      -18.740781    0.768687    0.980883
    127          1           0      -11.406225   -3.471379    0.382475
    128          1           0      -10.124408   -1.984773   -1.551923
    129          1           0       -9.866603   -0.720874    1.065936
    130          1           0       -8.696989   -1.390225    0.032503
    131          1           0       -9.539922   -2.467764    1.214915
    132          1           0      -10.861939   -3.797171   -2.294543
    133          1           0      -12.582396   -3.486081   -2.452420
    134          1           0      -13.067620   -5.594084   -1.617908
    135          1           0      -11.734482   -5.731118   -0.555510
    136          1           0       -9.866047    3.876887   -2.964867
    137          1           0       -9.184320    2.384270   -2.296457
    138          1           0       -9.005642    3.873504   -1.422427
    139          1           0       -9.646581    5.771158   -0.570737
    140          1           0      -10.392133    7.461489   -0.954893
    141          1           0      -10.003276    6.245730   -2.158817
    142          1           0      -16.820631    5.023748   -0.359934
    143          1           0      -18.100534    3.438017    1.850346
    144          1           0      -16.732064    6.534357    1.396494
    145          1           0      -15.655777    5.477369    2.256852
    146          1           0      -17.347701    5.303503    2.528985
    147          1           0      -19.164614    4.659261   -0.215782
    148          1           0      -19.866314    3.211051    0.578337
    149          1           0      -18.395854    2.346314   -1.856581
    150          1           0      -19.451163    3.724803   -2.335569
    151          1           0      -20.128083    2.421761   -1.524884
    152          1           0      -19.258092   -2.589575    1.947276
    153          1           0      -19.473032   -2.551873    0.221725
    154          1           0      -19.777421   -1.089974    1.105326
    155          1           0      -14.482666   -4.814432   -0.392417
    156          1           0      -13.922843   -7.513758    2.696911
    157          1           0      -13.887171   -6.212993    3.970082
    158          1           0      -12.540182   -6.332971    2.833471
 ---------------------------------------------------------------------

 SCF Done:  E(RCAM-B3LYP) =  -4069.81975943     A.U. after   18 cycles

 Excitation energies and oscillator strengths:

 Excited State   1:      Singlet-A      1.7035 eV  727.81 nm  f=0.3978  <S**2>=0.000
     310 -> 316        0.17718
     312 -> 314        0.68470
     310 <- 316        0.10750
 This state for optimization and/or second-order correction.
 Total Energy, E(TD-HF/TD-DFT) =  -4069.75715565
 Copying the excited state density for this state as the 1-particle RhoCI density.

 Excited State   2:      Singlet-A      1.7658 eV  702.16 nm  f=0.3876  <S**2>=0.000
     309 -> 315        0.17235
     311 -> 313        0.68742
     309 <- 315        0.10342

 Excited State   3:      Singlet-A      2.2074 eV  561.68 nm  f=0.1417  <S**2>=0.000
     310 -> 314        0.65104
     312 -> 316       -0.26099

 Excited State   4:      Singlet-A      2.2943 eV  540.40 nm  f=0.1175  <S**2>=0.000
     309 -> 313        0.63736
     311 -> 315       -0.29065

 Excited State   5:      Singlet-A      2.9402 eV  421.68 nm  f=0.0000  <S**2>=0.000
     312 -> 313        0.70707

 The electronic state is 1-A.
 Alpha  occ. eigenvalues --  -46.89716 -46.87488 -19.25006 -19.24020 -19.20557
 Alpha  occ. eigenvalues --  -19.18740 -19.18590 -19.18215 -19.18183 -19.17915
 Alpha  occ. eigenvalues --  -14.42711 -14.42400 -14.41962 -14.41818 -14.40281
 Alpha  occ. eigenvalues --  -14.39491 -14.39151 -14.38318 -10.39566 -10.38495
 Alpha  occ. eigenvalues --  -10.34908 -10.34480 -10.34216 -10.34137 -10.32415
 Alpha  occ. eigenvalues --  -10.31968 -10.31649 -10.31285 -10.31234 -10.31176
 Alpha  occ. eigenvalues --  -10.31130 -10.30913 -10.30765 -10.30619 -10.30551
 Alpha  occ. eigenvalues --  -10.30422 -10.30085 -10.29985 -10.29596 -10.29288
 Alpha  occ. eigenvalues --  -10.28847 -10.28654 -10.28516 -10.28404 -10.28325
 Alpha  occ. eigenvalues --  -10.28308 -10.28281 -10.28251 -10.28237 -10.28226
 Alpha  occ. eigenvalues --  -10.28096 -10.27960 -10.27842 -10.27804 -10.27800
 Alpha  occ. eigenvalues --  -10.27784 -10.27690 -10.27619 -10.27578 -10.27469
 Alpha  occ. eigenvalues --  -10.27343 -10.27213 -10.27209 -10.27111 -10.27058
 Alpha  occ. eigenvalues --  -10.26976 -10.26854 -10.26850 -10.26835 -10.26708
 Alpha  occ. eigenvalues --  -10.26656 -10.26583 -10.26549 -10.26469 -10.26292
 Alpha  occ. eigenvalues --  -10.26279 -10.26123 -10.26120 -10.25941 -10.25883
 Alpha  occ. eigenvalues --  -10.25850 -10.25688 -10.25677 -10.25629 -10.24569
 Alpha  occ. eigenvalues --  -10.24041  -3.18137  -3.16204  -1.93044  -1.92595
 Alpha  occ. eigenvalues --   -1.92425  -1.91114  -1.90663  -1.90508  -1.16680
 Alpha  occ. eigenvalues --   -1.15089  -1.10400  -1.10166  -1.09484  -1.08890
 Alpha  occ. eigenvalues --   -1.07913  -1.05086  -1.04797  -1.04649  -1.04045
 Alpha  occ. eigenvalues --   -1.03845  -1.03777  -1.03194  -1.02879  -1.02186
 Alpha  occ. eigenvalues --   -0.93324  -0.93039  -0.89475  -0.89288  -0.88982
 Alpha  occ. eigenvalues --   -0.88891  -0.88410  -0.88260  -0.88148  -0.87534
 Alpha  occ. eigenvalues --   -0.86963  -0.86515  -0.86057  -0.86004  -0.85269
 Alpha  occ. eigenvalues --   -0.84331  -0.84101  -0.83604  -0.83220  -0.82765
 Alpha  occ. eigenvalues --   -0.82639  -0.82422  -0.81358  -0.80944  -0.80910
 Alpha  occ. eigenvalues --   -0.80502  -0.78513  -0.77817  -0.77471  -0.77408
 Alpha  occ. eigenvalues --   -0.77167  -0.76816  -0.76263  -0.76166  -0.75580
 Alpha  occ. eigenvalues --   -0.75254  -0.73304  -0.73071  -0.72102  -0.71291
 Alpha  occ. eigenvalues --   -0.70068  -0.69394  -0.69125  -0.68724  -0.67954
 Alpha  occ. eigenvalues --   -0.67847  -0.67057  -0.66823  -0.66152  -0.65638
 Alpha  occ. eigenvalues --   -0.65158  -0.65041  -0.65036  -0.64672  -0.64567
 Alpha  occ. eigenvalues --   -0.64321  -0.62757  -0.61446  -0.60294  -0.59955
 Alpha  occ. eigenvalues --   -0.59919  -0.59597  -0.59371  -0.59105  -0.58916
 Alpha  occ. eigenvalues --   -0.58549  -0.58514  -0.57750  -0.57629  -0.57263
 Alpha  occ. eigenvalues --   -0.56560  -0.56128  -0.55962  -0.55595  -0.55533
 Alpha  occ. eigenvalues --   -0.54987  -0.54853  -0.54447  -0.54402  -0.54083
 Alpha  occ. eigenvalues --   -0.53777  -0.53629  -0.53373  -0.53206  -0.53204
 Alpha  occ. eigenvalues --   -0.52868  -0.52705  -0.52480  -0.52395  -0.52035
 Alpha  occ. eigenvalues --   -0.51965  -0.51840  -0.51776  -0.51711  -0.51021
 Alpha  occ. eigenvalues --   -0.50895  -0.50794  -0.50793  -0.50421  -0.50345
 Alpha  occ. eigenvalues --   -0.50305  -0.50123  -0.49937  -0.49718  -0.49595
 Alpha  occ. eigenvalues --   -0.49384  -0.49374  -0.49105  -0.48912  -0.48898
 Alpha  occ. eigenvalues --   -0.48765  -0.48434  -0.48355  -0.48157  -0.48149
 Alpha  occ. eigenvalues --   -0.47877  -0.47724  -0.47594  -0.47434  -0.47211
 Alpha  occ. eigenvalues --   -0.47186  -0.47149  -0.46711  -0.46521  -0.46462
 Alpha  occ. eigenvalues --   -0.46453  -0.46209  -0.46204  -0.45943  -0.45864
 Alpha  occ. eigenvalues --   -0.45663  -0.45383  -0.45360  -0.45218  -0.45190
 Alpha  occ. eigenvalues --   -0.45132  -0.44758  -0.44731  -0.44227  -0.44201
 Alpha  occ. eigenvalues --   -0.43970  -0.43938  -0.43771  -0.43749  -0.43747
 Alpha  occ. eigenvalues --   -0.43379  -0.43372  -0.43291  -0.43012  -0.42848
 Alpha  occ. eigenvalues --   -0.42774  -0.42721  -0.42442  -0.42416  -0.42351
 Alpha  occ. eigenvalues --   -0.42085  -0.41920  -0.41596  -0.41557  -0.41436
 Alpha  occ. eigenvalues --   -0.41080  -0.40750  -0.40663  -0.40322  -0.40285
 Alpha  occ. eigenvalues --   -0.39983  -0.39941  -0.39768  -0.39663  -0.38873
 Alpha  occ. eigenvalues --   -0.38872  -0.38160  -0.38104  -0.37768  -0.37732
 Alpha  occ. eigenvalues --   -0.36971  -0.36867  -0.36581  -0.36462  -0.36342
 Alpha  occ. eigenvalues --   -0.36146  -0.35556  -0.35309  -0.34302  -0.34262
 Alpha  occ. eigenvalues --   -0.33780  -0.33146  -0.32835  -0.31821  -0.31086
 Alpha  occ. eigenvalues --   -0.30951  -0.30719  -0.30575  -0.30181  -0.30002
 Alpha  occ. eigenvalues --   -0.29990  -0.29852  -0.29276  -0.24724  -0.23597
 Alpha  occ. eigenvalues --   -0.21719  -0.21068
 Alpha virt. eigenvalues --   -0.09087  -0.08647  -0.01994  -0.01266   0.00729
 Alpha virt. eigenvalues --    0.00862   0.01978   0.02404   0.02672   0.03609
 Alpha virt. eigenvalues --    0.04350   0.05104   0.05338   0.05690   0.05764

 Mulliken charges:
               1
     1  Mg   0.819453
     2  C    0.006781
     3  C   -0.063037
     4  C   -0.089703
     5  C   -0.063115
     6  N   -0.264055
     7  C   -0.106177
     8  C    0.076805
     9  C   -0.101789
    10  C    0.006211
    11  C    0.083453
    12  C    0.079441
    13  C   -0.054054
    14  H    0.024929
    15  N   -0.352407
    16  C    0.164067
    17  C   -0.119906
    18  C   -0.079676
    19  C    0.210365
    20  C    0.108898
    21  C   -0.024704
    22  O   -0.198756
    23  C    0.067340
    24  N   -0.318212
    25  C    0.038815
    26  C   -0.072160
    27  C   -0.045992
    28  C    0.073357
    29  C    0.071513
    30  C    0.009604
    31  C    0.015625
    32  N   -0.337711
    33  C    0.071532
    34  C   -0.220017
    35  C    0.070790
    36  C    0.099120
    37  C    0.148638
    38  C    0.009687
    39  O   -0.147832
    40  C   -0.000567
    41  C    0.189443
    42  O   -0.181680
    43  O   -0.348381
    44  C    0.164095
    45  H   -0.030980
    46  H   -0.042562
    47  H   -0.031358
    48  H   -0.002951
    49  H    0.005806
    50  H    0.021167
    51  H    0.026191
    52  H    0.008208
    53  H    0.004389
    54  H    0.011673
    55  H    0.014348
    56  H    0.018056
    57  H    0.035827
    58  H   -0.003317
    59  H    0.050556
    60  H    0.031090
    61  H    0.030948
    62  H    0.058579
    63  H    0.015130
    64  H    0.017565
    65  H    0.014378
    66  H    0.028301
    67  H    0.012929
    68  H    0.008869
    69  H    0.006556
    70  H    0.015448
    71  H    0.022941
    72  H    0.016304
    73  H    0.047724
    74  H   -0.016006
    75  H    0.035077
    76  H    0.041991
    77  H    0.038341
    78  H    0.044982
    79  H    0.023772
    80  Mg   0.841957
    81  C   -0.018337
    82  C   -0.053840
    83  C   -0.067894
    84  C   -0.096754
    85  N   -0.267824
    86  C   -0.058743
    87  C   -0.002121
    88  C   -0.086437
    89  C    0.002161
    90  C    0.086043
    91  C    0.098613
    92  C   -0.086537
    93  H    0.020687
    94  N   -0.397021
    95  C    0.159440
    96  C   -0.172336
    97  C    0.028736
    98  C    0.105227
    99  C    0.104998
   100  C   -0.012485
   101  O   -0.250343
   102  C    0.087505
   103  N   -0.298733
   104  C    0.055484
   105  C   -0.041428
   106  C   -0.007349
   107  C    0.040312
   108  C    0.076575
   109  C    0.015289
   110  C    0.012110
   111  N   -0.356454
   112  C    0.119062
   113  C   -0.160457
   114  C   -0.009452
   115  C    0.183560
   116  C    0.132507
   117  C    0.018576
   118  O   -0.153203
   119  C   -0.051948
   120  C    0.191723
   121  O   -0.263438
   122  O   -0.324274
   123  C    0.186494
   124  H   -0.033834
   125  H   -0.005214
   126  H   -0.038869
   127  H    0.013832
   128  H    0.000996
   129  H    0.026110
   130  H    0.010716
   131  H    0.030014
   132  H    0.012129
   133  H    0.021575
   134  H    0.043619
   135  H    0.030184
   136  H    0.034864
   137  H    0.020101
   138  H    0.013980
   139  H    0.022553
   140  H    0.040228
   141  H    0.021431
   142  H    0.020210
   143  H    0.009349
   144  H    0.022299
   145  H    0.017747
   146  H    0.015117
   147  H    0.010461
   148  H    0.016408
   149  H    0.036144
   150  H    0.017541
   151  H    0.007400
   152  H    0.037915
   153  H    0.031008
   154  H    0.003066
   155  H    0.027459
   156  H    0.047672
   157  H    0.049020
   158  H    0.037117
 Sum of Mulliken charges =  -0.00000

 Dipole moment (field-independent basis, Debye):
    X=              4.1737    Y=              2.5874    Z=              0.3798  Tot=              4.9253
 Quadrupole moment (field-independent basis, Debye-Ang):
   XX=           -532.6051   YY=           -551.0270   ZZ=           -466.6339
   XY=            -38.7915   XZ=             21.4946   YZ=             -5.9857

 Normal termination of Gaussian 16 at Thu Sep 16 11:00:00 2021.
