 Gaussian 16, Revision A.03,
 Gaussian 16:  ES64L-G16RevA.03 25-Dec-2016

 ----------------------------------------------------------
 #p cam-b3lyp/Def2SVP td=(nstates=5) density=(transition=1)
 ----------------------------------------------------------

 --------------------------------
 TDDFT excited states in gaussian
 --------------------------------
 Symbolic Z-matrix:
 Charge =  0 Multiplicity = 1

                         Standard orientation:
 ---------------------------------------------------------------------
 Center     Atomic      Atomic             Coordinates (Angstroms)
 Number     Number       Type             X           Y           Z
 ---------------------------------------------------------------------
      1         12           0       10.767762    0.612430   -0.137075
      2          6           0       10.786256   -2.756609    0.352038
      3          6           0        7.586288    0.654849    1.243383
      4          6           0       10.907470    3.964410   -0.268634
      5          6           0       14.205989    0.539274   -0.884749
      6          7           0        9.455990   -0.872604    0.942693
      7          6           0        9.704161   -2.197641    0.950813
      8          6           0        8.683353   -2.963543    1.710234
      9          6           0        7.448875   -1.865565    1.655375
     10          6           0        8.190089   -0.574289    1.249502
     11          6           0        6.299156   -2.295760    0.697214
     12          6           0        9.177158   -3.212810    3.126491
     13          6           0        9.625682   -1.970783    4.027563
     14          1           0        9.270255   -1.924260    5.508409
     15          7           0        9.449179    2.101960    0.405265
     16          6           0        8.110958    1.919870    0.836872
     17          6           0        7.490822    3.202621    0.825379
     18          6           0        8.401112    4.184090    0.453310
     19          6           0        9.648108    3.471276    0.128540
     20          6           0        6.029952    3.290223    1.217775
     21          6           0        8.193594    5.679805    0.452345
     22          8           0        7.057994    6.071134    0.820434
     23          6           0        9.205507    6.667200    0.278797
     24          7           0       12.411778    2.043927   -0.313935
     25          6           0       12.172829    3.383809   -0.402953
     26          6           0       13.480948    4.171534   -0.653979
     27          6           0       14.533121    3.028195   -0.848130
     28          6           0       13.693588    1.787111   -0.596543
     29          6           0       13.391281    5.137199   -1.816306
     30          6           0       15.780595    3.199610    0.172636
     31          6           0       17.148592    2.918757   -0.459572
     32          7           0       12.304465   -0.811888   -0.276261
     33          6           0       13.567276   -0.752588   -0.772682
     34          6           0       13.996320   -2.107951   -0.986659
     35          6           0       12.934480   -2.999223   -0.605053
     36          6           0       11.942606   -2.143143   -0.155873
     37          6           0       15.394662   -2.531589   -1.280665
     38          6           0       12.489192   -4.339836   -0.398857
     39          8           0       13.144624   -5.348201   -0.690349
     40          6           0       11.092440   -4.227739    0.183714
     41          6           0       10.147263   -4.930621   -0.717613
     42          8           0       10.333263   -6.104060   -0.973375
     43          8           0        9.079586   -4.184531   -1.113838
     44          6           0        8.127082   -4.875089   -1.985493
     45          1           0        6.507574    0.638754    1.411727
     46          1           0       10.862851    5.022994   -0.532305
     47          1           0       15.216388    0.420789   -1.282429
     48          1           0        8.384683   -3.940700    1.330547
     49          1           0        6.910308   -1.839125    2.603554
     50          1           0        5.361186   -2.361290    1.247381
     51          1           0        6.544994   -3.296240    0.340270
     52          1           0        6.170389   -1.655717   -0.176601
     53          1           0        9.955846   -3.973071    3.061888
     54          1           0        8.368378   -3.810728    3.546402
     55          1           0        9.269096   -0.994541    3.698819
     56          1           0       10.711245   -2.057353    3.991347
     57          1           0        6.027131    3.355287    2.305990
     58          1           0        5.532339    2.364200    0.932460
     59          1           0        5.462436    4.118534    0.792536
     60          1           0        8.972759    7.585350    0.819100
     61          1           0        9.482385    6.830596   -0.763509
     62          1           0       10.060182    6.284398    0.834905
     63          1           0       13.639883    4.689858    0.292278
     64          1           0       14.824355    2.979201   -1.897183
     65          1           0       12.393885    5.221862   -2.246914
     66          1           0       14.109072    5.105042   -2.635523
     67          1           0       13.464177    6.105670   -1.320621
     68          1           0       15.721697    2.559625    1.053068
     69          1           0       15.802480    4.188798    0.629596
     70          1           0       17.664907    3.870595   -0.581179
     71          1           0       16.985065    2.541628   -1.469318
     72          1           0       17.762818    2.243719    0.136575
     73          1           0       15.799478   -2.287025   -2.261972
     74          1           0       15.402185   -3.611176   -1.125882
     75          1           0       16.112688   -2.080216   -0.595889
     76          1           0       11.123633   -4.743240    1.144048
     77          1           0        7.774159   -5.760530   -1.456000
     78          1           0        8.531258   -5.109787   -2.970336
     79          1           0        7.320999   -4.203823   -2.281328
     80         12           0      -11.305435    0.286325   -0.389470
     81          6           0       -8.690824   -2.048981   -0.024440
     82          6           0      -13.419369   -2.171958    0.466548
     83          6           0      -13.565955    2.643216   -0.264062
     84          6           0       -8.752149    2.780711   -0.560464
     85          7           0      -11.048031   -1.855057    0.200003
     86          6           0       -9.942350   -2.636738    0.213614
     87          6           0      -10.226562   -4.087210    0.547308
     88          6           0      -11.802604   -4.095618    0.417104
     89          6           0      -12.165900   -2.625952    0.368880
     90          6           0      -12.364528   -4.883578   -0.837368
     91          6           0       -9.742111   -4.744504    1.912650
     92          6           0       -9.271984   -3.875922    3.109587
     93          1           0       -9.565512   -4.403148    4.563768
     94          7           0      -13.293035    0.164849   -0.073049
     95          6           0      -13.971180   -0.886336    0.367572
     96          6           0      -15.374482   -0.473930    0.642943
     97          6           0      -15.443399    0.962273    0.250865
     98          6           0      -14.051035    1.308426   -0.036240
     99          6           0      -16.474999   -1.428548    1.020383
    100          6           0      -16.672380    1.831625    0.304494
    101          8           0      -17.742586    1.319975    0.624156
    102          6           0      -16.705139    3.382852    0.044200
    103          7           0      -11.178989    2.504616   -0.298319
    104          6           0      -12.303554    3.120908   -0.419404
    105          6           0      -11.979346    4.666550   -0.631566
    106          6           0      -10.457972    4.663647   -0.468508
    107          6           0      -10.073602    3.197487   -0.417917
    108          6           0      -12.461816    5.364041   -1.914336
    109          6           0       -9.955542    5.281869    0.937222
    110          6           0       -9.163744    6.600284    0.863114
    111          7           0       -9.189849    0.428558   -0.253987
    112          6           0       -8.303269    1.452281   -0.460124
    113          6           0       -6.923727    0.925255   -0.624934
    114          6           0       -6.993839   -0.466249   -0.332530
    115          6           0       -8.433838   -0.695654   -0.229062
    116          6           0       -5.630150    1.744537   -0.831220
    117          6           0       -6.293209   -1.694048   -0.154061
    118          8           0       -5.093114   -2.002007   -0.054806
    119          6           0       -7.369411   -2.801382   -0.020545
    120          6           0       -7.125431   -3.795400   -1.159719
    121          8           0       -6.665961   -4.906103   -1.188924
    122          8           0       -7.746265   -3.287103   -2.305894
    123          6           0       -7.745317   -4.143021   -3.532782
    124          1           0      -14.083446   -2.989465    0.755546
    125          1           0      -14.364219    3.389299   -0.252192
    126          1           0       -8.013026    3.520428   -0.873910
    127          1           0       -9.825106   -4.645434   -0.298264
    128          1           0      -12.231948   -4.586404    1.290663
    129          1           0      -11.551293   -5.258392   -1.457965
    130          1           0      -12.807929   -4.075016   -1.417476
    131          1           0      -13.058324   -5.655919   -0.504841
    132          1           0       -8.940833   -5.438164    1.657587
    133          1           0      -10.534107   -5.392045    2.290385
    134          1           0       -9.772238   -2.915235    2.987203
    135          1           0       -8.188799   -3.802641    3.201758
    136          1           0      -17.471313   -0.998854    0.918488
    137          1           0      -16.217359   -1.816620    2.006551
    138          1           0      -16.309513   -2.282208    0.362305
    139          1           0      -16.279419    3.811028   -0.864069
    140          1           0      -16.117949    3.866159    0.825055
    141          1           0      -17.720444    3.778237    0.054117
    142          1           0      -12.460533    5.281714    0.128035
    143          1           0       -9.848514    5.192263   -1.202292
    144          1           0      -13.023947    4.686939   -2.557685
    145          1           0      -11.636811    5.828469   -2.455537
    146          1           0      -13.169051    6.172532   -1.729212
    147          1           0       -9.293729    4.596834    1.465387
    148          1           0      -10.858493    5.416860    1.533062
    149          1           0       -8.392541    6.728625    1.623042
    150          1           0       -9.899441    7.383443    1.045969
    151          1           0       -8.726434    6.571844   -0.134984
    152          1           0       -5.726905    2.814182   -0.648116
    153          1           0       -5.386143    1.588509   -1.881751
    154          1           0       -4.835672    1.274685   -0.251966
    155          1           0       -7.249148   -3.307234    0.936878
    156          1           0       -6.911845   -4.827172   -3.690525
    157          1           0       -7.673934   -3.414896   -4.340547
    158          1           0       -8.642588   -4.715629   -3.768449
 ---------------------------------------------------------------------

 SCF Done:  E(RCAM-B3LYP) =  -4069.79344003     A.U. after   18 cycles

 Excitation energies and oscillator strengths:

 Excited State   1:      Singlet-A      1.7408 eV  712.23 nm  f=0.4764  <S**2>=0.000
     310 -> 316        0.17435
     311 -> 314        0.10686
     312 -> 313        0.67696
     310 <- 316        0.10244
 This state for optimization and/or second-order correction.
 Total Energy, E(TD-HF/TD-DFT) =  -4069.72946713
 Copying the excited state density for this state as the 1-particle RhoCI density.

 Excited State   2:      Singlet-A      1.7688 eV  700.94 nm  f=0.3409  <S**2>=0.000
     309 -> 315        0.18299
     311 -> 314        0.67540
     312 -> 313       -0.10641
     309 <- 315        0.10510

 Excited State   3:      Singlet-A      2.2173 eV  559.17 nm  f=0.1271  <S**2>=0.000
     310 -> 313        0.65049
     312 -> 316       -0.25293

 Excited State   4:      Singlet-A      2.2830 eV  543.07 nm  f=0.0991  <S**2>=0.000
     309 -> 314        0.63718
     311 -> 315       -0.29607

 Excited State   5:      Singlet-A      2.9828 eV  415.67 nm  f=0.0000  <S**2>=0.000
     311 -> 313        0.70703

 The electronic state is 1-A.
 Alpha  occ. eigenvalues --  -46.90132 -46.89019 -19.26265 -19.24688 -19.20508
 Alpha  occ. eigenvalues --  -19.19553 -19.19359 -19.18656 -19.18187 -19.18099
 Alpha  occ. eigenvalues --  -14.42380 -14.41994 -14.41964 -14.41902 -14.40503
 Alpha  occ. eigenvalues --  -14.40227 -14.39702 -14.38517 -10.39970 -10.39350
 Alpha  occ. eigenvalues --  -10.35777 -10.35661 -10.34775 -10.34356 -10.32596
 Alpha  occ. eigenvalues --  -10.31958 -10.31600 -10.31587 -10.31180 -10.31135
 Alpha  occ. eigenvalues --  -10.31089 -10.31080 -10.30836 -10.30791 -10.30440
 Alpha  occ. eigenvalues --  -10.30294 -10.30245 -10.30175 -10.30168 -10.30110
 Alpha  occ. eigenvalues --  -10.29934 -10.29474 -10.29115 -10.29051 -10.28932
 Alpha  occ. eigenvalues --  -10.28865 -10.28819 -10.28457 -10.28394 -10.28311
 Alpha  occ. eigenvalues --  -10.28197 -10.28195 -10.28116 -10.28084 -10.27962
 Alpha  occ. eigenvalues --  -10.27892 -10.27889 -10.27673 -10.27644 -10.27632
 Alpha  occ. eigenvalues --  -10.27436 -10.27317 -10.27309 -10.27260 -10.27260
 Alpha  occ. eigenvalues --  -10.27210 -10.27152 -10.27105 -10.27080 -10.26938
 Alpha  occ. eigenvalues --  -10.26905 -10.26688 -10.26648 -10.26619 -10.26493
 Alpha  occ. eigenvalues --  -10.26422 -10.26418 -10.26408 -10.26227 -10.26154
 Alpha  occ. eigenvalues --  -10.25824 -10.25568 -10.25460 -10.25436 -10.24897
 Alpha  occ. eigenvalues --  -10.24463  -3.18610  -3.17472  -1.93499  -1.93065
 Alpha  occ. eigenvalues --   -1.92913  -1.92348  -1.91947  -1.91754  -1.17292
 Alpha  occ. eigenvalues --   -1.16150  -1.09625  -1.09419  -1.08946  -1.08337
 Alpha  occ. eigenvalues --   -1.07887  -1.07370  -1.06806  -1.04891  -1.04883
 Alpha  occ. eigenvalues --   -1.04460  -1.04078  -1.03369  -1.02642  -1.01429
 Alpha  occ. eigenvalues --   -0.93974  -0.93658  -0.89868  -0.89191  -0.88980
 Alpha  occ. eigenvalues --   -0.88884  -0.88682  -0.88643  -0.88362  -0.87681
 Alpha  occ. eigenvalues --   -0.86973  -0.86244  -0.85768  -0.85473  -0.85013
 Alpha  occ. eigenvalues --   -0.84960  -0.84051  -0.84011  -0.83272  -0.82966
 Alpha  occ. eigenvalues --   -0.82694  -0.81859  -0.81354  -0.80883  -0.80798
 Alpha  occ. eigenvalues --   -0.80609  -0.78583  -0.78530  -0.77903  -0.77781
 Alpha  occ. eigenvalues --   -0.77096  -0.76985  -0.76758  -0.76048  -0.75433
 Alpha  occ. eigenvalues --   -0.74862  -0.73389  -0.72464  -0.72425  -0.72025
 Alpha  occ. eigenvalues --   -0.70029  -0.69637  -0.69338  -0.69048  -0.68768
 Alpha  occ. eigenvalues --   -0.68740  -0.67591  -0.67050  -0.66914  -0.66489
 Alpha  occ. eigenvalues --   -0.65763  -0.65580  -0.65240  -0.65107  -0.64944
 Alpha  occ. eigenvalues --   -0.64277  -0.63724  -0.63246  -0.60670  -0.60268
 Alpha  occ. eigenvalues --   -0.60156  -0.59632  -0.59531  -0.59255  -0.58715
 Alpha  occ. eigenvalues --   -0.58619  -0.58290  -0.58154  -0.57937  -0.57394
 Alpha  occ. eigenvalues --   -0.56739  -0.56507  -0.56436  -0.55949  -0.55768
 Alpha  occ. eigenvalues --   -0.55711  -0.55143  -0.55068  -0.54610  -0.54406
 Alpha  occ. eigenvalues --   -0.54150  -0.54012  -0.53681  -0.53650  -0.53428
 Alpha  occ. eigenvalues --   -0.53071  -0.52984  -0.52892  -0.52400  -0.52086
 Alpha  occ. eigenvalues --   -0.51833  -0.51809  -0.51740  -0.51613  -0.51329
 Alpha  occ. eigenvalues --   -0.51317  -0.51172  -0.50994  -0.50848  -0.50674
 Alpha  occ. eigenvalues --   -0.50243  -0.50083  -0.49867  -0.49563  -0.49519
 Alpha  occ. eigenvalues --   -0.49385  -0.49097  -0.49019  -0.48949  -0.48650
 Alpha  occ. eigenvalues --   -0.48617  -0.48598  -0.48583  -0.48369  -0.48368
 Alpha  occ. eigenvalues --   -0.48024  -0.47963  -0.47695  -0.47538  -0.47496
 Alpha  occ. eigenvalues --   -0.47306  -0.47009  -0.47002  -0.46715  -0.46638
 Alpha  occ. eigenvalues --   -0.46345  -0.46339  -0.46326  -0.46164  -0.45972
 Alpha  occ. eigenvalues --   -0.45971  -0.45655  -0.45605  -0.45545  -0.45423
 Alpha  occ. eigenvalues --   -0.45124  -0.44934  -0.44762  -0.44573  -0.44527
 Alpha  occ. eigenvalues --   -0.44438  -0.44270  -0.43986  -0.43651  -0.43649
 Alpha  occ. eigenvalues --   -0.43434  -0.43362  -0.43197  -0.42740  -0.42707
 Alpha  occ. eigenvalues --   -0.42353  -0.42341  -0.42237  -0.42151  -0.42132
 Alpha  occ. eigenvalues --   -0.42081  -0.41822  -0.41703  -0.41529  -0.41300
 Alpha  occ. eigenvalues --   -0.41190  -0.41024  -0.40987  -0.40861  -0.40740
 Alpha  occ. eigenvalues --   -0.40401  -0.40024  -0.39466  -0.39292  -0.39123
 Alpha  occ. eigenvalues --   -0.38914  -0.38561  -0.38274  -0.37736  -0.37725
 Alpha  occ. eigenvalues --   -0.37576  -0.37423  -0.36963  -0.36784  -0.36751
 Alpha  occ. eigenvalues --   -0.36389  -0.35864  -0.35099  -0.34587  -0.34329
 Alpha  occ. eigenvalues --   -0.33899  -0.33714  -0.33013  -0.31983  -0.31688
 Alpha  occ. eigenvalues --   -0.31497  -0.31119  -0.31022  -0.30817  -0.30350
 Alpha  occ. eigenvalues --   -0.30017  -0.29332  -0.28901  -0.24558  -0.24207
 Alpha  occ. eigenvalues --   -0.21597  -0.21578
 Alpha virt. eigenvalues --   -0.09053  -0.08981  -0.02095  -0.01798  -0.00693
 Alpha virt. eigenvalues --    0.00239   0.01121   0.01433   0.01804   0.02098
 Alpha virt. eigenvalues --    0.04235   0.04881   0.05098   0.05378   0.05617

 Mulliken charges:
               1
     1  Mg  12.002002
     2  C    5.986947
     3  C    6.020882
     4  C    6.017860
     5  C    5.980412
     6  N    6.998434
     7  C    6.030147
     8  C    5.985262
     9  C    6.013994
    10  C    5.969848
    11  C    6.003066
    12  C    5.993447
    13  C    5.997773
    14  H    1.007208
    15  N    7.011127
    16  C    5.949547
    17  C    5.981598
    18  C    5.991052
    19  C    5.954821
    20  C    6.004144
    21  C    5.986430
    22  O    7.978335
    23  C    6.005783
    24  N    6.995087
    25  C    5.969635
    26  C    6.009548
    27  C    5.988459
    28  C    6.032580
    29  C    6.000463
    30  C    5.996781
    31  C    5.998784
    32  N    6.997149
    33  C    6.039022
    34  C    6.033673
    35  C    6.002655
    36  C    6.031100
    37  C    5.996004
    38  C    6.016310
    39  O    8.029045
    40  C    6.001727
    41  C    6.005125
    42  O    8.004060
    43  O    8.000022
    44  C    5.997723
    45  H    0.990837
    46  H    0.991798
    47  H    1.004273
    48  H    1.000893
    49  H    0.996353
    50  H    0.998684
    51  H    0.985801
    52  H    1.002811
    53  H    0.993740
    54  H    1.008592
    55  H    1.015273
    56  H    0.991956
    57  H    0.978936
    58  H    0.980897
    59  H    0.983566
    60  H    0.986906
    61  H    0.988123
    62  H    0.992710
    63  H    0.999211
    64  H    1.000106
    65  H    1.003913
    66  H    0.989906
    67  H    0.999489
    68  H    0.999037
    69  H    1.010246
    70  H    1.005257
    71  H    0.997786
    72  H    0.997674
    73  H    1.025490
    74  H    1.013958
    75  H    1.025109
    76  H    1.009355
    77  H    1.004498
    78  H    1.001989
    79  H    1.009759
    80  Mg  11.999100
    81  C    5.997040
    82  C    6.003226
    83  C    6.003791
    84  C    5.996858
    85  N    7.000105
    86  C    6.004982
    87  C    5.998064
    88  C    6.001639
    89  C    5.995558
    90  C    6.000278
    91  C    6.000297
    92  C    5.998759
    93  H    1.001332
    94  N    7.001715
    95  C    5.991977
    96  C    5.995281
    97  C    5.998990
    98  C    5.992662
    99  C    6.000373
   100  C    5.998390
   101  O    7.996952
   102  C    6.000427
   103  N    6.999635
   104  C    5.995503
   105  C    6.001267
   106  C    5.999148
   107  C    6.005247
   108  C    6.000140
   109  C    5.998764
   110  C    5.999968
   111  N    6.999341
   112  C    6.006448
   113  C    6.004895
   114  C    6.001435
   115  C    6.004411
   116  C    5.999905
   117  C    6.002709
   118  O    8.005832
   119  C    5.999860
   120  C    6.000331
   121  O    8.001046
   122  O    7.999620
   123  C    5.999632
   124  H    0.998348
   125  H    0.998651
   126  H    1.001650
   127  H    1.000055
   128  H    0.999570
   129  H    0.997568
   130  H    1.000769
   131  H    0.999427
   132  H    0.999534
   133  H    1.001255
   134  H    1.000750
   135  H    0.999431
   136  H    0.997216
   137  H    0.996270
   138  H    0.996326
   139  H    0.998192
   140  H    0.998497
   141  H    0.997843
   142  H    0.999928
   143  H    1.000111
   144  H    1.000340
   145  H    0.998543
   146  H    0.999847
   147  H    0.999635
   148  H    1.002029
   149  H    1.000603
   150  H    1.000822
   151  H    1.000101
   152  H    1.003754
   153  H    1.003213
   154  H    1.003324
   155  H    1.001519
   156  H    1.000269
   157  H    1.000437
   158  H    1.001243
 Sum of Mulliken charges = 624.00000

 Dipole moment (field-independent basis, Debye):
    X=              8.6660    Y=             -8.1322    Z=             -1.7584  Tot=             12.0135
 Quadrupole moment (field-independent basis, Debye-Ang):
   XX=            106.6799   YY=             -8.1433   ZZ=              1.3445
   XY=            -83.8895   XZ=            -15.6067   YZ=              0.4941

 Normal termination of Gaussian 16 at Wed Sep 22 18:54:17 2021.
