 Gaussian 16, Revision A.03,
 Gaussian 16:  ES64L-G16RevA.03 25-Dec-2016

 ----------------------------------------------------------
 #p cam-b3lyp/Def2SVP td=(nstates=5) density=(transition=1)
 ----------------------------------------------------------

 --------------------------------
 TDDFT excited states in gaussian
 --------------------------------
 Symbolic Z-matrix:
 Charge =  0 Multiplicity = 1

                         Standard orientation:
 ---------------------------------------------------------------------
 Center     Atomic      Atomic             Coordinates (Angstroms)
 Number     Number       Type             X           Y           Z
 ---------------------------------------------------------------------
      1         12           0      -29.326958    0.379348    0.386528
      2          6           0      -27.845675   -2.023474   -1.632536
      3          6           0      -29.099884    2.637966   -2.107705
      4          6           0      -30.599203    2.655022    2.485952
      5          6           0      -29.371066   -1.989750    2.964785
      6          7           0      -28.561396    0.228812   -1.657178
      7          6           0      -28.103926   -0.820294   -2.297764
      8          6           0      -27.789478   -0.368698   -3.797982
      9          6           0      -27.496373    1.091241   -3.523891
     10          6           0      -28.489720    1.385601   -2.355156
     11          6           0      -25.997224    1.286841   -3.210838
     12          6           0      -28.961423   -0.813386   -4.774739
     13          6           0      -28.571494   -0.868485   -6.255040
     14          1           0      -27.235391   -0.285827   -6.682267
     15          7           0      -29.943440    2.293574    0.164630
     16          6           0      -29.826579    3.041426   -1.004642
     17          6           0      -30.596806    4.306050   -0.808088
     18          6           0      -31.001312    4.359519    0.593353
     19          6           0      -30.428311    3.092396    1.120135
     20          6           0      -30.801459    5.319070   -1.909512
     21          6           0      -31.871689    5.428984    1.401410
     22          8           0      -32.196927    5.294168    2.585864
     23          6           0      -32.319505    6.653973    0.631689
     24          7           0      -29.785315    0.377804    2.404389
     25          6           0      -30.280295    1.427653    3.054429
     26          6           0      -30.442539    1.170154    4.584358
     27          6           0      -30.277247   -0.355978    4.618065
     28          6           0      -29.835935   -0.721735    3.235766
     29          6           0      -29.440401    1.946743    5.483423
     30          6           0      -31.454657   -1.232999    5.237234
     31          6           0      -32.347009   -1.958349    4.284442
     32          7           0      -28.560590   -1.534371    0.732169
     33          6           0      -28.704609   -2.385986    1.775204
     34          6           0      -28.087628   -3.645753    1.557816
     35          6           0      -27.718979   -3.563500    0.178166
     36          6           0      -28.046457   -2.285086   -0.212138
     37          6           0      -27.823308   -4.848109    2.426547
     38          6           0      -27.149698   -4.233041   -0.953223
     39          8           0      -26.696047   -5.348500   -1.091920
     40          6           0      -27.336611   -3.345144   -2.224666
     41          6           0      -26.059357   -3.229392   -2.934839
     42          8           0      -25.070869   -2.722556   -2.426522
     43          8           0      -26.028900   -3.914836   -4.176217
     44          6           0      -24.733653   -3.929396   -4.874024
     45          1           0      -28.948025    3.355659   -2.915221
     46          1           0      -30.973024    3.431601    3.155360
     47          1           0      -29.356780   -2.684903    3.806404
     48          1           0      -26.924003   -0.913650   -4.172503
     49          1           0      -27.799208    1.768258   -4.322272
     50          1           0      -25.658370    1.864351   -4.071592
     51          1           0      -25.449896    0.345792   -3.142317
     52          1           0      -25.957989    1.939291   -2.338840
     53          1           0      -29.800839   -0.122517   -4.691199
     54          1           0      -29.195050   -1.837150   -4.481531
     55          1           0      -29.369594   -0.369794   -6.804130
     56          1           0      -28.607106   -1.917076   -6.549470
     57          1           0      -30.882155    4.836937   -2.884418
     58          1           0      -30.061332    6.113733   -1.997670
     59          1           0      -31.769113    5.797454   -1.758934
     60          1           0      -31.394321    7.030075    0.195657
     61          1           0      -32.719067    7.457746    1.249396
     62          1           0      -33.089975    6.376672   -0.087930
     63          1           0      -31.434200    1.458461    4.932715
     64          1           0      -29.352856   -0.532236    5.166882
     65          1           0      -29.114150    1.223521    6.231221
     66          1           0      -29.807326    2.851817    5.964992
     67          1           0      -28.629679    2.300843    4.846622
     68          1           0      -32.013162   -0.611659    5.937408
     69          1           0      -31.019439   -2.056522    5.802900
     70          1           0      -32.155656   -3.024512    4.408302
     71          1           0      -32.105467   -1.856271    3.225735
     72          1           0      -33.412700   -1.813815    4.462300
     73          1           0      -28.107905   -4.680875    3.465961
     74          1           0      -26.789343   -5.164750    2.286553
     75          1           0      -28.430846   -5.732099    2.231554
     76          1           0      -28.073274   -3.766681   -2.908065
     77          1           0      -24.765233   -4.303764   -5.896935
     78          1           0      -24.124861   -4.580682   -4.246298
     79          1           0      -24.348420   -2.914283   -4.785375
     80         12           0       29.202464    0.618405   -0.480055
     81          6           0       27.948066   -2.592513    0.501219
     82          6           0       26.002597    1.915666    0.292627
     83          6           0       30.512919    3.703507   -0.638617
     84          6           0       32.377037   -0.735668   -0.524251
     85          7           0       27.171266   -0.229917    0.303733
     86          6           0       27.000358   -1.544906    0.635052
     87          6           0       25.693262   -1.714031    1.393171
     88          6           0       25.027928   -0.320899    1.029991
     89          6           0       26.092499    0.565704    0.505930
     90          6           0       23.824423   -0.340258    0.028769
     91          6           0       25.980885   -2.062975    2.888715
     92          6           0       25.162468   -3.216948    3.600979
     93          1           0       24.277345   -2.886131    4.816087
     94          7           0       28.403165    2.483422   -0.408228
     95          6           0       27.065248    2.840251   -0.094176
     96          6           0       26.890199    4.278507   -0.177447
     97          6           0       28.225898    4.788015   -0.443664
     98          6           0       29.095519    3.628677   -0.513188
     99          6           0       25.605476    4.923132    0.138957
    100          6           0       28.525048    6.286341   -0.624999
    101          8           0       27.557790    7.078188   -0.426863
    102          6           0       29.890072    6.885917   -1.024380
    103          7           0       31.211521    1.479492   -0.308109
    104          6           0       31.490445    2.740169   -0.578701
    105          6           0       32.974559    2.914611   -0.550196
    106          6           0       33.527263    1.464397   -0.573006
    107          6           0       32.287901    0.648540   -0.368708
    108          6           0       33.686056    3.836976   -1.630150
    109          6           0       34.667289    1.142940    0.525145
    110          6           0       36.090887    0.788247    0.030159
    111          7           0       30.003902   -1.248150   -0.301168
    112          6           0       31.284763   -1.652420   -0.340529
    113          6           0       31.395396   -3.051998   -0.148636
    114          6           0       30.091063   -3.460062    0.139906
    115          6           0       29.262712   -2.310926    0.080036
    116          6           0       32.564497   -3.950300   -0.215775
    117          6           0       29.356311   -4.632101    0.503955
    118          8           0       29.774414   -5.748638    0.713914
    119          6           0       27.831641   -4.062099    0.816013
    120          6           0       26.862166   -4.722359   -0.066273
    121          8           0       27.018323   -4.935197   -1.275335
    122          8           0       25.760919   -5.018085    0.708531
    123          6           0       24.653567   -5.692295    0.032872
    124          1           0       25.037501    2.375548    0.510654
    125          1           0       31.005534    4.676630   -0.592674
    126          1           0       33.315835   -1.245258   -0.751846
    127          1           0       25.119545   -2.463283    0.847066
    128          1           0       24.815203    0.009548    2.047357
    129          1           0       24.085047    0.314566   -0.803956
    130          1           0       22.892831    0.045216    0.442483
    131          1           0       23.617500   -1.302269   -0.441073
    132          1           0       25.735209   -1.102810    3.341849
    133          1           0       27.023922   -2.251216    3.142159
    134          1           0       25.913588   -3.958258    3.873087
    135          1           0       24.610823   -3.760662    2.834663
    136          1           0       25.310688    4.550515    1.120237
    137          1           0       24.836783    4.579321   -0.552834
    138          1           0       25.542191    6.007767    0.047586
    139          1           0       30.562144    6.786865   -0.171806
    140          1           0       29.633562    7.829287   -1.505292
    141          1           0       30.216739    6.220826   -1.824493
    142          1           0       33.209915    3.407692    0.392168
    143          1           0       33.775778    1.339807   -1.627036
    144          1           0       34.576975    4.206704   -1.121924
    145          1           0       32.992161    4.625296   -1.921555
    146          1           0       33.965935    3.183433   -2.456560
    147          1           0       34.239379    0.324109    1.103277
    148          1           0       34.675917    1.969081    1.236023
    149          1           0       36.487990   -0.112202    0.496877
    150          1           0       36.749246    1.632841    0.235162
    151          1           0       36.164486    0.681883   -1.052300
    152          1           0       32.267529   -4.990936   -0.342201
    153          1           0       32.963666   -3.739171    0.776458
    154          1           0       33.316314   -3.475989   -0.846443
    155          1           0       27.603593   -4.103962    1.880466
    156          1           0       24.990167   -6.574448   -0.512218
    157          1           0       24.152498   -4.994434   -0.639582
    158          1           0       23.941275   -6.030606    0.785429
 ---------------------------------------------------------------------

 SCF Done:  E(RCAM-B3LYP) =  -4069.80139295     A.U. after   17 cycles

 Excitation energies and oscillator strengths:

 Excited State   1:      Singlet-A      1.6989 eV  729.78 nm  f=0.3871  <S**2>=0.000
     309 -> 315       -0.18531
     312 -> 313        0.68537
     309 <- 315       -0.11148
 This state for optimization and/or second-order correction.
 Total Energy, E(TD-HF/TD-DFT) =  -4069.73895826
 Copying the excited state density for this state as the 1-particle RhoCI density.

 Excited State   2:      Singlet-A      1.7356 eV  714.37 nm  f=0.3951  <S**2>=0.000
     310 -> 316        0.17782
     311 -> 314        0.68647
     310 <- 316        0.10692

 Excited State   3:      Singlet-A      2.2152 eV  559.69 nm  f=0.1505  <S**2>=0.000
     310 -> 314        0.65503
     311 -> 316       -0.25742

 Excited State   4:      Singlet-A      2.2522 eV  550.50 nm  f=0.1328  <S**2>=0.000
     309 -> 313        0.64094
     312 -> 315        0.28918

 Excited State   5:      Singlet-A      3.2324 eV  383.56 nm  f=0.0000  <S**2>=0.000
     311 -> 313        0.70711

 The electronic state is 1-A.
 Alpha  occ. eigenvalues --  -46.88906 -46.87770 -19.26274 -19.23919 -19.20559
 Alpha  occ. eigenvalues --  -19.20483 -19.19740 -19.19493 -19.18132 -19.17908
 Alpha  occ. eigenvalues --  -14.42018 -14.41933 -14.41465 -14.41400 -14.40116
 Alpha  occ. eigenvalues --  -14.39932 -14.39826 -14.38638 -10.40096 -10.38880
 Alpha  occ. eigenvalues --  -10.37241 -10.35448 -10.35245 -10.34112 -10.32451
 Alpha  occ. eigenvalues --  -10.31336 -10.31190 -10.31143 -10.31070 -10.31003
 Alpha  occ. eigenvalues --  -10.30774 -10.30636 -10.30597 -10.30461 -10.30399
 Alpha  occ. eigenvalues --  -10.30327 -10.30313 -10.30309 -10.29857 -10.29756
 Alpha  occ. eigenvalues --  -10.29081 -10.29020 -10.28946 -10.28826 -10.28731
 Alpha  occ. eigenvalues --  -10.28676 -10.28561 -10.28125 -10.28102 -10.28101
 Alpha  occ. eigenvalues --  -10.27963 -10.27955 -10.27777 -10.27634 -10.27624
 Alpha  occ. eigenvalues --  -10.27596 -10.27592 -10.27555 -10.27518 -10.27487
 Alpha  occ. eigenvalues --  -10.27470 -10.27453 -10.27298 -10.27247 -10.27232
 Alpha  occ. eigenvalues --  -10.27198 -10.27168 -10.27068 -10.26996 -10.26786
 Alpha  occ. eigenvalues --  -10.26768 -10.26677 -10.26435 -10.26404 -10.26336
 Alpha  occ. eigenvalues --  -10.26234 -10.26075 -10.25899 -10.25769 -10.25748
 Alpha  occ. eigenvalues --  -10.25676 -10.25585 -10.25047 -10.24561 -10.24527
 Alpha  occ. eigenvalues --  -10.24188  -3.17460  -3.16535  -1.92350  -1.91904
 Alpha  occ. eigenvalues --   -1.91777  -1.91446  -1.90955  -1.90882  -1.16544
 Alpha  occ. eigenvalues --   -1.14504  -1.10821  -1.10490  -1.09581  -1.08169
 Alpha  occ. eigenvalues --   -1.07242  -1.06750  -1.05590  -1.05452  -1.04733
 Alpha  occ. eigenvalues --   -1.04725  -1.04154  -1.03742  -1.03168  -1.02339
 Alpha  occ. eigenvalues --   -0.93181  -0.92137  -0.89326  -0.89214  -0.88586
 Alpha  occ. eigenvalues --   -0.88291  -0.88284  -0.88132  -0.87972  -0.87474
 Alpha  occ. eigenvalues --   -0.87301  -0.87126  -0.86267  -0.86006  -0.84636
 Alpha  occ. eigenvalues --   -0.84339  -0.83859  -0.83671  -0.82768  -0.82728
 Alpha  occ. eigenvalues --   -0.82572  -0.82017  -0.81366  -0.80959  -0.80485
 Alpha  occ. eigenvalues --   -0.80075  -0.78593  -0.78222  -0.77647  -0.77248
 Alpha  occ. eigenvalues --   -0.76878  -0.76669  -0.76299  -0.75865  -0.75345
 Alpha  occ. eigenvalues --   -0.75077  -0.73196  -0.72823  -0.72214  -0.71183
 Alpha  occ. eigenvalues --   -0.69813  -0.69387  -0.69257  -0.68758  -0.68483
 Alpha  occ. eigenvalues --   -0.67937  -0.66750  -0.66622  -0.66155  -0.65635
 Alpha  occ. eigenvalues --   -0.65118  -0.65059  -0.64765  -0.64671  -0.64196
 Alpha  occ. eigenvalues --   -0.64009  -0.62959  -0.61256  -0.60641  -0.60144
 Alpha  occ. eigenvalues --   -0.59903  -0.59594  -0.59546  -0.59135  -0.58917
 Alpha  occ. eigenvalues --   -0.58431  -0.58022  -0.57986  -0.57626  -0.57594
 Alpha  occ. eigenvalues --   -0.56239  -0.55984  -0.55806  -0.55677  -0.55649
 Alpha  occ. eigenvalues --   -0.55445  -0.54861  -0.54794  -0.54504  -0.53996
 Alpha  occ. eigenvalues --   -0.53694  -0.53694  -0.53364  -0.53293  -0.53002
 Alpha  occ. eigenvalues --   -0.52937  -0.52666  -0.52634  -0.52342  -0.52142
 Alpha  occ. eigenvalues --   -0.52096  -0.51804  -0.51766  -0.51414  -0.51228
 Alpha  occ. eigenvalues --   -0.51216  -0.50730  -0.50699  -0.50581  -0.50351
 Alpha  occ. eigenvalues --   -0.50338  -0.50029  -0.49971  -0.49896  -0.49566
 Alpha  occ. eigenvalues --   -0.49510  -0.49408  -0.49240  -0.49012  -0.48814
 Alpha  occ. eigenvalues --   -0.48787  -0.48551  -0.48504  -0.48464  -0.47937
 Alpha  occ. eigenvalues --   -0.47761  -0.47743  -0.47654  -0.47592  -0.47450
 Alpha  occ. eigenvalues --   -0.47383  -0.47031  -0.46882  -0.46645  -0.46460
 Alpha  occ. eigenvalues --   -0.46453  -0.46296  -0.46126  -0.46027  -0.45934
 Alpha  occ. eigenvalues --   -0.45792  -0.45621  -0.45577  -0.45374  -0.44981
 Alpha  occ. eigenvalues --   -0.44950  -0.44649  -0.44538  -0.44331  -0.44015
 Alpha  occ. eigenvalues --   -0.43951  -0.43775  -0.43656  -0.43557  -0.43450
 Alpha  occ. eigenvalues --   -0.43326  -0.43275  -0.43228  -0.43084  -0.42983
 Alpha  occ. eigenvalues --   -0.42945  -0.42807  -0.42483  -0.42323  -0.42072
 Alpha  occ. eigenvalues --   -0.41799  -0.41525  -0.41413  -0.41228  -0.41104
 Alpha  occ. eigenvalues --   -0.41032  -0.40977  -0.40852  -0.40530  -0.40333
 Alpha  occ. eigenvalues --   -0.40228  -0.40223  -0.39979  -0.39191  -0.38925
 Alpha  occ. eigenvalues --   -0.38744  -0.38247  -0.38198  -0.38061  -0.37721
 Alpha  occ. eigenvalues --   -0.37637  -0.37571  -0.36627  -0.36445  -0.36155
 Alpha  occ. eigenvalues --   -0.35851  -0.35630  -0.35187  -0.34444  -0.34111
 Alpha  occ. eigenvalues --   -0.33942  -0.33256  -0.33016  -0.32199  -0.31329
 Alpha  occ. eigenvalues --   -0.31157  -0.31124  -0.30511  -0.30332  -0.30186
 Alpha  occ. eigenvalues --   -0.30108  -0.29565  -0.29368  -0.24169  -0.23900
 Alpha  occ. eigenvalues --   -0.21396  -0.21311
 Alpha virt. eigenvalues --   -0.08927  -0.08840  -0.01730  -0.01260  -0.00021
 Alpha virt. eigenvalues --    0.00284   0.02300   0.02427   0.02469   0.03501
 Alpha virt. eigenvalues --    0.04250   0.04790   0.05011   0.05320   0.05832

 Mulliken charges:
               1
     1  Mg  12.000008
     2  C    5.999966
     3  C    6.000033
     4  C    6.000074
     5  C    6.000013
     6  N    6.999952
     7  C    6.000086
     8  C    5.999987
     9  C    6.000017
    10  C    5.999896
    11  C    6.000001
    12  C    5.999980
    13  C    6.000004
    14  H    0.999994
    15  N    6.999988
    16  C    5.999839
    17  C    5.999931
    18  C    5.999927
    19  C    5.999884
    20  C    6.000031
    21  C    5.999935
    22  O    7.999898
    23  C    6.000028
    24  N    7.000040
    25  C    5.999907
    26  C    6.000038
    27  C    5.999961
    28  C    6.000049
    29  C    6.000004
    30  C    5.999996
    31  C    5.999979
    32  N    7.000045
    33  C    6.000116
    34  C    6.000119
    35  C    6.000014
    36  C    6.000096
    37  C    5.999952
    38  C    6.000050
    39  O    8.000131
    40  C    5.999993
    41  C    6.000033
    42  O    8.000002
    43  O    8.000007
    44  C    5.999996
    45  H    0.999941
    46  H    0.999985
    47  H    1.000055
    48  H    0.999988
    49  H    0.999999
    50  H    0.999968
    51  H    0.999940
    52  H    0.999997
    53  H    1.000053
    54  H    0.999984
    55  H    1.000019
    56  H    1.000001
    57  H    0.999939
    58  H    0.999897
    59  H    0.999944
    60  H    0.999966
    61  H    0.999940
    62  H    0.999975
    63  H    1.000008
    64  H    1.000006
    65  H    0.999961
    66  H    1.000004
    67  H    0.999990
    68  H    1.000043
    69  H    1.000006
    70  H    1.000006
    71  H    0.999990
    72  H    1.000049
    73  H    1.000080
    74  H    1.000077
    75  H    1.000111
    76  H    1.000039
    77  H    1.000028
    78  H    1.000008
    79  H    1.000004
    80  Mg  11.999962
    81  C    6.021208
    82  C    5.974415
    83  C    5.976767
    84  C    6.027000
    85  N    6.995623
    86  C    5.969055
    87  C    6.007878
    88  C    5.990636
    89  C    6.033239
    90  C    5.997281
    91  C    6.008432
    92  C    6.000456
    93  H    0.989757
    94  N    6.992829
    95  C    6.055622
    96  C    6.019165
    97  C    6.013736
    98  C    6.039122
    99  C    5.993792
   100  C    6.012244
   101  O    8.022725
   102  C    6.001526
   103  N    6.999915
   104  C    6.035019
   105  C    5.988100
   106  C    6.012508
   107  C    5.961655
   108  C    5.998425
   109  C    6.001772
   110  C    6.001447
   111  N    7.004671
   112  C    5.956529
   113  C    5.972936
   114  C    5.993558
   115  C    5.965508
   116  C    6.000677
   117  C    5.984985
   118  O    7.971931
   119  C    5.994753
   120  C    5.995077
   121  O    7.995922
   122  O    7.997500
   123  C    6.002939
   124  H    1.008858
   125  H    1.007238
   126  H    0.993461
   127  H    0.999901
   128  H    1.002548
   129  H    0.994602
   130  H    1.001842
   131  H    1.013652
   132  H    0.986678
   133  H    1.005499
   134  H    1.003672
   135  H    0.999983
   136  H    1.020924
   137  H    1.021556
   138  H    1.015333
   139  H    1.011148
   140  H    1.012297
   141  H    1.007885
   142  H    1.001535
   143  H    0.996974
   144  H    1.005841
   145  H    0.992040
   146  H    1.007631
   147  H    1.006226
   148  H    0.989633
   149  H    1.002161
   150  H    0.993682
   151  H    0.998526
   152  H    0.985546
   153  H    0.979794
   154  H    0.979452
   155  H    0.989851
   156  H    0.998124
   157  H    0.993144
   158  H    0.994467
 Sum of Mulliken charges = 624.00000

 Dipole moment (field-independent basis, Debye):
    X=             -3.8071    Y=             10.2550    Z=             -0.7044  Tot=             10.9615
 Quadrupole moment (field-independent basis, Debye-Ang):
   XX=           -224.4541   YY=             12.4604   ZZ=             -0.7036
   XY=            296.6813   XZ=            -20.0048   YZ=             -1.5471

 Normal termination of Gaussian 16 at Thu Sep 23 13:52:05 2021.
