 Gaussian 16, Revision A.03,
 Gaussian 16:  ES64L-G16RevA.03 25-Dec-2016

 ----------------------------------------------------------
 #p cam-b3lyp/Def2SVP td=(nstates=5) density=(transition=1)
 ----------------------------------------------------------

 --------------------------------
 TDDFT excited states in gaussian
 --------------------------------
 Symbolic Z-matrix:
 Charge =  0 Multiplicity = 1

                         Standard orientation:
 ---------------------------------------------------------------------
 Center     Atomic      Atomic             Coordinates (Angstroms)
 Number     Number       Type             X           Y           Z
 ---------------------------------------------------------------------
      1         12           0      -21.103115   -0.466847    0.036911
      2          6           0      -20.447447    2.877133   -0.857959
      3          6           0      -20.622048    0.357920    3.295597
      4          6           0      -21.624920   -3.713524    0.828590
      5          6           0      -21.132623   -1.295305   -3.335229
      6          7           0      -20.506005    1.345872    1.077022
      7          6           0      -20.402959    2.624999    0.523503
      8          6           0      -20.257757    3.632686    1.623983
      9          6           0      -19.835566    2.754870    2.826050
     10          6           0      -20.363358    1.370848    2.367893
     11          6           0      -18.310639    2.655015    3.146075
     12          6           0      -21.528843    4.514070    1.921402
     13          6           0      -21.251240    5.978277    2.047257
     14          1           0      -21.923148    6.707037    3.225999
     15          7           0      -21.218664   -1.463946    1.788823
     16          6           0      -21.079200   -0.931391    3.081294
     17          6           0      -21.301912   -1.935395    4.043753
     18          6           0      -21.617514   -3.192675    3.342349
     19          6           0      -21.512215   -2.829995    1.957820
     20          6           0      -21.103435   -1.791263    5.524347
     21          6           0      -21.903748   -4.669864    3.857005
     22          8           0      -22.164981   -5.557682    3.080323
     23          6           0      -21.958235   -4.984467    5.345167
     24          7           0      -21.234702   -2.269347   -1.102887
     25          6           0      -21.433575   -3.478301   -0.516902
     26          6           0      -21.481365   -4.630850   -1.630324
     27          6           0      -21.626394   -3.809094   -2.985241
     28          6           0      -21.307088   -2.345173   -2.459330
     29          6           0      -20.268725   -5.601454   -1.669655
     30          6           0      -23.042161   -3.915275   -3.656045
     31          6           0      -22.939142   -4.328997   -5.063850
     32          7           0      -20.799349    0.543158   -1.743595
     33          6           0      -20.952291    0.091575   -3.053580
     34          6           0      -20.770540    1.183546   -3.970763
     35          6           0      -20.544909    2.276477   -3.158996
     36          6           0      -20.594927    1.878466   -1.860284
     37          6           0      -20.927860    1.019411   -5.504994
     38          6           0      -20.249620    3.697484   -3.150670
     39          8           0      -19.998801    4.412691   -4.095574
     40          6           0      -20.148920    4.152345   -1.610728
     41          6           0      -18.805525    4.707121   -1.362983
     42          8           0      -17.729630    4.080348   -1.549274
     43          8           0      -18.944009    5.998910   -0.947142
     44          6           0      -17.696186    6.803992   -1.023298
     45          1           0      -20.411614    0.687164    4.315251
     46          1           0      -21.781824   -4.781197    0.994650
     47          1           0      -21.074005   -1.583599   -4.386369
     48          1           0      -19.411723    4.309272    1.497397
     49          1           0      -20.286341    3.063041    3.769570
     50          1           0      -17.753590    3.568710    2.934724
     51          1           0      -17.921079    1.816254    2.568586
     52          1           0      -18.058652    2.339992    4.158357
     53          1           0      -21.958235    4.089802    2.828792
     54          1           0      -22.308329    4.358543    1.174966
     55          1           0      -21.596161    6.338117    1.077775
     56          1           0      -20.187417    6.134055    2.225983
     57          1           0      -22.014614   -1.749963    6.121534
     58          1           0      -20.636173   -0.828832    5.728968
     59          1           0      -20.484052   -2.526299    6.037639
     60          1           0      -22.308961   -6.013527    5.413190
     61          1           0      -22.533092   -4.237562    5.893463
     62          1           0      -20.989680   -4.775848    5.800510
     63          1           0      -22.308624   -5.310366   -1.424738
     64          1           0      -20.847046   -4.142699   -3.672005
     65          1           0      -19.445351   -5.378316   -0.990357
     66          1           0      -19.805488   -5.667427   -2.654429
     67          1           0      -20.654784   -6.591374   -1.425059
     68          1           0      -23.498972   -2.924918   -3.658675
     69          1           0      -23.713028   -4.636248   -3.189340
     70          1           0      -23.151167   -5.396626   -5.127171
     71          1           0      -22.033099   -4.094057   -5.621289
     72          1           0      -23.661087   -3.768228   -5.657613
     73          1           0      -21.460192    0.089768   -5.707618
     74          1           0      -19.975622    1.149005   -6.021370
     75          1           0      -21.601332    1.827254   -5.788791
     76          1           0      -20.908057    4.893755   -1.360197
     77          1           0      -17.908357    7.851068   -0.807797
     78          1           0      -17.419906    6.791887   -2.077858
     79          1           0      -16.968349    6.316002   -0.374450
     80         12           0       20.142810   -0.686282   -0.227081
     81          6           0       21.932294    2.404167   -0.537687
     82          6           0       18.017043    0.801904    1.784883
     83          6           0       19.141819   -3.747312    0.555570
     84          6           0       22.873769   -2.170676   -2.193594
     85          7           0       19.979773    1.386041    0.490681
     86          6           0       20.819995    2.498036    0.283224
     87          6           0       20.345718    3.801534    1.030280
     88          6           0       18.984659    3.184399    1.729058
     89          6           0       18.945183    1.713585    1.326376
     90          6           0       18.998375    3.333156    3.310874
     91          6           0       20.135995    5.067882    0.128984
     92          6           0       19.303459    6.187294    0.742542
     93          1           0       20.080648    7.486327    1.023742
     94          7           0       18.694157   -1.365601    0.934541
     95          6           0       17.840530   -0.629884    1.722548
     96          6           0       16.864068   -1.456666    2.399893
     97          6           0       17.217787   -2.806661    2.002374
     98          6           0       18.375459   -2.657352    1.050270
     99          6           0       15.751629   -0.999847    3.220974
    100          6           0       16.573375   -4.132510    2.368071
    101          8           0       16.880261   -5.185391    1.883325
    102          6           0       15.554187   -4.053145    3.473470
    103          7           0       20.941445   -2.689301   -0.696363
    104          6           0       20.283547   -3.789715   -0.252109
    105          6           0       20.925033   -5.085910   -0.815568
    106          6           0       22.019289   -4.523013   -1.787826
    107          6           0       21.920263   -3.021654   -1.597818
    108          6           0       21.506338   -6.126171    0.201554
    109          6           0       21.856149   -4.896485   -3.303454
    110          6           0       22.298191   -6.340376   -3.629003
    111          7           0       22.011051   -0.103995   -1.160564
    112          6           0       22.924891   -0.762032   -1.951063
    113          6           0       23.863446    0.168835   -2.438283
    114          6           0       23.589427    1.372612   -1.905951
    115          6           0       22.435607    1.194220   -1.083956
    116          6           0       24.920766   -0.236154   -3.457102
    117          6           0       23.961570    2.780852   -1.736704
    118          8           0       24.885968    3.406126   -2.188517
    119          6           0       22.872899    3.489569   -0.797862
    120          6           0       23.551454    3.824530    0.491994
    121          8           0       23.728585    3.180518    1.501404
    122          8           0       23.945635    5.139955    0.347406
    123          6           0       24.640737    5.764994    1.497799
    124          1           0       17.293786    1.193616    2.502992
    125          1           0       18.861422   -4.719589    0.967824
    126          1           0       23.539544   -2.743483   -2.843304
    127          1           0       21.045419    3.987671    1.845231
    128          1           0       18.133008    3.760855    1.367072
    129          1           0       18.021499    3.678354    3.649124
    130          1           0       19.767429    3.947219    3.778709
    131          1           0       19.069935    2.352689    3.780684
    132          1           0       19.702946    4.595608   -0.753753
    133          1           0       21.014652    5.554197   -0.295329
    134          1           0       18.881627    5.840164    1.685340
    135          1           0       18.568077    6.515448    0.008468
    136          1           0       14.923831   -1.326768    2.591751
    137          1           0       15.803939    0.075571    3.391492
    138          1           0       15.616128   -1.458056    4.200450
    139          1           0       14.560640   -3.941343    3.039549
    140          1           0       15.890989   -3.481945    4.339055
    141          1           0       15.706379   -4.989944    4.008777
    142          1           0       20.191918   -5.477015   -1.521663
    143          1           0       23.004635   -4.763002   -1.387713
    144          1           0       22.565717   -6.362895    0.098507
    145          1           0       21.029639   -7.071603   -0.056358
    146          1           0       21.363104   -5.881321    1.253990
    147          1           0       22.475903   -4.233188   -3.905772
    148          1           0       20.807005   -4.699105   -3.527896
    149          1           0       22.980964   -6.710942   -2.864164
    150          1           0       22.743842   -6.296750   -4.622710
    151          1           0       21.485456   -7.067327   -3.628542
    152          1           0       25.230562    0.615117   -4.063391
    153          1           0       24.524826   -1.046661   -4.069078
    154          1           0       25.770824   -0.700818   -2.957019
    155          1           0       22.437479    4.367175   -1.276281
    156          1           0       25.433679    6.372876    1.062292
    157          1           0       25.069064    5.053955    2.204085
    158          1           0       23.815763    6.353560    1.900383
 ---------------------------------------------------------------------

 SCF Done:  E(RCAM-B3LYP) =  -4069.84088561     A.U. after   18 cycles

 Excitation energies and oscillator strengths:

 Excited State   1:      Singlet-A      1.6973 eV  730.49 nm  f=0.3946  <S**2>=0.000
     310 -> 316        0.17774
     312 -> 314        0.68636
     310 <- 316        0.10765
 This state for optimization and/or second-order correction.
 Total Energy, E(TD-HF/TD-DFT) =  -4069.77851210
 Copying the excited state density for this state as the 1-particle RhoCI density.

 Excited State   2:      Singlet-A      1.7438 eV  711.02 nm  f=0.3975  <S**2>=0.000
     309 -> 315        0.17837
     311 -> 313        0.68462
     309 <- 315        0.10695

 Excited State   3:      Singlet-A      2.2018 eV  563.09 nm  f=0.1544  <S**2>=0.000
     309 -> 313        0.65391
     311 -> 315       -0.24977

 Excited State   4:      Singlet-A      2.2114 eV  560.66 nm  f=0.1430  <S**2>=0.000
     310 -> 314        0.65067
     312 -> 316       -0.26502

 Excited State   5:      Singlet-A      3.0174 eV  410.90 nm  f=0.0000  <S**2>=0.000
     312 -> 313        0.70710

 The electronic state is 1-A.
 Alpha  occ. eigenvalues --  -46.88563 -46.87206 -19.25691 -19.23835 -19.19915
 Alpha  occ. eigenvalues --  -19.19911 -19.19545 -19.19102 -19.19064 -19.18941
 Alpha  occ. eigenvalues --  -14.42182 -14.42088 -14.41528 -14.41313 -14.39619
 Alpha  occ. eigenvalues --  -14.39314 -14.38841 -14.38581 -10.39460 -10.38968
 Alpha  occ. eigenvalues --  -10.36366 -10.35260 -10.35065 -10.34763 -10.32211
 Alpha  occ. eigenvalues --  -10.31198 -10.31075 -10.30904 -10.30858 -10.30654
 Alpha  occ. eigenvalues --  -10.30646 -10.30646 -10.30463 -10.30360 -10.30181
 Alpha  occ. eigenvalues --  -10.30098 -10.30096 -10.29945 -10.29373 -10.29124
 Alpha  occ. eigenvalues --  -10.29082 -10.28966 -10.28900 -10.28851 -10.28756
 Alpha  occ. eigenvalues --  -10.28695 -10.28480 -10.28164 -10.28088 -10.27927
 Alpha  occ. eigenvalues --  -10.27889 -10.27794 -10.27785 -10.27742 -10.27667
 Alpha  occ. eigenvalues --  -10.27660 -10.27636 -10.27436 -10.27245 -10.27176
 Alpha  occ. eigenvalues --  -10.26988 -10.26976 -10.26935 -10.26814 -10.26772
 Alpha  occ. eigenvalues --  -10.26760 -10.26751 -10.26744 -10.26732 -10.26697
 Alpha  occ. eigenvalues --  -10.26529 -10.26378 -10.26148 -10.26147 -10.26115
 Alpha  occ. eigenvalues --  -10.25874 -10.25818 -10.25735 -10.25704 -10.25591
 Alpha  occ. eigenvalues --  -10.25556 -10.25542 -10.25361 -10.24699 -10.24678
 Alpha  occ. eigenvalues --  -10.24381  -3.17106  -3.15935  -1.92002  -1.91542
 Alpha  occ. eigenvalues --   -1.91430  -1.90839  -1.90379  -1.90259  -1.15788
 Alpha  occ. eigenvalues --   -1.15699  -1.11732  -1.11360  -1.10783  -1.10351
 Alpha  occ. eigenvalues --   -1.07460  -1.06365  -1.04969  -1.03800  -1.03369
 Alpha  occ. eigenvalues --   -1.03289  -1.02580  -1.02496  -1.01585  -1.01453
 Alpha  occ. eigenvalues --   -0.93008  -0.92608  -0.89235  -0.88923  -0.88688
 Alpha  occ. eigenvalues --   -0.88242  -0.88115  -0.88056  -0.87140  -0.87055
 Alpha  occ. eigenvalues --   -0.86838  -0.86441  -0.86014  -0.85853  -0.84341
 Alpha  occ. eigenvalues --   -0.83888  -0.83856  -0.83184  -0.82935  -0.82170
 Alpha  occ. eigenvalues --   -0.82136  -0.82043  -0.81220  -0.80702  -0.80691
 Alpha  occ. eigenvalues --   -0.80069  -0.78261  -0.78106  -0.77351  -0.76967
 Alpha  occ. eigenvalues --   -0.76803  -0.76635  -0.75762  -0.75537  -0.74910
 Alpha  occ. eigenvalues --   -0.74811  -0.72909  -0.72763  -0.71315  -0.70956
 Alpha  occ. eigenvalues --   -0.69636  -0.68742  -0.68636  -0.68141  -0.67714
 Alpha  occ. eigenvalues --   -0.67618  -0.66950  -0.66571  -0.65543  -0.65205
 Alpha  occ. eigenvalues --   -0.65037  -0.64601  -0.64598  -0.64407  -0.64069
 Alpha  occ. eigenvalues --   -0.63882  -0.61974  -0.61453  -0.60348  -0.60144
 Alpha  occ. eigenvalues --   -0.60073  -0.59466  -0.59276  -0.58813  -0.58325
 Alpha  occ. eigenvalues --   -0.58236  -0.57835  -0.57717  -0.57648  -0.56866
 Alpha  occ. eigenvalues --   -0.56186  -0.56122  -0.55762  -0.55709  -0.55535
 Alpha  occ. eigenvalues --   -0.55023  -0.54994  -0.54457  -0.54274  -0.54123
 Alpha  occ. eigenvalues --   -0.53867  -0.53652  -0.53584  -0.53463  -0.52653
 Alpha  occ. eigenvalues --   -0.52651  -0.52611  -0.52371  -0.51942  -0.51912
 Alpha  occ. eigenvalues --   -0.51850  -0.51614  -0.51582  -0.51330  -0.51056
 Alpha  occ. eigenvalues --   -0.50989  -0.50922  -0.50535  -0.50485  -0.50182
 Alpha  occ. eigenvalues --   -0.50136  -0.49830  -0.49793  -0.49667  -0.49481
 Alpha  occ. eigenvalues --   -0.49476  -0.49436  -0.49147  -0.49134  -0.48822
 Alpha  occ. eigenvalues --   -0.48745  -0.48400  -0.47978  -0.47962  -0.47805
 Alpha  occ. eigenvalues --   -0.47741  -0.47702  -0.47285  -0.47046  -0.46813
 Alpha  occ. eigenvalues --   -0.46748  -0.46673  -0.46485  -0.46331  -0.46173
 Alpha  occ. eigenvalues --   -0.45885  -0.45873  -0.45801  -0.45737  -0.45439
 Alpha  occ. eigenvalues --   -0.45432  -0.45293  -0.45168  -0.45110  -0.45033
 Alpha  occ. eigenvalues --   -0.44837  -0.44772  -0.44710  -0.44702  -0.44481
 Alpha  occ. eigenvalues --   -0.44362  -0.43973  -0.43805  -0.43469  -0.43425
 Alpha  occ. eigenvalues --   -0.43380  -0.43177  -0.42946  -0.42902  -0.42752
 Alpha  occ. eigenvalues --   -0.42640  -0.42542  -0.42305  -0.42064  -0.41967
 Alpha  occ. eigenvalues --   -0.41907  -0.41809  -0.41612  -0.41251  -0.41110
 Alpha  occ. eigenvalues --   -0.40975  -0.40940  -0.40769  -0.40506  -0.40466
 Alpha  occ. eigenvalues --   -0.40101  -0.39332  -0.39180  -0.38868  -0.38782
 Alpha  occ. eigenvalues --   -0.38381  -0.38094  -0.37874  -0.37855  -0.37746
 Alpha  occ. eigenvalues --   -0.37002  -0.36786  -0.36535  -0.36359  -0.36335
 Alpha  occ. eigenvalues --   -0.36016  -0.35727  -0.34632  -0.34272  -0.34170
 Alpha  occ. eigenvalues --   -0.33930  -0.33181  -0.32584  -0.31787  -0.31305
 Alpha  occ. eigenvalues --   -0.31298  -0.30885  -0.30824  -0.30562  -0.30102
 Alpha  occ. eigenvalues --   -0.30011  -0.29733  -0.29588  -0.23995  -0.23581
 Alpha  occ. eigenvalues --   -0.21554  -0.20953
 Alpha virt. eigenvalues --   -0.09038  -0.08526  -0.01295  -0.01123   0.00713
 Alpha virt. eigenvalues --    0.00888   0.02474   0.02683   0.02767   0.03423
 Alpha virt. eigenvalues --    0.04479   0.04952   0.05379   0.05859   0.06106

 Mulliken charges:
               1
     1  Mg  12.000000
     2  C    6.000279
     3  C    6.000131
     4  C    5.999724
     5  C    5.999919
     6  N    7.000095
     7  C    5.999735
     8  C    6.000070
     9  C    5.999948
    10  C    6.000078
    11  C    5.999937
    12  C    6.000038
    13  C    6.000023
    14  H    0.999899
    15  N    7.000012
    16  C    6.000125
    17  C    6.000188
    18  C    6.000078
    19  C    6.000273
    20  C    5.999908
    21  C    6.000112
    22  O    8.000150
    23  C    5.999975
    24  N    6.999923
    25  C    6.000247
    26  C    5.999948
    27  C    6.000014
    28  C    5.999942
    29  C    5.999990
    30  C    6.000054
    31  C    6.000024
    32  N    6.999965
    33  C    5.999856
    34  C    5.999736
    35  C    6.000102
    36  C    5.999729
    37  C    6.000045
    38  C    5.999836
    39  O    7.999800
    40  C    5.999970
    41  C    5.999978
    42  O    8.000047
    43  O    7.999957
    44  C    6.000002
    45  H    1.000119
    46  H    1.000043
    47  H    0.999899
    48  H    1.000013
    49  H    1.000003
    50  H    1.000136
    51  H    1.000077
    52  H    1.000055
    53  H    0.999894
    54  H    0.999977
    55  H    0.999994
    56  H    1.000032
    57  H    1.000120
    58  H    1.000146
    59  H    1.000207
    60  H    1.000077
    61  H    0.999997
    62  H    1.000109
    63  H    0.999951
    64  H    1.000005
    65  H    1.000057
    66  H    1.000077
    67  H    0.999982
    68  H    0.999984
    69  H    0.999885
    70  H    0.999935
    71  H    1.000028
    72  H    0.999941
    73  H    0.999858
    74  H    0.999865
    75  H    0.999813
    76  H    0.999896
    77  H    0.999929
    78  H    0.999993
    79  H    1.000042
    80  Mg  12.000462
    81  C    5.969769
    82  C    6.013303
    83  C    6.021934
    84  C    5.984293
    85  N    6.989683
    86  C    6.034864
    87  C    5.982759
    88  C    6.015136
    89  C    5.969792
    90  C    6.000461
    91  C    5.997741
    92  C    6.001075
    93  H    0.999968
    94  N    7.008377
    95  C    5.953108
    96  C    5.983856
    97  C    5.979237
    98  C    5.966080
    99  C    6.006600
   100  C    5.985084
   101  O    7.969525
   102  C    6.009781
   103  N    7.001579
   104  C    5.963725
   105  C    6.013513
   106  C    5.989193
   107  C    6.032628
   108  C    6.000718
   109  C    5.992756
   110  C    6.001644
   111  N    6.995743
   112  C    6.039980
   113  C    6.027943
   114  C    6.002081
   115  C    6.045603
   116  C    5.997973
   117  C    6.017616
   118  O    8.030391
   119  C    6.007671
   120  C    5.999333
   121  O    8.007996
   122  O    8.000804
   123  C    5.997651
   124  H    0.990488
   125  H    0.995631
   126  H    1.011244
   127  H    1.005620
   128  H    0.995219
   129  H    0.999856
   130  H    0.987567
   131  H    1.006250
   132  H    1.001654
   133  H    0.995164
   134  H    1.007804
   135  H    1.002570
   136  H    0.981487
   137  H    0.980527
   138  H    0.979202
   139  H    0.988591
   140  H    0.992812
   141  H    0.984323
   142  H    0.999386
   143  H    0.999703
   144  H    0.990148
   145  H    0.998937
   146  H    1.004797
   147  H    0.994214
   148  H    1.009615
   149  H    1.003080
   150  H    0.999971
   151  H    1.007513
   152  H    1.015672
   153  H    1.018357
   154  H    1.022080
   155  H    1.008512
   156  H    1.002710
   157  H    1.003366
   158  H    1.006499
 Sum of Mulliken charges = 624.00000

 Dipole moment (field-independent basis, Debye):
    X=              8.7616    Y=              3.8000    Z=             -5.6037  Tot=             11.0728
 Quadrupole moment (field-independent basis, Debye-Ang):
   XX=            356.3151   YY=             -2.7339   ZZ=              0.0392
   XY=             73.0848   XZ=           -115.7645   YZ=              6.8343

 Normal termination of Gaussian 16 at Tue Sep 21 21:47:00 2021.
