 Gaussian 16, Revision A.03,
 Gaussian 16:  ES64L-G16RevA.03 25-Dec-2016

 ----------------------------------------------------------
 #p cam-b3lyp/Def2SVP td=(nstates=5) density=(transition=1)
 ----------------------------------------------------------

 --------------------------------
 TDDFT excited states in gaussian
 --------------------------------
 Symbolic Z-matrix:
 Charge =  0 Multiplicity = 1

                         Standard orientation:
 ---------------------------------------------------------------------
 Center     Atomic      Atomic             Coordinates (Angstroms)
 Number     Number       Type             X           Y           Z
 ---------------------------------------------------------------------
      1         12           0      -17.280986    0.662727   -0.053049
      2          6           0      -15.950883   -2.186064   -1.464166
      3          6           0      -14.757279    2.420343   -1.552627
      4          6           0      -18.401333    3.412439    1.555775
      5          6           0      -19.423721   -1.286435    1.870121
      6          7           0      -15.460915    0.057646   -1.270480
      7          6           0      -15.251832   -1.055709   -1.860586
      8          6           0      -14.018810   -1.100346   -2.902721
      9          6           0      -13.474835    0.362775   -2.659861
     10          6           0      -14.576512    1.012456   -1.695240
     11          6           0      -12.046350    0.447090   -1.905269
     12          6           0      -14.411853   -1.399451   -4.414131
     13          6           0      -13.370462   -2.169327   -5.301494
     14          1           0      -11.993696   -2.333313   -4.732065
     15          7           0      -16.738891    2.603556   -0.056067
     16          6           0      -15.673789    3.208123   -0.832747
     17          6           0      -15.716251    4.645783   -0.586543
     18          6           0      -16.693340    4.935957    0.398113
     19          6           0      -17.359874    3.637099    0.643715
     20          6           0      -14.793304    5.494660   -1.384556
     21          6           0      -17.136754    6.276770    1.028882
     22          8           0      -17.909710    6.401420    1.931777
     23          6           0      -16.360765    7.514503    0.534993
     24          7           0      -18.640133    1.069710    1.586607
     25          6           0      -18.938907    2.233268    2.071521
     26          6           0      -19.808188    2.116241    3.355613
     27          6           0      -20.224927    0.626189    3.385581
     28          6           0      -19.404100    0.068254    2.199111
     29          6           0      -19.020783    2.572987    4.602157
     30          6           0      -21.768877    0.434916    3.276941
     31          6           0      -22.563566    0.845671    4.527112
     32          7           0      -17.655433   -1.351471    0.190837
     33          6           0      -18.635032   -1.976212    0.942054
     34          6           0      -18.552794   -3.380176    0.636206
     35          6           0      -17.482307   -3.578076   -0.286511
     36          6           0      -17.021964   -2.253626   -0.520416
     37          6           0      -19.360934   -4.387692    1.218678
     38          6           0      -16.755947   -4.484980   -1.117023
     39          8           0      -16.838571   -5.748525   -1.163990
     40          6           0      -15.652814   -3.603707   -1.821500
     41          6           0      -14.363539   -4.129397   -1.426269
     42          8           0      -13.799457   -3.863312   -0.365251
     43          8           0      -14.003053   -5.062448   -2.364880
     44          6           0      -12.833004   -5.869967   -1.959888
     45          1           0      -13.948945    3.003856   -1.997201
     46          1           0      -18.726153    4.347314    2.018716
     47          1           0      -20.164881   -1.845996    2.445405
     48          1           0      -13.340696   -1.830046   -2.459495
     49          1           0      -13.355256    0.880282   -3.611488
     50          1           0      -11.880802   -0.501444   -1.393621
     51          1           0      -12.062115    1.260602   -1.180141
     52          1           0      -11.177241    0.640499   -2.534879
     53          1           0      -14.542221   -0.406369   -4.843300
     54          1           0      -15.427629   -1.755797   -4.588780
     55          1           0      -13.234406   -1.738325   -6.293301
     56          1           0      -13.704093   -3.199770   -5.424224
     57          1           0      -13.810175    5.539931   -0.915165
     58          1           0      -15.227954    6.456041   -1.658648
     59          1           0      -14.675791    5.006017   -2.351488
     60          1           0      -16.626146    7.846825   -0.469103
     61          1           0      -15.332301    7.161487    0.603704
     62          1           0      -16.403617    8.391009    1.180837
     63          1           0      -20.658007    2.756476    3.120161
     64          1           0      -19.835867    0.156919    4.289165
     65          1           0      -17.935089    2.509286    4.526059
     66          1           0      -19.161670    2.016807    5.529529
     67          1           0      -19.312237    3.611383    4.759659
     68          1           0      -21.980319   -0.623182    3.128936
     69          1           0      -22.147101    0.978315    2.410390
     70          1           0      -21.861577    1.295258    5.229396
     71          1           0      -22.845155   -0.053899    5.074658
     72          1           0      -23.474351    1.431473    4.405332
     73          1           0      -20.368228   -3.971397    1.201159
     74          1           0      -19.147366   -4.638381    2.257609
     75          1           0      -19.199593   -5.318060    0.673199
     76          1           0      -15.813902   -3.815159   -2.878916
     77          1           0      -13.158180   -6.462746   -1.104454
     78          1           0      -11.944918   -5.255912   -1.814136
     79          1           0      -12.613937   -6.553317   -2.780489
     80         12           0       17.066832    0.343012   -0.008729
     81          6           0       15.302912   -2.504955    0.773279
     82          6           0       14.660773    1.352089   -2.226848
     83          6           0       18.788266    3.327823   -0.640377
     84          6           0       19.083755   -0.121771    2.755725
     85          7           0       15.095130   -0.447392   -0.443398
     86          6           0       14.604409   -1.726915   -0.169346
     87          6           0       13.222426   -1.941559   -0.791700
     88          6           0       13.224359   -0.780998   -1.818886
     89          6           0       14.364093    0.187210   -1.441122
     90          6           0       13.226493   -1.268596   -3.284263
     91          6           0       12.091723   -1.852512    0.252303
     92          6           0       10.938495   -2.908315    0.137912
     93          1           0        9.599327   -2.462617    0.579396
     94          7           0       16.784716    2.022059   -1.275185
     95          6           0       15.790089    2.209697   -2.172588
     96          6           0       16.040935    3.301766   -3.064704
     97          6           0       17.300993    3.818664   -2.721360
     98          6           0       17.711582    3.023981   -1.490577
     99          6           0       15.151003    3.668372   -4.254093
    100          6           0       18.062361    5.003749   -3.418599
    101          8           0       17.476575    5.632053   -4.337179
    102          6           0       19.564722    5.403422   -3.088748
    103          7           0       18.516965    1.600257    1.106277
    104          6           0       19.144133    2.668976    0.557450
    105          6           0       20.355292    3.105695    1.340978
    106          6           0       20.446304    2.048981    2.462964
    107          6           0       19.316451    1.088921    2.082040
    108          6           0       21.655023    3.286475    0.488652
    109          6           0       20.394241    2.681678    3.934580
    110          6           0       21.741135    2.711350    4.666241
    111          7           0       17.240254   -1.041246    1.448133
    112          6           0       18.135444   -1.158362    2.534171
    113          6           0       17.994315   -2.490719    3.136210
    114          6           0       16.950261   -3.053420    2.415336
    115          6           0       16.475621   -2.084594    1.515903
    116          6           0       18.735697   -3.117866    4.262123
    117          6           0       16.118249   -4.259553    2.299195
    118          8           0       16.251708   -5.404255    2.762332
    119          6           0       15.031990   -3.968762    1.187452
    120          6           0       15.162953   -4.934489    0.017355
    121          8           0       16.197003   -5.281957   -0.561776
    122          8           0       13.885474   -5.366886   -0.181560
    123          6           0       13.707686   -6.448080   -1.136310
    124          1           0       13.903600    1.681723   -2.941202
    125          1           0       19.455571    4.179022   -0.791139
    126          1           0       19.693684   -0.334673    3.635936
    127          1           0       13.175976   -2.932473   -1.244619
    128          1           0       12.267693   -0.290054   -1.640642
    129          1           0       12.886448   -2.278146   -3.514985
    130          1           0       14.272658   -1.264471   -3.589871
    131          1           0       12.642689   -0.618606   -3.935599
    132          1           0       11.656519   -0.855909    0.321175
    133          1           0       12.598504   -1.900515    1.216435
    134          1           0       11.210742   -3.792307    0.714512
    135          1           0       10.810689   -3.165220   -0.914570
    136          1           0       15.800831    3.626763   -5.127924
    137          1           0       14.589586    4.574792   -4.027235
    138          1           0       14.465955    2.825728   -4.347269
    139          1           0       19.516546    6.067193   -2.226302
    140          1           0       19.929570    5.949925   -3.958103
    141          1           0       20.129915    4.471228   -3.068595
    142          1           0       20.139519    4.082926    1.773098
    143          1           0       21.288277    1.359021    2.412056
    144          1           0       22.517450    2.826038    0.969859
    145          1           0       21.897000    4.333949    0.309727
    146          1           0       21.481229    2.891049   -0.511265
    147          1           0       19.751427    2.115805    4.608754
    148          1           0       19.939815    3.671730    3.898893
    149          1           0       21.832831    3.640727    5.228613
    150          1           0       22.553842    2.650638    3.942738
    151          1           0       21.885136    1.884622    5.361617
    152          1           0       19.538428   -2.436032    4.542954
    153          1           0       18.952436   -4.160708    4.029748
    154          1           0       18.060642   -3.083466    5.117908
    155          1           0       14.016142   -3.991032    1.582885
    156          1           0       14.275282   -6.321143   -2.059044
    157          1           0       12.685972   -6.684516   -1.433399
    158          1           0       14.036602   -7.387520   -0.691313
 ---------------------------------------------------------------------

 SCF Done:  E(RCAM-B3LYP) =  -4069.84189081     A.U. after   19 cycles

 Excitation energies and oscillator strengths:

 Excited State   1:      Singlet-A      1.7086 eV  725.64 nm  f=0.3568  <S**2>=0.000
     309 -> 315        0.17446
     312 -> 313        0.68606
     309 <- 315        0.10519
 This state for optimization and/or second-order correction.
 Total Energy, E(TD-HF/TD-DFT) =  -4069.77910011
 Copying the excited state density for this state as the 1-particle RhoCI density.

 Excited State   2:      Singlet-A      1.7724 eV  699.52 nm  f=0.3860  <S**2>=0.000
     310 -> 316        0.19901
     311 -> 314        0.67931
     310 <- 316        0.10974

 Excited State   3:      Singlet-A      2.2144 eV  559.90 nm  f=0.1117  <S**2>=0.000
     310 -> 314        0.64300
     311 -> 316       -0.28129

 Excited State   4:      Singlet-A      2.2475 eV  551.65 nm  f=0.0932  <S**2>=0.000
     309 -> 313        0.62545
     312 -> 315       -0.31550

 Excited State   5:      Singlet-A      3.1637 eV  391.90 nm  f=0.0000  <S**2>=0.000
     311 -> 313        0.70710

 The electronic state is 1-A.
 Alpha  occ. eigenvalues --  -46.89193 -46.88387 -19.26377 -19.24789 -19.20280
 Alpha  occ. eigenvalues --  -19.20155 -19.19707 -19.19298 -19.18463 -19.18230
 Alpha  occ. eigenvalues --  -14.42427 -14.42210 -14.42192 -14.41529 -14.40248
 Alpha  occ. eigenvalues --  -14.39668 -14.39127 -14.38934 -10.39971 -10.38545
 Alpha  occ. eigenvalues --  -10.36698 -10.36264 -10.34769 -10.34751 -10.32219
 Alpha  occ. eigenvalues --  -10.32064 -10.31830 -10.31611 -10.31264 -10.31203
 Alpha  occ. eigenvalues --  -10.31113 -10.30673 -10.30660 -10.30499 -10.30465
 Alpha  occ. eigenvalues --  -10.30419 -10.30414 -10.30329 -10.29694 -10.29425
 Alpha  occ. eigenvalues --  -10.29209 -10.28981 -10.28921 -10.28913 -10.28832
 Alpha  occ. eigenvalues --  -10.28513 -10.28497 -10.28370 -10.28178 -10.28176
 Alpha  occ. eigenvalues --  -10.28084 -10.28038 -10.28034 -10.27989 -10.27934
 Alpha  occ. eigenvalues --  -10.27781 -10.27761 -10.27758 -10.27732 -10.27631
 Alpha  occ. eigenvalues --  -10.27605 -10.27548 -10.27493 -10.27314 -10.27168
 Alpha  occ. eigenvalues --  -10.27128 -10.27094 -10.27007 -10.26931 -10.26910
 Alpha  occ. eigenvalues --  -10.26753 -10.26671 -10.26589 -10.26551 -10.26304
 Alpha  occ. eigenvalues --  -10.26267 -10.26151 -10.26076 -10.25988 -10.25778
 Alpha  occ. eigenvalues --  -10.25656 -10.25384 -10.25319 -10.24641 -10.24605
 Alpha  occ. eigenvalues --  -10.24443  -3.17726  -3.17001  -1.92592  -1.92168
 Alpha  occ. eigenvalues --   -1.92056  -1.91894  -1.91462  -1.91304  -1.16852
 Alpha  occ. eigenvalues --   -1.15514  -1.12508  -1.08640  -1.08376  -1.07768
 Alpha  occ. eigenvalues --   -1.07217  -1.06738  -1.05376  -1.04694  -1.04307
 Alpha  occ. eigenvalues --   -1.04022  -1.03539  -1.03448  -1.02170  -1.00863
 Alpha  occ. eigenvalues --   -0.92514  -0.91437  -0.89311  -0.88894  -0.88856
 Alpha  occ. eigenvalues --   -0.88715  -0.88350  -0.87835  -0.87474  -0.87297
 Alpha  occ. eigenvalues --   -0.87006  -0.86952  -0.86846  -0.86412  -0.84332
 Alpha  occ. eigenvalues --   -0.83913  -0.83905  -0.83472  -0.82525  -0.82317
 Alpha  occ. eigenvalues --   -0.81732  -0.81659  -0.81140  -0.81042  -0.80270
 Alpha  occ. eigenvalues --   -0.80210  -0.78539  -0.77955  -0.77496  -0.77380
 Alpha  occ. eigenvalues --   -0.76764  -0.76377  -0.75906  -0.75745  -0.75313
 Alpha  occ. eigenvalues --   -0.74832  -0.72725  -0.72197  -0.71743  -0.71456
 Alpha  occ. eigenvalues --   -0.69404  -0.69215  -0.68988  -0.68784  -0.68175
 Alpha  occ. eigenvalues --   -0.67903  -0.67271  -0.66983  -0.66147  -0.65814
 Alpha  occ. eigenvalues --   -0.65398  -0.65096  -0.65011  -0.64746  -0.64575
 Alpha  occ. eigenvalues --   -0.64072  -0.62704  -0.61544  -0.60014  -0.59964
 Alpha  occ. eigenvalues --   -0.59614  -0.59360  -0.59124  -0.58941  -0.58625
 Alpha  occ. eigenvalues --   -0.58273  -0.57871  -0.57746  -0.57656  -0.57253
 Alpha  occ. eigenvalues --   -0.55985  -0.55983  -0.55774  -0.55712  -0.55361
 Alpha  occ. eigenvalues --   -0.55151  -0.55034  -0.54542  -0.53966  -0.53784
 Alpha  occ. eigenvalues --   -0.53390  -0.53346  -0.53157  -0.53145  -0.52943
 Alpha  occ. eigenvalues --   -0.52814  -0.52717  -0.52616  -0.52062  -0.52031
 Alpha  occ. eigenvalues --   -0.51898  -0.51606  -0.51374  -0.51365  -0.51202
 Alpha  occ. eigenvalues --   -0.51118  -0.51107  -0.50933  -0.50887  -0.50708
 Alpha  occ. eigenvalues --   -0.50376  -0.49961  -0.49480  -0.49423  -0.49345
 Alpha  occ. eigenvalues --   -0.49135  -0.49074  -0.48947  -0.48528  -0.48521
 Alpha  occ. eigenvalues --   -0.48453  -0.48286  -0.48185  -0.48163  -0.47865
 Alpha  occ. eigenvalues --   -0.47826  -0.47780  -0.47704  -0.47492  -0.47197
 Alpha  occ. eigenvalues --   -0.47028  -0.46882  -0.46621  -0.46597  -0.46444
 Alpha  occ. eigenvalues --   -0.46402  -0.46225  -0.46024  -0.46023  -0.45594
 Alpha  occ. eigenvalues --   -0.45586  -0.45268  -0.45112  -0.44848  -0.44792
 Alpha  occ. eigenvalues --   -0.44452  -0.44397  -0.44274  -0.44158  -0.44140
 Alpha  occ. eigenvalues --   -0.43807  -0.43788  -0.43731  -0.43513  -0.43500
 Alpha  occ. eigenvalues --   -0.43297  -0.43198  -0.42963  -0.42913  -0.42766
 Alpha  occ. eigenvalues --   -0.42657  -0.42488  -0.42473  -0.42259  -0.42136
 Alpha  occ. eigenvalues --   -0.41977  -0.41704  -0.41660  -0.41598  -0.41457
 Alpha  occ. eigenvalues --   -0.41179  -0.41167  -0.40814  -0.40644  -0.40622
 Alpha  occ. eigenvalues --   -0.40197  -0.39802  -0.39732  -0.39384  -0.39379
 Alpha  occ. eigenvalues --   -0.38700  -0.38403  -0.38210  -0.38174  -0.37974
 Alpha  occ. eigenvalues --   -0.37610  -0.37397  -0.36873  -0.36871  -0.36551
 Alpha  occ. eigenvalues --   -0.36434  -0.36312  -0.34887  -0.34812  -0.34301
 Alpha  occ. eigenvalues --   -0.33887  -0.33429  -0.33051  -0.31746  -0.31603
 Alpha  occ. eigenvalues --   -0.31219  -0.31189  -0.30513  -0.30468  -0.30376
 Alpha  occ. eigenvalues --   -0.30137  -0.29853  -0.29159  -0.24218  -0.23660
 Alpha  occ. eigenvalues --   -0.21231  -0.21101
 Alpha virt. eigenvalues --   -0.08600  -0.08412  -0.02041  -0.01684  -0.00024
 Alpha virt. eigenvalues --    0.00152   0.01620   0.01961   0.02100   0.02612
 Alpha virt. eigenvalues --    0.04971   0.05029   0.05474   0.05946   0.06464

 Mulliken charges:
               1
     1  Mg  11.999982
     2  C    6.000129
     3  C    5.999720
     4  C    5.999918
     5  C    6.000250
     6  N    7.000047
     7  C    5.999717
     8  C    6.000115
     9  C    5.999876
    10  C    6.000423
    11  C    5.999932
    12  C    6.000044
    13  C    5.999985
    14  H    0.999991
    15  N    6.999910
    16  C    6.000565
    17  C    6.000146
    18  C    6.000288
    19  C    6.000224
    20  C    5.999880
    21  C    6.000125
    22  O    8.000255
    23  C    5.999952
    24  N    6.999999
    25  C    6.000252
    26  C    5.999956
    27  C    6.000146
    28  C    5.999584
    29  C    5.999979
    30  C    6.000050
    31  C    6.000008
    32  N    7.000030
    33  C    5.999457
    34  C    5.999772
    35  C    5.999833
    36  C    5.999769
    37  C    6.000109
    38  C    5.999787
    39  O    7.999577
    40  C    5.999981
    41  C    5.999977
    42  O    7.999887
    43  O    8.000015
    44  C    6.000033
    45  H    1.000218
    46  H    1.000051
    47  H    0.999828
    48  H    0.999989
    49  H    1.000146
    50  H    1.000078
    51  H    0.999972
    52  H    1.000210
    53  H    0.999951
    54  H    1.000027
    55  H    1.000053
    56  H    0.999995
    57  H    1.000290
    58  H    1.000245
    59  H    1.000224
    60  H    1.000151
    61  H    1.000070
    62  H    1.000180
    63  H    0.999972
    64  H    0.999902
    65  H    0.999974
    66  H    1.000047
    67  H    0.999977
    68  H    1.000026
    69  H    0.999937
    70  H    0.999925
    71  H    0.999957
    72  H    0.999948
    73  H    0.999805
    74  H    0.999634
    75  H    0.999796
    76  H    0.999936
    77  H    0.999924
    78  H    0.999946
    79  H    0.999942
    80  Mg  12.002038
    81  C    5.967230
    82  C    6.018427
    83  C    6.032170
    84  C    5.994933
    85  N    6.983772
    86  C    6.038705
    87  C    5.992285
    88  C    6.009495
    89  C    5.965676
    90  C    6.003177
    91  C    6.000318
    92  C    5.998565
    93  H    1.004123
    94  N    7.009768
    95  C    5.958180
    96  C    5.980619
    97  C    5.986694
    98  C    5.952024
    99  C    6.003256
   100  C    5.990218
   101  O    7.979537
   102  C    5.998683
   103  N    7.007844
   104  C    5.959147
   105  C    6.013493
   106  C    5.991148
   107  C    6.032617
   108  C    6.000611
   109  C    5.996533
   110  C    5.999126
   111  N    6.997617
   112  C    6.043570
   113  C    6.023506
   114  C    6.005534
   115  C    6.031157
   116  C    5.996291
   117  C    6.015916
   118  O    8.031979
   119  C    6.001560
   120  C    6.005279
   121  O    8.002139
   122  O    8.001701
   123  C    5.997877
   124  H    0.989822
   125  H    0.994591
   126  H    1.013919
   127  H    0.998275
   128  H    0.994044
   129  H    0.985996
   130  H    0.999105
   131  H    1.000566
   132  H    1.009426
   133  H    0.992126
   134  H    0.995016
   135  H    1.004337
   136  H    0.984484
   137  H    0.982011
   138  H    0.983204
   139  H    0.989746
   140  H    0.988662
   141  H    0.991646
   142  H    0.997818
   143  H    0.996773
   144  H    0.988905
   145  H    1.001744
   146  H    1.003147
   147  H    0.996305
   148  H    1.012117
   149  H    1.005631
   150  H    1.005800
   151  H    0.997596
   152  H    1.016659
   153  H    1.016983
   154  H    1.020396
   155  H    1.007627
   156  H    1.005122
   157  H    1.005453
   158  H    1.000416
 Sum of Mulliken charges = 624.00000

 Dipole moment (field-independent basis, Debye):
    X=              1.5794    Y=             -7.3330    Z=              7.3391  Tot=             10.4943
 Quadrupole moment (field-independent basis, Debye-Ang):
   XX=             50.4406   YY=             -3.2134   ZZ=              0.6352
   XY=           -128.3691   XZ=            127.3936   YZ=              4.7560

 Normal termination of Gaussian 16 at Thu Sep 23 07:21:56 2021.
