 Gaussian 16, Revision A.03,
 Gaussian 16:  ES64L-G16RevA.03 25-Dec-2016

 -----------------------------------
 #p cam-b3lyp/Def2SVP td=(nstates=5)
 -----------------------------------

 --------------------------------
 TDDFT excited states in gaussian
 --------------------------------
 Symbolic Z-matrix:
 Charge =  0 Multiplicity = 1

                         Standard orientation:
 ---------------------------------------------------------------------
 Center     Atomic      Atomic             Coordinates (Angstroms)
 Number     Number       Type             X           Y           Z
 ---------------------------------------------------------------------
      1         12           0      -26.791440   -0.603847    0.336345
      2          6           0      -27.834297    2.431790   -0.995839
      3          6           0      -24.701934   -1.012619   -2.274475
      4          6           0      -26.377925   -3.844687    1.211041
      5          6           0      -29.557985   -0.493940    2.547205
      6          7           0      -26.331577    0.654060   -1.317622
      7          6           0      -26.719834    1.933401   -1.650892
      8          6           0      -26.018619    2.391357   -2.959351
      9          6           0      -25.512240    1.028738   -3.525059
     10          6           0      -25.403112    0.182555   -2.265134
     11          6           0      -26.473912    0.350315   -4.563099
     12          6           0      -25.044604    3.527971   -2.598795
     13          6           0      -25.045154    4.657492   -3.557197
     14          1           0      -24.507074    5.911283   -3.033179
     15          7           0      -25.526542   -2.098713   -0.308335
     16          6           0      -24.692675   -2.033664   -1.378347
     17          6           0      -23.759903   -3.129383   -1.295812
     18          6           0      -24.261931   -3.978450   -0.244533
     19          6           0      -25.502463   -3.349018    0.217602
     20          6           0      -22.631195   -3.324934   -2.243543
     21          6           0      -23.791846   -5.381587    0.260200
     22          8           0      -24.338846   -5.974825    1.192052
     23          6           0      -22.544026   -6.025232   -0.276673
     24          7           0      -28.069536   -2.061676    1.456466
     25          6           0      -27.544994   -3.344874    1.771503
     26          6           0      -28.330720   -4.068097    2.814759
     27          6           0      -29.175384   -2.862139    3.340257
     28          6           0      -28.866355   -1.685637    2.418153
     29          6           0      -29.163616   -5.277328    2.269516
     30          6           0      -28.851381   -2.473359    4.829020
     31          6           0      -27.352341   -2.251241    5.154475
     32          7           0      -28.321442    0.719644    0.804052
     33          6           0      -29.345418    0.655181    1.761671
     34          6           0      -30.076692    1.861561    1.651627
     35          6           0      -29.494778    2.576380    0.612087
     36          6           0      -28.460084    1.839773    0.137386
     37          6           0      -31.209729    2.273550    2.536583
     38          6           0      -29.635844    3.724179   -0.154567
     39          8           0      -30.482619    4.632338   -0.070513
     40          6           0      -28.556728    3.760072   -1.278419
     41          6           0      -27.756975    5.064190   -0.969816
     42          8           0      -27.011870    5.238962    0.010779
     43          8           0      -28.030697    5.984301   -1.976024
     44          6           0      -27.587576    7.401642   -1.782781
     45          1           0      -24.140511   -1.072060   -3.209289
     46          1           0      -26.306791   -4.811471    1.715174
     47          1           0      -30.288007   -0.313445    3.339075
     48          1           0      -26.734139    2.877710   -3.621514
     49          1           0      -24.507328    1.160531   -3.925066
     50          1           0      -27.355951    0.924470   -4.848184
     51          1           0      -26.922071   -0.547335   -4.139017
     52          1           0      -25.925828    0.186779   -5.490752
     53          1           0      -24.048726    3.095698   -2.685469
     54          1           0      -25.278590    3.853732   -1.584909
     55          1           0      -26.094165    4.846878   -3.785410
     56          1           0      -24.563794    4.329069   -4.478145
     57          1           0      -22.384248   -2.400788   -2.765758
     58          1           0      -22.834297   -4.219605   -2.833074
     59          1           0      -21.726622   -3.554326   -1.680206
     60          1           0      -22.699224   -7.091841   -0.112726
     61          1           0      -21.671057   -5.721636    0.301587
     62          1           0      -22.422622   -5.854448   -1.346794
     63          1           0      -27.726694   -4.444532    3.641509
     64          1           0      -30.233039   -3.113530    3.254750
     65          1           0      -29.306603   -5.151870    1.195903
     66          1           0      -30.157320   -5.420351    2.694307
     67          1           0      -28.713595   -6.262450    2.395792
     68          1           0      -29.321405   -3.241153    5.443807
     69          1           0      -29.452823   -1.578678    4.989646
     70          1           0      -27.147964   -1.247649    5.528016
     71          1           0      -26.801649   -2.445922    4.233762
     72          1           0      -26.981100   -2.937899    5.914664
     73          1           0      -32.048010    2.471271    1.868592
     74          1           0      -30.885303    3.144736    3.105671
     75          1           0      -31.569993    1.508029    3.223926
     76          1           0      -29.066658    3.876860   -2.234309
     77          1           0      -28.091940    7.754576   -0.883536
     78          1           0      -27.799911    8.112694   -2.581107
     79          1           0      -26.526855    7.188543   -1.649976
     80         12           0       27.648368    0.587890    0.050171
     81          6           0       24.483747   -0.595502   -1.146142
     82          6           0       25.997686    1.447309    3.059443
     83          6           0       30.656752    0.986545    1.482297
     84          6           0       29.140375   -0.924194   -2.670288
     85          7           0       25.470636    0.460423    0.887414
     86          6           0       24.440217   -0.092932    0.180158
     87          6           0       23.248335   -0.307951    1.099414
     88          6           0       23.710508    0.613796    2.304472
     89          6           0       25.155650    0.890328    2.133849
     90          6           0       22.941712    1.961792    2.512092
     91          6           0       23.024540   -1.835329    1.340601
     92          6           0       21.562316   -2.439673    1.266794
     93          1           0       20.946134   -3.100094    2.513202
     94          7           0       28.256488    1.290140    1.855541
     95          6           0       27.446753    1.611776    2.976637
     96          6           0       28.264427    2.107445    4.068368
     97          6           0       29.629837    1.957566    3.591134
     98          6           0       29.533308    1.400182    2.255042
     99          6           0       27.681415    2.477501    5.368107
    100          6           0       30.854095    2.373416    4.425169
    101          8           0       30.620382    2.763232    5.606392
    102          6           0       32.318815    2.353000    3.938888
    103          7           0       29.683003   -0.123626   -0.351512
    104          6           0       30.750041    0.320862    0.284245
    105          6           0       31.966368   -0.230823   -0.386597
    106          6           0       31.437515   -0.779892   -1.738618
    107          6           0       29.953219   -0.687347   -1.560623
    108          6           0       33.249952    0.684714   -0.580216
    109          6           0       31.923382   -2.273789   -2.114300
    110          6           0       32.823942   -2.466730   -3.358974
    111          7           0       27.005455   -0.338701   -1.648777
    112          6           0       27.702980   -0.894621   -2.653763
    113          6           0       26.847121   -1.452726   -3.635551
    114          6           0       25.568002   -1.309749   -3.092900
    115          6           0       25.706928   -0.655547   -1.842708
    116          6           0       27.143555   -2.062789   -4.946352
    117          6           0       24.205556   -1.640722   -3.376211
    118          8           0       23.760731   -2.263104   -4.314464
    119          6           0       23.395631   -1.193144   -2.001221
    120          6           0       22.367278   -0.198705   -2.329603
    121          8           0       22.515801    0.765035   -3.091616
    122          8           0       21.244120   -0.538732   -1.606126
    123          6           0       20.074700    0.321256   -1.779840
    124          1           0       25.546632    1.736791    4.009805
    125          1           0       31.651242    0.996484    1.932451
    126          1           0       29.540803   -1.207320   -3.646157
    127          1           0       22.409722    0.213541    0.637313
    128          1           0       23.623432   -0.128651    3.098620
    129          1           0       23.679968    2.764317    2.479194
    130          1           0       22.439575    2.045920    3.475623
    131          1           0       22.227341    2.222280    1.730520
    132          1           0       23.402545   -1.907787    2.360144
    133          1           0       23.644041   -2.507390    0.747181
    134          1           0       21.601378   -3.152651    0.443446
    135          1           0       20.905072   -1.680009    0.844752
    136          1           0       27.080463    1.625404    5.686605
    137          1           0       26.981950    3.303355    5.240110
    138          1           0       28.353333    2.850370    6.141594
    139          1           0       32.635179    1.311982    3.871304
    140          1           0       32.809639    3.111879    4.547342
    141          1           0       32.242308    2.775918    2.936628
    142          1           0       32.329924   -1.038322    0.247705
    143          1           0       31.690492    0.032184   -2.420378
    144          1           0       34.083351   -0.018262   -0.579773
    145          1           0       33.286897    1.404501    0.237341
    146          1           0       33.149785    1.151831   -1.560100
    147          1           0       30.989521   -2.825965   -2.218386
    148          1           0       32.367388   -2.706218   -1.217755
    149          1           0       32.467914   -3.256330   -4.019353
    150          1           0       33.835898   -2.693609   -3.022414
    151          1           0       32.962356   -1.557763   -3.944695
    152          1           0       26.262368   -2.092781   -5.586436
    153          1           0       27.438653   -3.046989   -4.582065
    154          1           0       28.102061   -1.672999   -5.288800
    155          1           0       23.048067   -2.063364   -1.445582
    156          1           0       19.828275    0.459902   -2.832774
    157          1           0       20.250327    1.283924   -1.297452
    158          1           0       19.217015   -0.158666   -1.308450
 ---------------------------------------------------------------------

 SCF Done:  E(RCAM-B3LYP) =  -4069.79708437     A.U. after   19 cycles

 Excitation energies and oscillator strengths:

 Excited State   1:      Singlet-A      1.6607 eV  746.56 nm  f=0.3770  <S**2>=0.000
     309 -> 316        0.16223
     312 -> 313        0.68892
     309 <- 316        0.10409
 This state for optimization and/or second-order correction.
 Total Energy, E(TD-HF/TD-DFT) =  -4069.73605369
 Copying the excited state density for this state as the 1-particle RhoCI density.

 Excited State   2:      Singlet-A      1.6989 eV  729.78 nm  f=0.3917  <S**2>=0.000
     310 -> 315        0.18538
     311 -> 314        0.68535
     310 <- 315        0.11151

 Excited State   3:      Singlet-A      2.2190 eV  558.75 nm  f=0.1282  <S**2>=0.000
     309 -> 313        0.64341
     312 -> 316       -0.27225

 Excited State   4:      Singlet-A      2.2522 eV  550.50 nm  f=0.1330  <S**2>=0.000
     310 -> 314        0.64099
     311 -> 315       -0.28911

 Excited State   5:      Singlet-A      3.1620 eV  392.11 nm  f=0.0000  <S**2>=0.000
     312 -> 314        0.70711

 The electronic state is 1-A.
 Alpha  occ. eigenvalues --  -46.88925 -46.88326 -19.26297 -19.24748 -19.20580
 Alpha  occ. eigenvalues --  -19.20015 -19.19760 -19.18741 -19.18149 -19.17659
 Alpha  occ. eigenvalues --  -14.41952 -14.41947 -14.41487 -14.41418 -14.39950
 Alpha  occ. eigenvalues --  -14.39844 -14.39352 -14.38510 -10.40118 -10.40033
 Alpha  occ. eigenvalues --  -10.35467 -10.35291 -10.35262 -10.33641 -10.32475
 Alpha  occ. eigenvalues --  -10.31980 -10.31209 -10.30961 -10.30792 -10.30654
 Alpha  occ. eigenvalues --  -10.30561 -10.30417 -10.30346 -10.30328 -10.30327
 Alpha  occ. eigenvalues --  -10.30246 -10.30231 -10.29774 -10.29314 -10.29210
 Alpha  occ. eigenvalues --  -10.29100 -10.28969 -10.28751 -10.28580 -10.28330
 Alpha  occ. eigenvalues --  -10.28312 -10.28251 -10.28220 -10.28119 -10.27914
 Alpha  occ. eigenvalues --  -10.27886 -10.27797 -10.27677 -10.27644 -10.27609
 Alpha  occ. eigenvalues --  -10.27559 -10.27537 -10.27504 -10.27489 -10.27474
 Alpha  occ. eigenvalues --  -10.27460 -10.27249 -10.27216 -10.27179 -10.27020
 Alpha  occ. eigenvalues --  -10.27018 -10.27014 -10.26802 -10.26736 -10.26693
 Alpha  occ. eigenvalues --  -10.26535 -10.26453 -10.26424 -10.26405 -10.26382
 Alpha  occ. eigenvalues --  -10.26253 -10.26091 -10.25950 -10.25944 -10.25836
 Alpha  occ. eigenvalues --  -10.25753 -10.25745 -10.25575 -10.25065 -10.24580
 Alpha  occ. eigenvalues --  -10.23788  -3.17479  -3.16922  -1.92369  -1.91923
 Alpha  occ. eigenvalues --   -1.91803  -1.91796  -1.91381  -1.91224  -1.16566
 Alpha  occ. eigenvalues --   -1.14421  -1.10841  -1.09481  -1.08191  -1.07951
 Alpha  occ. eigenvalues --   -1.07259  -1.06653  -1.05470  -1.04815  -1.04744
 Alpha  occ. eigenvalues --   -1.03907  -1.03761  -1.03523  -1.02358  -1.02232
 Alpha  occ. eigenvalues --   -0.93200  -0.92538  -0.89344  -0.89098  -0.89056
 Alpha  occ. eigenvalues --   -0.88592  -0.88303  -0.88151  -0.87990  -0.87804
 Alpha  occ. eigenvalues --   -0.87493  -0.87134  -0.86541  -0.86025  -0.84655
 Alpha  occ. eigenvalues --   -0.84604  -0.83877  -0.83512  -0.82746  -0.82172
 Alpha  occ. eigenvalues --   -0.82036  -0.81631  -0.81385  -0.80994  -0.80504
 Alpha  occ. eigenvalues --   -0.80397  -0.78241  -0.78213  -0.77666  -0.77078
 Alpha  occ. eigenvalues --   -0.76939  -0.76898  -0.76319  -0.76039  -0.75475
 Alpha  occ. eigenvalues --   -0.75363  -0.73255  -0.73215  -0.72233  -0.72054
 Alpha  occ. eigenvalues --   -0.69830  -0.69798  -0.69407  -0.68772  -0.68503
 Alpha  occ. eigenvalues --   -0.67541  -0.66769  -0.66538  -0.66173  -0.65654
 Alpha  occ. eigenvalues --   -0.65343  -0.65137  -0.64784  -0.64665  -0.64460
 Alpha  occ. eigenvalues --   -0.64072  -0.62980  -0.61568  -0.60163  -0.59922
 Alpha  occ. eigenvalues --   -0.59892  -0.59789  -0.59566  -0.59145  -0.58937
 Alpha  occ. eigenvalues --   -0.58451  -0.58441  -0.57612  -0.57571  -0.57005
 Alpha  occ. eigenvalues --   -0.56259  -0.56004  -0.55987  -0.55669  -0.55623
 Alpha  occ. eigenvalues --   -0.55334  -0.55084  -0.54879  -0.54769  -0.54523
 Alpha  occ. eigenvalues --   -0.53713  -0.53552  -0.53312  -0.53052  -0.52956
 Alpha  occ. eigenvalues --   -0.52938  -0.52814  -0.52652  -0.52470  -0.52116
 Alpha  occ. eigenvalues --   -0.51939  -0.51783  -0.51676  -0.51464  -0.51433
 Alpha  occ. eigenvalues --   -0.51247  -0.50600  -0.50497  -0.50356  -0.50353
 Alpha  occ. eigenvalues --   -0.50049  -0.49991  -0.49638  -0.49586  -0.49428
 Alpha  occ. eigenvalues --   -0.49393  -0.49201  -0.48919  -0.48805  -0.48766
 Alpha  occ. eigenvalues --   -0.48524  -0.48482  -0.48090  -0.47981  -0.47957
 Alpha  occ. eigenvalues --   -0.47760  -0.47690  -0.47672  -0.47610  -0.47469
 Alpha  occ. eigenvalues --   -0.47369  -0.47049  -0.47038  -0.46664  -0.46618
 Alpha  occ. eigenvalues --   -0.46473  -0.46302  -0.46145  -0.45996  -0.45952
 Alpha  occ. eigenvalues --   -0.45707  -0.45640  -0.45474  -0.45394  -0.44999
 Alpha  occ. eigenvalues --   -0.44613  -0.44558  -0.44493  -0.44186  -0.43795
 Alpha  occ. eigenvalues --   -0.43757  -0.43675  -0.43576  -0.43471  -0.43448
 Alpha  occ. eigenvalues --   -0.43293  -0.43195  -0.43103  -0.43061  -0.42966
 Alpha  occ. eigenvalues --   -0.42825  -0.42700  -0.42371  -0.42340  -0.41969
 Alpha  occ. eigenvalues --   -0.41749  -0.41594  -0.41542  -0.41246  -0.41123
 Alpha  occ. eigenvalues --   -0.41071  -0.40872  -0.40850  -0.40653  -0.40353
 Alpha  occ. eigenvalues --   -0.40301  -0.40245  -0.39960  -0.39165  -0.38944
 Alpha  occ. eigenvalues --   -0.38762  -0.38266  -0.38210  -0.38039  -0.37743
 Alpha  occ. eigenvalues --   -0.37656  -0.37371  -0.36836  -0.36603  -0.36465
 Alpha  occ. eigenvalues --   -0.36080  -0.35869  -0.35209  -0.34190  -0.34130
 Alpha  occ. eigenvalues --   -0.34095  -0.33232  -0.33035  -0.31348  -0.31321
 Alpha  occ. eigenvalues --   -0.31144  -0.30830  -0.30349  -0.30127  -0.30061
 Alpha  occ. eigenvalues --   -0.29727  -0.29407  -0.29386  -0.24246  -0.24187
 Alpha  occ. eigenvalues --   -0.21329  -0.21197
 Alpha virt. eigenvalues --   -0.09009  -0.08945  -0.01749  -0.01518   0.00265
 Alpha virt. eigenvalues --    0.00527   0.02189   0.02283   0.02408   0.02419
 Alpha virt. eigenvalues --    0.04229   0.04955   0.04990   0.05066   0.05812

 Mulliken charges:
               1
     1  Mg   0.820605
     2  C   -0.060310
     3  C   -0.109637
     4  C   -0.010556
     5  C   -0.097853
     6  N   -0.339984
     7  C   -0.020875
     8  C   -0.061516
     9  C   -0.031295
    10  C    0.010377
    11  C    0.081261
    12  C    0.079403
    13  C   -0.068963
    14  H    0.035458
    15  N   -0.383314
    16  C    0.220946
    17  C   -0.158632
    18  C   -0.040019
    19  C    0.171595
    20  C    0.117516
    21  C    0.010822
    22  O   -0.218681
    23  C    0.055155
    24  N   -0.251731
    25  C   -0.074985
    26  C   -0.004102
    27  C   -0.051249
    28  C    0.088328
    29  C    0.063734
    30  C    0.024263
    31  C    0.002174
    32  N   -0.340234
    33  C    0.098564
    34  C   -0.182191
    35  C    0.104008
    36  C    0.159831
    37  C    0.133473
    38  C   -0.059259
    39  O   -0.207734
    40  C    0.035651
    41  C    0.229300
    42  O   -0.241933
    43  O   -0.360275
    44  C    0.180280
    45  H   -0.026168
    46  H   -0.008837
    47  H   -0.021090
    48  H   -0.002241
    49  H   -0.007343
    50  H    0.013761
    51  H    0.031707
    52  H    0.021222
    53  H   -0.004189
    54  H    0.042607
    55  H    0.020617
    56  H    0.016839
    57  H    0.018559
    58  H    0.045550
    59  H    0.019793
    60  H    0.029504
    61  H    0.051893
    62  H    0.006376
    63  H    0.019261
    64  H    0.003030
    65  H    0.017810
    66  H    0.011238
    67  H    0.020585
    68  H    0.005227
    69  H   -0.001524
    70  H    0.023080
    71  H    0.027956
    72  H    0.019140
    73  H    0.034977
    74  H    0.045134
    75  H   -0.002635
    76  H    0.036111
    77  H    0.050381
    78  H    0.051189
    79  H    0.043063
    80  Mg   0.845495
    81  C   -0.112945
    82  C   -0.073131
    83  C   -0.090991
    84  C   -0.092588
    85  N   -0.247124
    86  C   -0.075160
    87  C   -0.009289
    88  C   -0.029552
    89  C    0.035776
    90  C    0.076704
    91  C    0.033459
    92  C   -0.045946
    93  H    0.033758
    94  N   -0.393834
    95  C    0.113894
    96  C   -0.127917
    97  C   -0.056949
    98  C    0.207471
    99  C    0.128626
   100  C   -0.019434
   101  O   -0.248915
   102  C    0.082581
   103  N   -0.275365
   104  C   -0.016077
   105  C   -0.039373
   106  C   -0.051980
   107  C    0.065263
   108  C    0.078736
   109  C    0.053587
   110  C    0.008846
   111  N   -0.340873
   112  C    0.091971
   113  C   -0.194204
   114  C   -0.020896
   115  C    0.159313
   116  C    0.167678
   117  C    0.065248
   118  O   -0.152092
   119  C    0.021592
   120  C    0.224368
   121  O   -0.224392
   122  O   -0.341396
   123  C    0.178513
   124  H   -0.025597
   125  H   -0.057464
   126  H   -0.022563
   127  H   -0.004152
   128  H    0.003352
   129  H    0.016665
   130  H    0.023088
   131  H    0.015142
   132  H    0.006916
   133  H    0.030315
   134  H    0.025802
   135  H    0.020577
   136  H    0.025875
   137  H    0.010150
   138  H    0.043824
   139  H    0.062296
   140  H    0.038788
   141  H    0.023405
   142  H    0.011770
   143  H    0.009061
   144  H    0.018298
   145  H    0.020283
   146  H    0.011086
   147  H    0.009904
   148  H    0.000821
   149  H    0.024632
   150  H    0.014044
   151  H    0.012623
   152  H    0.056970
   153  H    0.022579
   154  H    0.007151
   155  H    0.030630
   156  H    0.047760
   157  H    0.034991
   158  H    0.038523
 Sum of Mulliken charges =  -0.00000

 Dipole moment (field-independent basis, Debye):
    X=              3.6221    Y=             -2.3782    Z=             -2.0911  Tot=              4.8113
 Quadrupole moment (field-independent basis, Debye-Ang):
   XX=           -534.6423   YY=           -528.9702   ZZ=           -526.2657
   XY=             29.3091   XZ=              6.6919   YZ=            -17.8468

 Normal termination of Gaussian 16 at Wed Sep 15 09:19:50 2021.
