 Gaussian 16, Revision A.03,
 Gaussian 16:  ES64L-G16RevA.03 25-Dec-2016

 ----------------------------------------------------------
 #p cam-b3lyp/Def2SVP td=(nstates=5) density=(transition=1)
 ----------------------------------------------------------

 --------------------------------
 TDDFT excited states in gaussian
 --------------------------------
 Symbolic Z-matrix:
 Charge =  0 Multiplicity = 1

                         Standard orientation:
 ---------------------------------------------------------------------
 Center     Atomic      Atomic             Coordinates (Angstroms)
 Number     Number       Type             X           Y           Z
 ---------------------------------------------------------------------
      1         12           0      -17.242369   -0.918418    0.155160
      2          6           0      -17.521010    2.360550   -1.029602
      3          6           0      -17.054700    0.456219    3.335278
      4          6           0      -16.554527   -3.908719    1.230449
      5          6           0      -17.229769   -2.030304   -3.207462
      6          7           0      -16.878331    1.241226    1.035087
      7          6           0      -17.200073    2.355144    0.369439
      8          6           0      -17.169185    3.488889    1.339140
      9          6           0      -16.581823    2.889933    2.640611
     10          6           0      -16.869582    1.427439    2.364730
     11          6           0      -15.122905    3.159701    3.013099
     12          6           0      -18.588315    4.098798    1.569230
     13          6           0      -18.771605    5.648094    1.476130
     14          1           0      -17.578538    6.579617    1.855939
     15          7           0      -16.997759   -1.665914    2.085231
     16          6           0      -17.150131   -0.927579    3.251339
     17          6           0      -17.043354   -1.851610    4.333163
     18          6           0      -16.760536   -3.153428    3.754519
     19          6           0      -16.766962   -2.981562    2.309422
     20          6           0      -17.085087   -1.462561    5.827150
     21          6           0      -16.431316   -4.504000    4.453156
     22          8           0      -16.193216   -5.519174    3.879444
     23          6           0      -16.490836   -4.499307    5.968023
     24          7           0      -16.956719   -2.682757   -0.871598
     25          6           0      -16.612186   -3.795523   -0.185719
     26          6           0      -16.407752   -5.049353   -1.079974
     27          6           0      -16.898481   -4.470420   -2.476019
     28          6           0      -17.074049   -2.981251   -2.203265
     29          6           0      -14.853063   -5.555055   -1.018005
     30          6           0      -18.124029   -5.229253   -3.075194
     31          6           0      -19.502521   -4.628362   -2.866298
     32          7           0      -17.389007   -0.075239   -1.792911
     33          6           0      -17.457898   -0.653035   -3.031847
     34          6           0      -17.651737    0.440366   -4.047831
     35          6           0      -17.681077    1.628757   -3.283581
     36          6           0      -17.476385    1.292681   -1.904391
     37          6           0      -17.620175    0.321368   -5.547377
     38          6           0      -17.811714    3.082222   -3.350165
     39          8           0      -17.959322    3.786103   -4.353329
     40          6           0      -17.873973    3.556649   -1.901338
     41          6           0      -16.871794    4.670192   -1.794898
     42          8           0      -15.666608    4.523169   -1.705893
     43          8           0      -17.548838    5.785856   -2.011540
     44          6           0      -16.805829    6.981399   -2.377803
     45          1           0      -16.851741    0.886555    4.317691
     46          1           0      -16.505334   -4.942126    1.578987
     47          1           0      -17.240926   -2.376305   -4.243433
     48          1           0      -16.532773    4.274874    0.933799
     49          1           0      -17.153669    3.330823    3.457237
     50          1           0      -14.565754    3.816541    2.344847
     51          1           0      -14.573306    2.220932    3.087511
     52          1           0      -15.145959    3.617936    4.001583
     53          1           0      -19.069886    3.748010    2.481755
     54          1           0      -19.115671    3.617300    0.745844
     55          1           0      -19.594723    5.845183    2.164117
     56          1           0      -19.079127    5.900149    0.461561
     57          1           0      -16.228672   -1.830554    6.392244
     58          1           0      -17.914533   -1.933979    6.354525
     59          1           0      -17.180281   -0.391894    6.012786
     60          1           0      -17.422367   -4.084281    6.353423
     61          1           0      -15.610491   -3.972511    6.336445
     62          1           0      -16.307947   -5.500920    6.357110
     63          1           0      -17.030337   -5.889045   -0.771579
     64          1           0      -16.160678   -4.587616   -3.269626
     65          1           0      -14.445754   -5.290490   -1.993908
     66          1           0      -14.749819   -6.640041   -0.990838
     67          1           0      -14.240290   -5.022217   -0.290015
     68          1           0      -18.157911   -6.156613   -2.503223
     69          1           0      -17.986512   -5.480918   -4.126592
     70          1           0      -19.496739   -4.316006   -1.821316
     71          1           0      -20.139783   -5.489322   -3.066794
     72          1           0      -19.805173   -3.725813   -3.396626
     73          1           0      -17.365565   -0.641364   -5.990677
     74          1           0      -16.891081    1.026704   -5.946406
     75          1           0      -18.591346    0.687224   -5.879166
     76          1           0      -18.798910    4.063598   -1.625686
     77          1           0      -15.733603    6.923401   -2.562318
     78          1           0      -16.900369    7.599912   -1.484748
     79          1           0      -17.453725    7.608010   -2.990862
     80         12           0       17.673422   -0.495608    0.243259
     81          6           0       15.117119    1.949331    0.198649
     82          6           0       19.839203    1.970671    0.236634
     83          6           0       19.867798   -2.755186   -0.762249
     84          6           0       15.098295   -2.843488   -0.452839
     85          7           0       17.389572    1.746465    0.398218
     86          6           0       16.349773    2.496280    0.451967
     87          6           0       16.732991    3.942178    0.828815
     88          6           0       18.274393    4.040347    0.364086
     89          6           0       18.537929    2.481767    0.243440
     90          6           0       18.559550    4.822322   -0.978816
     91          6           0       16.637017    4.162426    2.427929
     92          6           0       16.229259    5.553036    3.013646
     93          1           0       16.600274    6.809535    2.142777
     94          7           0       19.635874   -0.452433   -0.001382
     95          6           0       20.374611    0.716153    0.107359
     96          6           0       21.824736    0.379401   -0.116218
     97          6           0       21.819376   -1.054028   -0.379124
     98          6           0       20.442445   -1.554336   -0.413742
     99          6           0       22.895180    1.454045   -0.089658
    100          6           0       23.023899   -1.943908   -0.593560
    101          8           0       22.967884   -3.153137   -0.857057
    102          6           0       24.370402   -1.359869   -0.447577
    103          7           0       17.505924   -2.620392   -0.427103
    104          6           0       18.590718   -3.264426   -0.818039
    105          6           0       18.284956   -4.823027   -0.943449
    106          6           0       16.663514   -4.799403   -0.857125
    107          6           0       16.403108   -3.333570   -0.520685
    108          6           0       18.887866   -5.486083   -2.225808
    109          6           0       15.968168   -5.757488    0.164940
    110          6           0       15.165097   -6.898843   -0.404110
    111          7           0       15.492376   -0.551365    0.136168
    112          6           0       14.642268   -1.599300   -0.156300
    113          6           0       13.324247   -1.131794   -0.272187
    114          6           0       13.474966    0.264839   -0.180035
    115          6           0       14.789134    0.607886    0.033012
    116          6           0       12.121460   -1.893466   -0.521907
    117          6           0       12.693084    1.439308   -0.141883
    118          8           0       11.460738    1.706639   -0.148026
    119          6           0       13.770155    2.615027   -0.166906
    120          6           0       13.363050    3.706436    0.753658
    121          8           0       13.232364    3.654972    1.974885
    122          8           0       13.253932    4.898110   -0.030303
    123          6           0       12.848603    6.124322    0.668619
    124          1           0       20.517687    2.815535    0.375099
    125          1           0       20.613122   -3.505129   -1.032881
    126          1           0       14.306825   -3.584363   -0.588726
    127          1           0       16.224719    4.599416    0.123744
    128          1           0       18.815898    4.625933    1.106235
    129          1           0       17.646094    5.010152   -1.542692
    130          1           0       19.186031    4.242243   -1.656181
    131          1           0       19.020426    5.763600   -0.679539
    132          1           0       17.560420    3.854045    2.918411
    133          1           0       15.939332    3.425127    2.825573
    134          1           0       16.654617    5.756924    3.996821
    135          1           0       15.141187    5.605056    2.958521
    136          1           0       23.772532    1.146334    0.480397
    137          1           0       22.540793    2.402993    0.312904
    138          1           0       23.113702    1.768595   -1.109853
    139          1           0       24.515172   -0.527640   -1.137022
    140          1           0       25.126051   -2.123630   -0.631575
    141          1           0       24.619418   -0.991707    0.547689
    142          1           0       18.619807   -5.388183   -0.073712
    143          1           0       16.198997   -4.867932   -1.841910
    144          1           0       19.334782   -4.728823   -2.870205
    145          1           0       18.021726   -6.037391   -2.592375
    146          1           0       19.578006   -6.256444   -1.884227
    147          1           0       15.278926   -5.153673    0.755653
    148          1           0       16.713449   -6.152222    0.855768
    149          1           0       15.408774   -6.869172   -1.465282
    150          1           0       14.109405   -6.648721   -0.292766
    151          1           0       15.458008   -7.872507   -0.013277
    152          1           0       12.102943   -2.698157    0.212612
    153          1           0       12.119655   -2.501111   -1.426865
    154          1           0       11.248669   -1.253863   -0.389276
    155          1           0       13.835102    2.991987   -1.188084
    156          1           0       12.712404    6.943909   -0.037434
    157          1           0       13.689654    6.473251    1.268059
    158          1           0       11.893110    5.954349    1.163726
 ---------------------------------------------------------------------

 SCF Done:  E(RCAM-B3LYP) =  -4069.77628093     A.U. after   19 cycles

 Excitation energies and oscillator strengths:

 Excited State   1:      Singlet-A      1.7292 eV  717.00 nm  f=0.3968  <S**2>=0.000
     310 -> 316        0.18718
     312 -> 314        0.68375
     310 <- 316        0.10975
 This state for optimization and/or second-order correction.
 Total Energy, E(TD-HF/TD-DFT) =  -4069.71273384
 Copying the excited state density for this state as the 1-particle RhoCI density.

 Excited State   2:      Singlet-A      1.7997 eV  688.92 nm  f=0.3668  <S**2>=0.000
     309 -> 315        0.21210
     311 -> 313        0.67498
     309 <- 315        0.10953

 Excited State   3:      Singlet-A      2.2138 eV  560.04 nm  f=0.0972  <S**2>=0.000
     310 -> 314        0.64243
     312 -> 316       -0.28225

 Excited State   4:      Singlet-A      2.2245 eV  557.36 nm  f=0.0831  <S**2>=0.000
     309 -> 313        0.62924
     311 -> 315       -0.30795

 Excited State   5:      Singlet-A      3.1057 eV  399.22 nm  f=0.0000  <S**2>=0.000
     312 -> 313        0.70708

 The electronic state is 1-A.
 Alpha  occ. eigenvalues --  -46.89390 -46.88745 -19.26211 -19.23939 -19.20216
 Alpha  occ. eigenvalues --  -19.19595 -19.19368 -19.18996 -19.18578 -19.18448
 Alpha  occ. eigenvalues --  -14.42149 -14.41736 -14.41720 -14.41550 -14.39970
 Alpha  occ. eigenvalues --  -14.39268 -14.38692 -14.38564 -10.39289 -10.39105
 Alpha  occ. eigenvalues --  -10.35419 -10.35124 -10.34484 -10.34450 -10.32008
 Alpha  occ. eigenvalues --  -10.31520 -10.31217 -10.31085 -10.31025 -10.30962
 Alpha  occ. eigenvalues --  -10.30749 -10.30743 -10.30706 -10.30617 -10.30594
 Alpha  occ. eigenvalues --  -10.30306 -10.30246 -10.29690 -10.29515 -10.29438
 Alpha  occ. eigenvalues --  -10.29336 -10.29331 -10.29210 -10.28930 -10.28660
 Alpha  occ. eigenvalues --  -10.28643 -10.28568 -10.28390 -10.28383 -10.28329
 Alpha  occ. eigenvalues --  -10.28304 -10.28235 -10.28160 -10.28011 -10.28005
 Alpha  occ. eigenvalues --  -10.27834 -10.27592 -10.27537 -10.27518 -10.27489
 Alpha  occ. eigenvalues --  -10.27465 -10.27102 -10.27075 -10.26972 -10.26963
 Alpha  occ. eigenvalues --  -10.26648 -10.26642 -10.26558 -10.26445 -10.26379
 Alpha  occ. eigenvalues --  -10.26374 -10.26299 -10.26259 -10.26225 -10.26024
 Alpha  occ. eigenvalues --  -10.25902 -10.25898 -10.25858 -10.25826 -10.25809
 Alpha  occ. eigenvalues --  -10.25749 -10.25401 -10.25332 -10.25164 -10.25037
 Alpha  occ. eigenvalues --  -10.24638  -3.17843  -3.17201  -1.92747  -1.92309
 Alpha  occ. eigenvalues --   -1.92129  -1.92110  -1.91692  -1.91462  -1.18287
 Alpha  occ. eigenvalues --   -1.13963  -1.11320  -1.09566  -1.09420  -1.08623
 Alpha  occ. eigenvalues --   -1.07283  -1.06723  -1.05780  -1.05208  -1.04970
 Alpha  occ. eigenvalues --   -1.03730  -1.03486  -1.02555  -1.01816  -1.01467
 Alpha  occ. eigenvalues --   -0.93307  -0.92954  -0.89495  -0.88676  -0.88608
 Alpha  occ. eigenvalues --   -0.88570  -0.87977  -0.87895  -0.87549  -0.87374
 Alpha  occ. eigenvalues --   -0.87052  -0.86907  -0.86191  -0.85488  -0.84397
 Alpha  occ. eigenvalues --   -0.84271  -0.83970  -0.83682  -0.82722  -0.82575
 Alpha  occ. eigenvalues --   -0.82058  -0.81508  -0.81366  -0.80740  -0.80666
 Alpha  occ. eigenvalues --   -0.79979  -0.78966  -0.77864  -0.77710  -0.77296
 Alpha  occ. eigenvalues --   -0.76967  -0.76960  -0.76263  -0.75886  -0.75234
 Alpha  occ. eigenvalues --   -0.75069  -0.73220  -0.72631  -0.72253  -0.71662
 Alpha  occ. eigenvalues --   -0.69485  -0.68928  -0.68847  -0.68592  -0.67998
 Alpha  occ. eigenvalues --   -0.67924  -0.67225  -0.66055  -0.65922  -0.65658
 Alpha  occ. eigenvalues --   -0.65593  -0.65221  -0.64923  -0.64602  -0.64597
 Alpha  occ. eigenvalues --   -0.64294  -0.62762  -0.61253  -0.60534  -0.60143
 Alpha  occ. eigenvalues --   -0.59806  -0.59611  -0.59285  -0.59160  -0.58416
 Alpha  occ. eigenvalues --   -0.58345  -0.58055  -0.57739  -0.57335  -0.57264
 Alpha  occ. eigenvalues --   -0.56992  -0.56821  -0.55959  -0.55765  -0.55477
 Alpha  occ. eigenvalues --   -0.54915  -0.54748  -0.54631  -0.54444  -0.53792
 Alpha  occ. eigenvalues --   -0.53547  -0.53529  -0.53217  -0.53210  -0.52962
 Alpha  occ. eigenvalues --   -0.52893  -0.52605  -0.52476  -0.52471  -0.52239
 Alpha  occ. eigenvalues --   -0.51980  -0.51655  -0.51553  -0.51296  -0.51191
 Alpha  occ. eigenvalues --   -0.51107  -0.50999  -0.50914  -0.50548  -0.50344
 Alpha  occ. eigenvalues --   -0.50085  -0.49864  -0.49636  -0.49557  -0.49357
 Alpha  occ. eigenvalues --   -0.49198  -0.49153  -0.48798  -0.48784  -0.48664
 Alpha  occ. eigenvalues --   -0.48623  -0.48378  -0.48323  -0.48068  -0.48042
 Alpha  occ. eigenvalues --   -0.47917  -0.47807  -0.47612  -0.47311  -0.47256
 Alpha  occ. eigenvalues --   -0.47030  -0.46849  -0.46790  -0.46360  -0.46298
 Alpha  occ. eigenvalues --   -0.46100  -0.45970  -0.45855  -0.45820  -0.45609
 Alpha  occ. eigenvalues --   -0.45582  -0.45544  -0.45337  -0.45308  -0.44957
 Alpha  occ. eigenvalues --   -0.44909  -0.44778  -0.44405  -0.44224  -0.43926
 Alpha  occ. eigenvalues --   -0.43909  -0.43707  -0.43556  -0.43334  -0.43285
 Alpha  occ. eigenvalues --   -0.43210  -0.43017  -0.42986  -0.42898  -0.42666
 Alpha  occ. eigenvalues --   -0.42605  -0.42118  -0.41933  -0.41706  -0.41687
 Alpha  occ. eigenvalues --   -0.41603  -0.41579  -0.41169  -0.41156  -0.41055
 Alpha  occ. eigenvalues --   -0.40955  -0.40751  -0.40678  -0.40644  -0.40286
 Alpha  occ. eigenvalues --   -0.40228  -0.40051  -0.39570  -0.39246  -0.39028
 Alpha  occ. eigenvalues --   -0.38485  -0.38349  -0.37827  -0.37396  -0.37108
 Alpha  occ. eigenvalues --   -0.37058  -0.36670  -0.36445  -0.36345  -0.36168
 Alpha  occ. eigenvalues --   -0.36104  -0.35637  -0.34474  -0.34348  -0.34012
 Alpha  occ. eigenvalues --   -0.33899  -0.33546  -0.33103  -0.31792  -0.31359
 Alpha  occ. eigenvalues --   -0.31293  -0.30730  -0.30500  -0.30332  -0.30243
 Alpha  occ. eigenvalues --   -0.29873  -0.29290  -0.28902  -0.24157  -0.23741
 Alpha  occ. eigenvalues --   -0.21668  -0.21022
 Alpha virt. eigenvalues --   -0.08609  -0.08435  -0.02646  -0.01468  -0.00233
 Alpha virt. eigenvalues --    0.00244   0.02262   0.02328   0.02868   0.02926
 Alpha virt. eigenvalues --    0.04584   0.05116   0.05510   0.05610   0.05657

 Mulliken charges:
               1
     1  Mg  12.002438
     2  C    6.014044
     3  C    5.977790
     4  C    5.984196
     5  C    6.026592
     6  N    6.996469
     7  C    5.969896
     8  C    6.005379
     9  C    5.989786
    10  C    6.040150
    11  C    5.999364
    12  C    6.001780
    13  C    6.001621
    14  H    0.994548
    15  N    6.988313
    16  C    6.050046
    17  C    6.013959
    18  C    6.018762
    19  C    6.033835
    20  C    5.995620
    21  C    6.014693
    22  O    8.026351
    23  C    5.993072
    24  N    7.005899
    25  C    6.032982
    26  C    5.989556
    27  C    6.011652
    28  C    5.961644
    29  C    5.993176
    30  C    6.001508
    31  C    6.008146
    32  N    7.007188
    33  C    5.952369
    34  C    5.971380
    35  C    5.995835
    36  C    5.965667
    37  C    6.004093
    38  C    5.983283
    39  O    7.970552
    40  C    6.002354
    41  C    5.994585
    42  O    7.993148
    43  O    7.999546
    44  C    6.005130
    45  H    1.009626
    46  H    1.006603
    47  H    0.994352
    48  H    0.998225
    49  H    1.002450
    50  H    1.013918
    51  H    0.995177
    52  H    1.002144
    53  H    0.985315
    54  H    1.007242
    55  H    0.995292
    56  H    1.005088
    57  H    1.018010
    58  H    1.019289
    59  H    1.019401
    60  H    1.006412
    61  H    1.008638
    62  H    1.015884
    63  H    1.000900
    64  H    0.998234
    65  H    1.012913
    66  H    1.003914
    67  H    0.996422
    68  H    0.988618
    69  H    0.999536
    70  H    0.989167
    71  H    0.994475
    72  H    1.007767
    73  H    0.979246
    74  H    0.981444
    75  H    0.981149
    76  H    0.989435
    77  H    0.996290
    78  H    0.992696
    79  H    0.996334
    80  Mg  11.999970
    81  C    6.000037
    82  C    6.000007
    83  C    5.999951
    84  C    5.999987
    85  N    7.000028
    86  C    5.999924
    87  C    6.000016
    88  C    5.999948
    89  C    6.000079
    90  C    5.999967
    91  C    6.000025
    92  C    5.999985
    93  H    1.000075
    94  N    6.999973
    95  C    6.000087
    96  C    6.000099
    97  C    5.999993
    98  C    6.000101
    99  C    5.999966
   100  C    6.000063
   101  O    8.000058
   102  C    5.999970
   103  N    6.999997
   104  C    6.000097
   105  C    5.999946
   106  C    6.000022
   107  C    5.999922
   108  C    6.000007
   109  C    6.000046
   110  C    6.000002
   111  N    7.000003
   112  C    5.999901
   113  C    5.999842
   114  C    6.000077
   115  C    5.999913
   116  C    6.000054
   117  C    5.999926
   118  O    7.999931
   119  C    6.000010
   120  C    5.999987
   121  O    7.999911
   122  O    8.000032
   123  C    5.999986
   124  H    1.000039
   125  H    1.000004
   126  H    0.999936
   127  H    1.000057
   128  H    1.000018
   129  H    1.000100
   130  H    1.000024
   131  H    1.000045
   132  H    0.999939
   133  H    0.999960
   134  H    0.999945
   135  H    0.999991
   136  H    1.000050
   137  H    1.000056
   138  H    1.000114
   139  H    1.000054
   140  H    1.000050
   141  H    1.000002
   142  H    0.999970
   143  H    1.000045
   144  H    1.000038
   145  H    1.000026
   146  H    0.999980
   147  H    0.999951
   148  H    0.999922
   149  H    1.000047
   150  H    0.999958
   151  H    0.999926
   152  H    0.999825
   153  H    0.999966
   154  H    0.999935
   155  H    1.000071
   156  H    1.000095
   157  H    0.999973
   158  H    0.999967
 Sum of Mulliken charges = 624.00000

 Dipole moment (field-independent basis, Debye):
    X=              1.3622    Y=             -4.9763    Z=              9.7163  Tot=             11.0011
 Quadrupole moment (field-independent basis, Debye-Ang):
   XX=            -44.2466   YY=              3.3479   ZZ=              4.7169
   XY=             84.3816   XZ=           -167.5841   YZ=             -8.5067

 Normal termination of Gaussian 16 at Thu Sep 23 13:32:22 2021.
