 Gaussian 16, Revision A.03,
 Gaussian 16:  ES64L-G16RevA.03 25-Dec-2016

 ----------------------------------------------------------
 #p cam-b3lyp/Def2SVP td=(nstates=5) density=(transition=1)
 ----------------------------------------------------------

 --------------------------------
 TDDFT excited states in gaussian
 --------------------------------
 Symbolic Z-matrix:
 Charge =  0 Multiplicity = 1

                         Standard orientation:
 ---------------------------------------------------------------------
 Center     Atomic      Atomic             Coordinates (Angstroms)
 Number     Number       Type             X           Y           Z
 ---------------------------------------------------------------------
      1         12           0       18.643546   -0.223748   -0.048084
      2          6           0       15.233358   -0.699705   -0.028816
      3          6           0       18.277603    1.783246   -2.787127
      4          6           0       21.547749    1.137743    0.742272
      5          6           0       18.829907   -2.278742    2.792647
      6          7           0       16.846911    0.795790   -0.941228
      7          6           0       15.597126    0.264727   -0.936595
      8          6           0       14.699276    0.884623   -1.966163
      9          6           0       15.763130    1.297979   -3.034056
     10          6           0       17.059547    1.221379   -2.241259
     11          6           0       15.713686    0.418318   -4.316149
     12          6           0       13.909418    2.166138   -1.393637
     13          6           0       12.427816    2.368157   -1.959798
     14          1           0       12.375388    3.705217   -2.656619
     15          7           0       19.835157    1.120316   -1.031346
     16          6           0       19.530177    1.919170   -2.077470
     17          6           0       20.647872    2.798149   -2.397381
     18          6           0       21.619293    2.594941   -1.395744
     19          6           0       21.004209    1.578136   -0.497047
     20          6           0       20.584714    3.769192   -3.601274
     21          6           0       22.839614    3.461405   -1.254521
     22          8           0       23.055217    4.319430   -2.070335
     23          6           0       23.845409    3.374907   -0.090696
     24          7           0       20.111115   -0.596789    1.485490
     25          6           0       21.162694    0.087318    1.585458
     26          6           0       21.938686   -0.197610    2.817918
     27          6           0       21.078423   -1.328646    3.506870
     28          6           0       19.949329   -1.424254    2.575338
     29          6           0       23.433182   -0.538356    2.496682
     30          6           0       20.623841   -0.921874    4.984559
     31          6           0       20.166512   -2.076620    5.945149
     32          7           0       17.371752   -1.352830    1.121143
     33          6           0       17.615270   -2.214870    2.174944
     34          6           0       16.422124   -2.933978    2.526011
     35          6           0       15.435634   -2.395364    1.627642
     36          6           0       16.036493   -1.390349    0.894486
     37          6           0       16.260679   -3.987561    3.573984
     38          6           0       14.075156   -2.508711    1.229004
     39          8           0       13.111806   -3.197957    1.588098
     40          6           0       13.837603   -1.287895    0.279690
     41          6           0       13.057428   -1.799380   -0.885167
     42          8           0       11.822607   -1.763018   -0.980590
     43          8           0       13.905435   -2.362415   -1.798505
     44          6           0       13.104591   -2.909612   -2.929474
     45          1           0       18.297028    2.326566   -3.734563
     46          1           0       22.475410    1.647266    1.009052
     47          1           0       18.863458   -2.806483    3.748856
     48          1           0       14.094898    0.051055   -2.321687
     49          1           0       15.542778    2.307334   -3.381937
     50          1           0       15.432706    1.038356   -5.166955
     51          1           0       14.900108   -0.295422   -4.182591
     52          1           0       16.675049   -0.087001   -4.403073
     53          1           0       14.435502    3.119305   -1.444446
     54          1           0       13.791937    2.085001   -0.313507
     55          1           0       11.810572    2.438389   -1.064030
     56          1           0       11.963959    1.582378   -2.556137
     57          1           0       20.704099    4.822680   -3.348541
     58          1           0       19.688666    3.660835   -4.213393
     59          1           0       21.376111    3.468531   -4.287047
     60          1           0       24.380313    2.426470   -0.053599
     61          1           0       23.405556    3.581823    0.885239
     62          1           0       24.484146    4.249392   -0.218448
     63          1           0       21.852981    0.729435    3.384634
     64          1           0       21.477880   -2.342236    3.531240
     65          1           0       24.043272    0.192783    3.026633
     66          1           0       23.634862   -0.516057    1.425583
     67          1           0       23.796941   -1.446268    2.977551
     68          1           0       19.800095   -0.209216    4.938634
     69          1           0       21.482040   -0.407188    5.414156
     70          1           0       20.685104   -2.266246    6.884539
     71          1           0       20.249188   -3.041945    5.447609
     72          1           0       19.119966   -1.944751    6.219884
     73          1           0       17.173884   -4.360876    4.037029
     74          1           0       15.744430   -4.742108    2.981849
     75          1           0       15.540049   -3.491925    4.224602
     76          1           0       13.318043   -0.450594    0.746838
     77          1           0       12.542153   -3.777350   -2.586282
     78          1           0       13.723367   -3.366317   -3.701928
     79          1           0       12.493805   -2.096889   -3.323120
     80         12           0      -18.290596    0.336723    0.431042
     81          6           0      -15.460462   -1.124136   -1.075323
     82          6           0      -19.948656   -2.603708    0.063069
     83          6           0      -21.014942    1.823345    1.775600
     84          6           0      -16.667564    3.405630    0.352854
     85          7           0      -17.813265   -1.576962   -0.482354
     86          6           0      -16.557321   -1.990788   -0.934591
     87          6           0      -16.590166   -3.463195   -1.214791
     88          6           0      -18.107515   -3.751017   -1.307434
     89          6           0      -18.675181   -2.548371   -0.510324
     90          6           0      -18.749383   -3.787160   -2.730279
     91          6           0      -15.852436   -4.379176   -0.167085
     92          6           0      -14.950301   -5.407893   -0.770990
     93          1           0      -15.041357   -6.830357   -0.187644
     94          7           0      -20.126787   -0.334047    0.936238
     95          6           0      -20.624922   -1.639577    0.791321
     96          6           0      -21.923281   -1.723559    1.330918
     97          6           0      -22.290759   -0.402308    1.870900
     98          6           0      -21.148007    0.407795    1.558815
     99          6           0      -22.837282   -2.910256    1.237767
    100          6           0      -23.619993    0.153832    2.543755
    101          8           0      -23.685974    1.294347    2.936909
    102          6           0      -24.808199   -0.760877    2.804610
    103          7           0      -18.805302    2.360712    0.882712
    104          6           0      -20.009541    2.695510    1.413955
    105          6           0      -20.095145    4.281395    1.633052
    106          6           0      -18.583340    4.745727    1.457110
    107          6           0      -17.953489    3.420992    0.848861
    108          6           0      -21.052222    5.057007    0.686191
    109          6           0      -17.885142    5.189838    2.791626
    110          6           0      -17.283495    6.525985    2.663471
    111          7           0      -16.470899    1.037559   -0.261862
    112          6           0      -15.900017    2.301935   -0.124650
    113          6           0      -14.558556    2.290601   -0.641380
    114          6           0      -14.360031    0.986129   -1.045501
    115          6           0      -15.484945    0.268549   -0.786239
    116          6           0      -13.633474    3.534363   -0.588126
    117          6           0      -13.416029    0.075460   -1.666844
    118          8           0      -12.342970    0.338086   -2.163681
    119          6           0      -14.122937   -1.368244   -1.733640
    120          6           0      -14.204960   -1.795659   -3.142345
    121          8           0      -14.786760   -1.147577   -4.051520
    122          8           0      -13.518212   -2.966600   -3.276858
    123          6           0      -13.185799   -3.323837   -4.681458
    124          1           0      -20.430579   -3.564983   -0.126875
    125          1           0      -21.852519    2.384257    2.195079
    126          1           0      -16.199231    4.388099    0.269992
    127          1           0      -16.221886   -3.734874   -2.204805
    128          1           0      -18.398347   -4.701401   -0.859566
    129          1           0      -18.087155   -4.176887   -3.504475
    130          1           0      -19.064580   -2.769098   -2.960434
    131          1           0      -19.698418   -4.316929   -2.808553
    132          1           0      -16.650007   -4.820539    0.430257
    133          1           0      -15.290472   -3.788267    0.556777
    134          1           0      -13.975204   -4.948023   -0.609578
    135          1           0      -15.207191   -5.547451   -1.820971
    136          1           0      -22.983694   -3.467831    2.163109
    137          1           0      -22.391524   -3.651996    0.576254
    138          1           0      -23.847368   -2.757257    0.858691
    139          1           0      -25.508003   -0.169345    3.393647
    140          1           0      -24.495950   -1.713669    3.233148
    141          1           0      -25.185976   -1.151137    1.859126
    142          1           0      -20.521746    4.497458    2.612692
    143          1           0      -18.556716    5.550065    0.720460
    144          1           0      -21.532058    4.476119   -0.102166
    145          1           0      -20.563570    5.880739    0.165222
    146          1           0      -21.831334    5.487277    1.316002
    147          1           0      -17.065066    4.501342    2.998846
    148          1           0      -18.549601    5.251456    3.653239
    149          1           0      -17.957660    7.253872    3.115661
    150          1           0      -16.963780    6.872260    1.681266
    151          1           0      -16.321416    6.538222    3.175796
    152          1           0      -14.041640    4.247213    0.128752
    153          1           0      -13.427157    3.923075   -1.586391
    154          1           0      -12.708802    3.156651   -0.153350
    155          1           0      -13.575894   -2.110874   -1.152271
    156          1           0      -12.525845   -4.190869   -4.704742
    157          1           0      -12.568572   -2.500045   -5.040584
    158          1           0      -14.133172   -3.424541   -5.211766
 ---------------------------------------------------------------------

 SCF Done:  E(RCAM-B3LYP) =  -4069.82059913     A.U. after   19 cycles

 Excitation energies and oscillator strengths:

 Excited State   1:      Singlet-A      1.6890 eV  734.08 nm  f=0.3660  <S**2>=0.000
     309 -> 315        0.16435
     312 -> 314        0.68791
     309 <- 315        0.10172
 This state for optimization and/or second-order correction.
 Total Energy, E(TD-HF/TD-DFT) =  -4069.75853077
 Copying the excited state density for this state as the 1-particle RhoCI density.

 Excited State   2:      Singlet-A      1.7436 eV  711.08 nm  f=0.3916  <S**2>=0.000
     310 -> 316       -0.17838
     311 -> 313        0.68461
     310 <- 316       -0.10695

 Excited State   3:      Singlet-A      2.2018 eV  563.11 nm  f=0.1603  <S**2>=0.000
     310 -> 313        0.65390
     311 -> 316        0.24975

 Excited State   4:      Singlet-A      2.2120 eV  560.50 nm  f=0.1060  <S**2>=0.000
     309 -> 314        0.64112
     312 -> 315       -0.27956

 Excited State   5:      Singlet-A      3.0588 eV  405.33 nm  f=0.0000  <S**2>=0.000
     312 -> 313        0.70709

 The electronic state is 1-A.
 Alpha  occ. eigenvalues --  -46.89196 -46.87124 -19.25595 -19.25528 -19.19836
 Alpha  occ. eigenvalues --  -19.19499 -19.19452 -19.19008 -19.18973 -19.17871
 Alpha  occ. eigenvalues --  -14.42087 -14.42005 -14.41880 -14.41447 -14.40284
 Alpha  occ. eigenvalues --  -14.39232 -14.38562 -14.38497 -10.39367 -10.38628
 Alpha  occ. eigenvalues --  -10.36291 -10.35732 -10.34975 -10.34042 -10.32288
 Alpha  occ. eigenvalues --  -10.32112 -10.31684 -10.31680 -10.30991 -10.30956
 Alpha  occ. eigenvalues --  -10.30656 -10.30572 -10.30564 -10.30561 -10.30382
 Alpha  occ. eigenvalues --  -10.30227 -10.29941 -10.29861 -10.29347 -10.29042
 Alpha  occ. eigenvalues --  -10.28884 -10.28744 -10.28601 -10.28367 -10.28364
 Alpha  occ. eigenvalues --  -10.28184 -10.28138 -10.28072 -10.28012 -10.28003
 Alpha  occ. eigenvalues --  -10.27843 -10.27823 -10.27808 -10.27747 -10.27707
 Alpha  occ. eigenvalues --  -10.27699 -10.27657 -10.27590 -10.27562 -10.27559
 Alpha  occ. eigenvalues --  -10.27545 -10.27399 -10.27352 -10.27230 -10.27167
 Alpha  occ. eigenvalues --  -10.27142 -10.26974 -10.26893 -10.26679 -10.26644
 Alpha  occ. eigenvalues --  -10.26633 -10.26586 -10.26558 -10.26439 -10.26296
 Alpha  occ. eigenvalues --  -10.26257 -10.26195 -10.26186 -10.26059 -10.26031
 Alpha  occ. eigenvalues --  -10.25737 -10.25658 -10.25287 -10.24602 -10.24406
 Alpha  occ. eigenvalues --  -10.24296  -3.17769  -3.15852  -1.92657  -1.92239
 Alpha  occ. eigenvalues --   -1.92061  -1.90757  -1.90296  -1.90177  -1.15916
 Alpha  occ. eigenvalues --   -1.15693  -1.11933  -1.11657  -1.10259  -1.08077
 Alpha  occ. eigenvalues --   -1.07026  -1.06393  -1.06272  -1.04884  -1.04565
 Alpha  occ. eigenvalues --   -1.03910  -1.03285  -1.02801  -1.02498  -1.01370
 Alpha  occ. eigenvalues --   -0.92521  -0.92470  -0.89707  -0.89148  -0.88665
 Alpha  occ. eigenvalues --   -0.88608  -0.88229  -0.87975  -0.87273  -0.86973
 Alpha  occ. eigenvalues --   -0.86852  -0.86603  -0.86361  -0.85769  -0.84272
 Alpha  occ. eigenvalues --   -0.84254  -0.83779  -0.83775  -0.82849  -0.82250
 Alpha  occ. eigenvalues --   -0.82060  -0.81801  -0.81136  -0.80887  -0.80606
 Alpha  occ. eigenvalues --   -0.80316  -0.78400  -0.78180  -0.77817  -0.77263
 Alpha  occ. eigenvalues --   -0.76777  -0.76719  -0.75943  -0.75678  -0.75465
 Alpha  occ. eigenvalues --   -0.74829  -0.72825  -0.72664  -0.72195  -0.70873
 Alpha  occ. eigenvalues --   -0.70464  -0.69286  -0.68552  -0.68124  -0.68063
 Alpha  occ. eigenvalues --   -0.67716  -0.67530  -0.66798  -0.66488  -0.65458
 Alpha  occ. eigenvalues --   -0.65330  -0.65126  -0.64825  -0.64515  -0.64433
 Alpha  occ. eigenvalues --   -0.63984  -0.62389  -0.61884  -0.60491  -0.60265
 Alpha  occ. eigenvalues --   -0.60062  -0.59595  -0.59192  -0.59157  -0.58776
 Alpha  occ. eigenvalues --   -0.58150  -0.57951  -0.57631  -0.57564  -0.56970
 Alpha  occ. eigenvalues --   -0.56662  -0.56182  -0.56107  -0.55644  -0.55623
 Alpha  occ. eigenvalues --   -0.55445  -0.55014  -0.54932  -0.54114  -0.53789
 Alpha  occ. eigenvalues --   -0.53559  -0.53504  -0.53376  -0.52920  -0.52634
 Alpha  occ. eigenvalues --   -0.52565  -0.52525  -0.52361  -0.51949  -0.51833
 Alpha  occ. eigenvalues --   -0.51765  -0.51677  -0.51503  -0.51207  -0.51161
 Alpha  occ. eigenvalues --   -0.50971  -0.50835  -0.50622  -0.50409  -0.50384
 Alpha  occ. eigenvalues --   -0.50182  -0.50054  -0.49888  -0.49749  -0.49664
 Alpha  occ. eigenvalues --   -0.49393  -0.49356  -0.49114  -0.49057  -0.48915
 Alpha  occ. eigenvalues --   -0.48655  -0.48597  -0.48316  -0.47891  -0.47742
 Alpha  occ. eigenvalues --   -0.47649  -0.47622  -0.47379  -0.47202  -0.46898
 Alpha  occ. eigenvalues --   -0.46787  -0.46732  -0.46589  -0.46400  -0.46255
 Alpha  occ. eigenvalues --   -0.46196  -0.46092  -0.45802  -0.45791  -0.45784
 Alpha  occ. eigenvalues --   -0.45714  -0.45351  -0.45350  -0.45078  -0.45024
 Alpha  occ. eigenvalues --   -0.44685  -0.44635  -0.44617  -0.44400  -0.44386
 Alpha  occ. eigenvalues --   -0.44278  -0.44273  -0.44180  -0.43954  -0.43348
 Alpha  occ. eigenvalues --   -0.43342  -0.43302  -0.43137  -0.42892  -0.42860
 Alpha  occ. eigenvalues --   -0.42812  -0.42579  -0.42559  -0.42227  -0.42154
 Alpha  occ. eigenvalues --   -0.41938  -0.41882  -0.41868  -0.41821  -0.41425
 Alpha  occ. eigenvalues --   -0.41167  -0.41131  -0.40892  -0.40741  -0.40429
 Alpha  occ. eigenvalues --   -0.40040  -0.40016  -0.39595  -0.39099  -0.38783
 Alpha  occ. eigenvalues --   -0.38588  -0.38298  -0.38257  -0.37787  -0.37774
 Alpha  occ. eigenvalues --   -0.37677  -0.36780  -0.36695  -0.36676  -0.36454
 Alpha  occ. eigenvalues --   -0.36272  -0.35932  -0.34938  -0.34189  -0.34078
 Alpha  occ. eigenvalues --   -0.33567  -0.33352  -0.33098  -0.31883  -0.31711
 Alpha  occ. eigenvalues --   -0.31353  -0.31215  -0.30794  -0.30568  -0.30022
 Alpha  occ. eigenvalues --   -0.29927  -0.29505  -0.28930  -0.24155  -0.23912
 Alpha  occ. eigenvalues --   -0.21471  -0.21135
 Alpha virt. eigenvalues --   -0.08955  -0.08771  -0.01773  -0.01212   0.00234
 Alpha virt. eigenvalues --    0.00796   0.01691   0.02388   0.02851   0.03508
 Alpha virt. eigenvalues --    0.04571   0.04652   0.05471   0.05840   0.06031

 Mulliken charges:
               1
     1  Mg  11.999664
     2  C    5.982326
     3  C    6.014683
     4  C    6.023705
     5  C    5.993538
     6  N    6.991708
     7  C    6.036588
     8  C    5.988843
     9  C    6.014959
    10  C    5.965618
    11  C    6.003358
    12  C    6.000801
    13  C    5.997876
    14  H    1.009263
    15  N    7.009901
    16  C    5.956171
    17  C    5.978289
    18  C    5.985977
    19  C    5.960743
    20  C    6.005566
    21  C    5.991878
    22  O    7.981404
    23  C    6.002238
    24  N    7.000932
    25  C    5.965417
    26  C    6.010059
    27  C    5.989117
    28  C    6.033763
    29  C    6.002996
    30  C    5.992485
    31  C    5.998763
    32  N    6.998458
    33  C    6.032556
    34  C    6.032940
    35  C    6.000133
    36  C    6.028544
    37  C    5.998627
    38  C    6.014980
    39  O    8.030256
    40  C    5.999101
    41  C    6.004284
    42  O    8.006839
    43  O    7.998735
    44  C    5.998668
    45  H    0.989664
    46  H    0.994142
    47  H    1.008970
    48  H    0.997103
    49  H    0.993877
    50  H    0.996068
    51  H    0.983654
    52  H    1.000387
    53  H    1.011690
    54  H    0.994589
    55  H    0.997707
    56  H    0.999480
    57  H    0.980691
    58  H    0.980758
    59  H    0.981153
    60  H    0.989204
    61  H    0.988644
    62  H    0.988640
    63  H    1.000834
    64  H    1.001215
    65  H    0.999234
    66  H    1.005697
    67  H    0.989896
    68  H    1.002829
    69  H    1.012901
    70  H    1.006201
    71  H    0.998229
    72  H    0.995911
    73  H    1.019736
    74  H    1.017330
    75  H    1.019509
    76  H    1.008629
    77  H    0.999784
    78  H    1.006687
    79  H    1.006203
    80  Mg  11.999996
    81  C    6.000260
    82  C    5.999911
    83  C    5.999785
    84  C    6.000105
    85  N    7.000132
    86  C    5.999676
    87  C    6.000087
    88  C    5.999942
    89  C    6.000208
    90  C    5.999946
    91  C    6.000050
    92  C    6.000053
    93  H    0.999837
    94  N    7.000000
    95  C    6.000295
    96  C    6.000198
    97  C    6.000170
    98  C    6.000275
    99  C    5.999893
   100  C    6.000150
   101  O    8.000267
   102  C    5.999970
   103  N    6.999926
   104  C    6.000288
   105  C    5.999926
   106  C    6.000048
   107  C    5.999781
   108  C    5.999956
   109  C    6.000040
   110  C    6.000002
   111  N    6.999967
   112  C    5.999687
   113  C    5.999707
   114  C    5.999995
   115  C    5.999670
   116  C    6.000064
   117  C    5.999798
   118  O    7.999664
   119  C    5.999960
   120  C    5.999964
   121  O    8.000042
   122  O    7.999927
   123  C    6.000025
   124  H    1.000150
   125  H    1.000109
   126  H    0.999912
   127  H    0.999967
   128  H    0.999996
   129  H    1.000129
   130  H    1.000069
   131  H    1.000033
   132  H    0.999883
   133  H    0.999961
   134  H    0.999945
   135  H    1.000022
   136  H    1.000215
   137  H    1.000172
   138  H    1.000254
   139  H    1.000181
   140  H    1.000030
   141  H    1.000097
   142  H    1.000014
   143  H    1.000037
   144  H    1.000011
   145  H    1.000148
   146  H    1.000047
   147  H    0.999963
   148  H    0.999908
   149  H    1.000001
   150  H    1.000053
   151  H    0.999956
   152  H    0.999856
   153  H    0.999853
   154  H    0.999714
   155  H    0.999795
   156  H    0.999853
   157  H    0.999995
   158  H    1.000024
 Sum of Mulliken charges = 624.00000

 Dipole moment (field-independent basis, Debye):
    X=             -6.3457    Y=             -6.6386    Z=              5.4716  Tot=             10.6901
 Quadrupole moment (field-independent basis, Debye-Ang):
   XX=           -224.3347   YY=              0.6940   ZZ=              1.1661
   XY=           -123.1043   XZ=            100.3349   YZ=             -1.0552

 Normal termination of Gaussian 16 at Thu Sep 23 02:38:24 2021.
