 Gaussian 16, Revision A.03,
 Gaussian 16:  ES64L-G16RevA.03 25-Dec-2016

 -----------------------------------
 #p cam-b3lyp/Def2SVP td=(nstates=5)
 -----------------------------------

 --------------------------------
 TDDFT excited states in gaussian
 --------------------------------
 Symbolic Z-matrix:
 Charge =  0 Multiplicity = 1

                         Standard orientation:
 ---------------------------------------------------------------------
 Center     Atomic      Atomic             Coordinates (Angstroms)
 Number     Number       Type             X           Y           Z
 ---------------------------------------------------------------------
      1         12           0       11.670324   -0.010391    0.101771
      2          6           0        9.286444   -1.557042   -1.984748
      3          6           0       10.735324    2.971686   -1.254751
      4          6           0       13.392639    1.536372    2.616250
      5          6           0       12.039413   -3.188765    1.670761
      6          7           0       10.048751    0.651833   -1.372603
      7          6           0        9.299313   -0.115620   -2.217477
      8          6           0        8.350559    0.729004   -3.085439
      9          6           0        9.188835    2.098608   -3.022184
     10          6           0       10.054918    1.900300   -1.803098
     11          6           0       10.044037    2.423633   -4.276184
     12          6           0        6.887618    0.917850   -2.479207
     13          6           0        5.735949    1.232564   -3.421395
     14          1           0        5.035581    2.608018   -3.433019
     15          7           0       12.099582    2.019455    0.666620
     16          6           0       11.717122    3.059664   -0.129563
     17          6           0       12.325214    4.250135    0.272331
     18          6           0       13.149061    3.883862    1.402507
     19          6           0       12.902577    2.436152    1.656144
     20          6           0       12.137645    5.602289   -0.405094
     21          6           0       14.026152    4.880277    2.126344
     22          8           0       14.058545    6.076248    1.737351
     23          6           0       15.006157    4.493877    3.289533
     24          7           0       12.549964   -0.764319    1.830178
     25          6           0       13.252696    0.095325    2.717305
     26          6           0       14.089082   -0.718840    3.664876
     27          6           0       13.450920   -2.124437    3.628712
     28          6           0       12.692180   -2.084571    2.270193
     29          6           0       15.600815   -0.897192    3.397964
     30          6           0       12.404220   -2.356505    4.841416
     31          6           0       12.944228   -2.804126    6.191331
     32          7           0       10.956213   -2.010721   -0.249352
     33          6           0       11.198819   -3.180320    0.455206
     34          6           0       10.463668   -4.239146   -0.043600
     35          6           0        9.703451   -3.665061   -1.076899
     36          6           0       10.027350   -2.299268   -1.139930
     37          6           0       10.522434   -5.645643    0.463163
     38          6           0        8.845030   -3.948080   -2.102296
     39          8           0        8.446945   -5.018258   -2.518280
     40          6           0        8.349189   -2.559737   -2.558442
     41          6           0        6.937210   -2.472549   -2.060956
     42          8           0        6.624506   -2.581319   -0.916203
     43          8           0        6.055945   -2.326466   -3.133743
     44          6           0        4.695505   -2.407656   -2.729286
     45          1           0       10.622447    3.913153   -1.796816
     46          1           0       14.116416    1.948509    3.323112
     47          1           0       12.310934   -4.150392    2.110710
     48          1           0        8.366888    0.430121   -4.133002
     49          1           0        8.456649    2.901327   -2.939254
     50          1           0        9.407795    3.123945   -4.818079
     51          1           0       10.204975    1.548363   -4.905437
     52          1           0       10.975788    2.922218   -4.008562
     53          1           0        6.872148    1.752768   -1.778592
     54          1           0        6.690966    0.033926   -1.872099
     55          1           0        4.994510    0.466013   -3.191452
     56          1           0        6.086198    1.031712   -4.433733
     57          1           0       12.977955    6.294044   -0.472767
     58          1           0       11.297564    5.954476    0.193058
     59          1           0       11.912639    5.459606   -1.462052
     60          1           0       15.758986    3.801477    2.913768
     61          1           0       14.328479    4.065621    4.027820
     62          1           0       15.458705    5.323465    3.832588
     63          1           0       13.920875   -0.299639    4.656353
     64          1           0       14.197035   -2.918662    3.656154
     65          1           0       15.909659   -1.910155    3.140450
     66          1           0       16.197458   -0.270602    4.061241
     67          1           0       15.758341   -0.374790    2.454498
     68          1           0       11.772127   -3.123452    4.394265
     69          1           0       11.812988   -1.458187    5.020100
     70          1           0       12.573274   -2.131943    6.964593
     71          1           0       14.033750   -2.765887    6.172578
     72          1           0       12.583114   -3.798837    6.453856
     73          1           0        9.487576   -5.951162    0.614783
     74          1           0       11.001339   -5.721220    1.440182
     75          1           0       10.981054   -6.333796   -0.247126
     76          1           0        8.370906   -2.536366   -3.647431
     77          1           0        4.348623   -3.436770   -2.818465
     78          1           0        4.009186   -1.900671   -3.408611
     79          1           0        4.546115   -2.074983   -1.703518
     80         12           0      -11.029127    0.238178    0.623121
     81          6           0       -8.537161    0.287717   -1.797235
     82          6           0      -11.231797   -3.158401    0.181170
     83          6           0      -13.682675    0.201803    2.830441
     84          6           0      -11.169721    3.721103    0.616732
     85          7           0       -9.923857   -1.250258   -0.596778
     86          6           0       -8.885210   -1.039441   -1.423215
     87          6           0       -8.209854   -2.323603   -1.958428
     88          6           0       -9.252907   -3.428307   -1.494168
     89          6           0      -10.262987   -2.572502   -0.589393
     90          6           0       -9.891743   -4.095364   -2.764166
     91          6           0       -6.762135   -2.426293   -1.251454
     92          6           0       -5.535628   -2.585448   -2.197472
     93          1           0       -5.896027   -3.130104   -3.626879
     94          7           0      -12.349430   -1.217107    1.368503
     95          6           0      -12.194186   -2.595562    1.114614
     96          6           0      -13.075974   -3.331683    1.995239
     97          6           0      -13.821465   -2.396019    2.723592
     98          6           0      -13.245763   -1.041647    2.386227
     99          6           0      -13.310533   -4.837552    1.809449
    100          6           0      -14.978118   -2.664037    3.722698
    101          8           0      -15.602728   -1.786918    4.348102
    102          6           0      -15.344594   -4.125507    4.033237
    103          7           0      -12.274977    1.784643    1.501348
    104          6           0      -13.290493    1.456131    2.450258
    105          6           0      -14.087274    2.718178    2.841659
    106          6           0      -13.084900    3.861133    2.343784
    107          6           0      -12.080439    3.072814    1.462864
    108          6           0      -15.469357    2.660818    2.212143
    109          6           0      -12.336649    4.549690    3.562003
    110          6           0      -11.543166    3.792774    4.680954
    111          7           0      -10.144109    1.717471   -0.405238
    112          6           0      -10.293249    3.105915   -0.333768
    113          6           0       -9.386851    3.719165   -1.249468
    114          6           0       -8.656888    2.684862   -1.806815
    115          6           0       -9.210020    1.462269   -1.352225
    116          6           0       -9.279464    5.190979   -1.592395
    117          6           0       -7.608268    2.393332   -2.701821
    118          8           0       -7.019510    3.160546   -3.394809
    119          6           0       -7.573405    0.813049   -2.815572
    120          6           0       -7.996371    0.489258   -4.221789
    121          8           0       -9.082995    0.037022   -4.516450
    122          8           0       -6.985844    0.826594   -5.031763
    123          6           0       -7.397826    0.995178   -6.403797
    124          1           0      -11.249343   -4.247605    0.108361
    125          1           0      -14.655008    0.184239    3.325803
    126          1           0      -11.209118    4.812640    0.594456
    127          1           0       -8.037810   -2.342586   -3.034427
    128          1           0       -8.840400   -4.207150   -0.852396
    129          1           0      -10.969900   -4.249076   -2.713027
    130          1           0       -9.340355   -5.035070   -2.749261
    131          1           0       -9.540917   -3.527526   -3.625569
    132          1           0       -6.833761   -3.199812   -0.487125
    133          1           0       -6.627808   -1.504165   -0.685469
    134          1           0       -4.932068   -3.294807   -1.632274
    135          1           0       -4.948173   -1.679943   -2.346410
    136          1           0      -14.382209   -4.977252    1.665453
    137          1           0      -13.060231   -5.358072    2.734822
    138          1           0      -12.719682   -5.204113    0.970599
    139          1           0      -15.857426   -4.514488    3.152606
    140          1           0      -16.103133   -4.075998    4.814254
    141          1           0      -14.485224   -4.631171    4.472882
    142          1           0      -14.071095    2.725078    3.931907
    143          1           0      -13.648498    4.670874    1.881752
    144          1           0      -15.828556    1.642959    2.059469
    145          1           0      -15.472307    3.167015    1.247086
    146          1           0      -16.212762    3.109476    2.870727
    147          1           0      -13.047457    5.217083    4.049383
    148          1           0      -11.548023    5.113028    3.063119
    149          1           0      -12.241236    3.532773    5.476818
    150          1           0      -10.801397    4.507082    5.040142
    151          1           0      -10.936271    2.948364    4.352665
    152          1           0       -9.037353    5.801096   -0.722013
    153          1           0      -10.277959    5.446904   -1.946227
    154          1           0       -8.450894    5.464846   -2.247023
    155          1           0       -6.614699    0.314109   -2.672861
    156          1           0       -6.814085    1.733364   -6.953229
    157          1           0       -8.447563    1.099126   -6.677928
    158          1           0       -7.240733    0.106585   -7.015592
 ---------------------------------------------------------------------

 SCF Done:  E(RCAM-B3LYP) =  -4069.78913141     A.U. after   18 cycles

 Excitation energies and oscillator strengths:

 Excited State   1:      Singlet-A      1.7039 eV  727.65 nm  f=0.3513  <S**2>=0.000
     310 -> 316        0.17540
     312 -> 314        0.68518
     310 <- 316        0.10635
 This state for optimization and/or second-order correction.
 Total Energy, E(TD-HF/TD-DFT) =  -4069.72651435
 Copying the excited state density for this state as the 1-particle RhoCI density.

 Excited State   2:      Singlet-A      1.7066 eV  726.51 nm  f=0.4352  <S**2>=0.000
     309 -> 315       -0.18497
     311 -> 313        0.68116
     309 <- 315       -0.10799

 Excited State   3:      Singlet-A      2.1434 eV  578.46 nm  f=0.1309  <S**2>=0.000
     309 -> 313        0.65032
     311 -> 315        0.26005

 Excited State   4:      Singlet-A      2.2266 eV  556.84 nm  f=0.1277  <S**2>=0.000
     310 -> 314        0.64625
     312 -> 316       -0.27554

 Excited State   5:      Singlet-A      2.6739 eV  463.68 nm  f=0.0000  <S**2>=0.000
     312 -> 313        0.70708

 The electronic state is 1-A.
 Alpha  occ. eigenvalues --  -46.90352 -46.88065 -19.26157 -19.25448 -19.20977
 Alpha  occ. eigenvalues --  -19.20065 -19.19357 -19.18597 -19.18139 -19.17919
 Alpha  occ. eigenvalues --  -14.43213 -14.42709 -14.42230 -14.41420 -14.39859
 Alpha  occ. eigenvalues --  -14.39542 -14.39246 -14.39047 -10.39752 -10.39324
 Alpha  occ. eigenvalues --  -10.35106 -10.35060 -10.34824 -10.33401 -10.32442
 Alpha  occ. eigenvalues --  -10.32362 -10.31674 -10.31585 -10.31361 -10.31052
 Alpha  occ. eigenvalues --  -10.30980 -10.30752 -10.30651 -10.30335 -10.30267
 Alpha  occ. eigenvalues --  -10.30142 -10.29986 -10.29895 -10.29816 -10.29649
 Alpha  occ. eigenvalues --  -10.29624 -10.29263 -10.29111 -10.28871 -10.28506
 Alpha  occ. eigenvalues --  -10.28381 -10.28362 -10.28345 -10.28248 -10.28135
 Alpha  occ. eigenvalues --  -10.28130 -10.28101 -10.28081 -10.27994 -10.27903
 Alpha  occ. eigenvalues --  -10.27880 -10.27840 -10.27707 -10.27652 -10.27648
 Alpha  occ. eigenvalues --  -10.27590 -10.27583 -10.27496 -10.27449 -10.27365
 Alpha  occ. eigenvalues --  -10.27052 -10.26995 -10.26718 -10.26701 -10.26667
 Alpha  occ. eigenvalues --  -10.26615 -10.26535 -10.26518 -10.26514 -10.26401
 Alpha  occ. eigenvalues --  -10.26247 -10.26132 -10.25873 -10.25796 -10.25769
 Alpha  occ. eigenvalues --  -10.25704 -10.25592 -10.25245 -10.25190 -10.24670
 Alpha  occ. eigenvalues --  -10.24207  -3.18644  -3.16667  -1.93542  -1.93091
 Alpha  occ. eigenvalues --   -1.92941  -1.91568  -1.91101  -1.90989  -1.18161
 Alpha  occ. eigenvalues --   -1.17695  -1.12013  -1.10098  -1.09557  -1.09082
 Alpha  occ. eigenvalues --   -1.08317  -1.07355  -1.05793  -1.04690  -1.04141
 Alpha  occ. eigenvalues --   -1.03961  -1.03305  -1.02696  -1.01956  -1.01149
 Alpha  occ. eigenvalues --   -0.94385  -0.92790  -0.88999  -0.88761  -0.88722
 Alpha  occ. eigenvalues --   -0.88521  -0.88117  -0.87740  -0.87607  -0.87141
 Alpha  occ. eigenvalues --   -0.87065  -0.86484  -0.86002  -0.85949  -0.84423
 Alpha  occ. eigenvalues --   -0.83924  -0.83682  -0.83386  -0.82953  -0.82273
 Alpha  occ. eigenvalues --   -0.81932  -0.81190  -0.80893  -0.80736  -0.80392
 Alpha  occ. eigenvalues --   -0.79923  -0.78113  -0.77700  -0.77434  -0.77098
 Alpha  occ. eigenvalues --   -0.76984  -0.76722  -0.76018  -0.75850  -0.75731
 Alpha  occ. eigenvalues --   -0.74944  -0.73656  -0.72947  -0.72297  -0.71169
 Alpha  occ. eigenvalues --   -0.69529  -0.68877  -0.68633  -0.68523  -0.68468
 Alpha  occ. eigenvalues --   -0.67961  -0.67205  -0.66356  -0.66351  -0.65845
 Alpha  occ. eigenvalues --   -0.65407  -0.64793  -0.64539  -0.64464  -0.64265
 Alpha  occ. eigenvalues --   -0.63925  -0.62868  -0.62376  -0.60566  -0.60198
 Alpha  occ. eigenvalues --   -0.59988  -0.59659  -0.59390  -0.59231  -0.59071
 Alpha  occ. eigenvalues --   -0.58947  -0.58413  -0.58106  -0.57986  -0.57242
 Alpha  occ. eigenvalues --   -0.56547  -0.56259  -0.55836  -0.55668  -0.55368
 Alpha  occ. eigenvalues --   -0.55124  -0.54897  -0.54373  -0.53955  -0.53888
 Alpha  occ. eigenvalues --   -0.53593  -0.53360  -0.53243  -0.53112  -0.52843
 Alpha  occ. eigenvalues --   -0.52647  -0.52570  -0.52317  -0.52195  -0.51980
 Alpha  occ. eigenvalues --   -0.51878  -0.51847  -0.51723  -0.51480  -0.51261
 Alpha  occ. eigenvalues --   -0.50941  -0.50861  -0.50647  -0.50608  -0.50200
 Alpha  occ. eigenvalues --   -0.49897  -0.49874  -0.49802  -0.49794  -0.49500
 Alpha  occ. eigenvalues --   -0.49398  -0.49149  -0.49037  -0.48858  -0.48828
 Alpha  occ. eigenvalues --   -0.48578  -0.48478  -0.48316  -0.47980  -0.47931
 Alpha  occ. eigenvalues --   -0.47722  -0.47465  -0.47385  -0.47265  -0.47122
 Alpha  occ. eigenvalues --   -0.47053  -0.46643  -0.46641  -0.46439  -0.46390
 Alpha  occ. eigenvalues --   -0.46253  -0.46156  -0.46064  -0.45824  -0.45716
 Alpha  occ. eigenvalues --   -0.45561  -0.45319  -0.45174  -0.45124  -0.44923
 Alpha  occ. eigenvalues --   -0.44766  -0.44640  -0.44619  -0.44537  -0.44316
 Alpha  occ. eigenvalues --   -0.43895  -0.43807  -0.43749  -0.43590  -0.43403
 Alpha  occ. eigenvalues --   -0.43379  -0.43293  -0.43044  -0.43001  -0.42989
 Alpha  occ. eigenvalues --   -0.42639  -0.42632  -0.42549  -0.42365  -0.42225
 Alpha  occ. eigenvalues --   -0.41909  -0.41732  -0.41584  -0.41358  -0.41301
 Alpha  occ. eigenvalues --   -0.41225  -0.41050  -0.40791  -0.40662  -0.40550
 Alpha  occ. eigenvalues --   -0.40349  -0.40262  -0.39546  -0.39425  -0.39132
 Alpha  occ. eigenvalues --   -0.38528  -0.37847  -0.37684  -0.37667  -0.37447
 Alpha  occ. eigenvalues --   -0.37188  -0.37088  -0.37052  -0.36984  -0.36630
 Alpha  occ. eigenvalues --   -0.36450  -0.36102  -0.35551  -0.35093  -0.34799
 Alpha  occ. eigenvalues --   -0.34081  -0.33451  -0.32652  -0.31635  -0.31485
 Alpha  occ. eigenvalues --   -0.30951  -0.30491  -0.30427  -0.30257  -0.30069
 Alpha  occ. eigenvalues --   -0.29964  -0.29570  -0.29554  -0.24361  -0.23753
 Alpha  occ. eigenvalues --   -0.22075  -0.20961
 Alpha virt. eigenvalues --   -0.09629  -0.08536  -0.02517  -0.01326  -0.00117
 Alpha virt. eigenvalues --    0.00572   0.01386   0.02495   0.02559   0.02578
 Alpha virt. eigenvalues --    0.04271   0.04541   0.05116   0.05478   0.06136

 Mulliken charges:
               1
     1  Mg   0.815269
     2  C    0.014390
     3  C   -0.065219
     4  C   -0.076262
     5  C   -0.072033
     6  N   -0.233164
     7  C   -0.080877
     8  C    0.006807
     9  C   -0.104106
    10  C    0.065325
    11  C    0.076780
    12  C    0.039664
    13  C   -0.043349
    14  H    0.028909
    15  N   -0.343553
    16  C    0.106429
    17  C   -0.141743
    18  C   -0.040921
    19  C    0.143985
    20  C    0.134048
    21  C   -0.011059
    22  O   -0.242898
    23  C    0.048391
    24  N   -0.357489
    25  C    0.064219
    26  C   -0.039306
    27  C   -0.063990
    28  C    0.055430
    29  C    0.104230
    30  C    0.008797
    31  C    0.034468
    32  N   -0.298961
    33  C    0.103972
    34  C   -0.160072
    35  C    0.083406
    36  C    0.089618
    37  C    0.137650
    38  C   -0.048636
    39  O   -0.168579
    40  C   -0.001893
    41  C    0.189550
    42  O   -0.180728
    43  O   -0.328919
    44  C    0.162348
    45  H   -0.027261
    46  H   -0.039833
    47  H   -0.015092
    48  H    0.002613
    49  H    0.015961
    50  H    0.016535
    51  H    0.021265
    52  H    0.022326
    53  H    0.020003
    54  H    0.022405
    55  H    0.026412
    56  H    0.021122
    57  H    0.045708
    58  H    0.041367
    59  H    0.008804
    60  H    0.046355
    61  H    0.030929
    62  H    0.024885
    63  H    0.004658
    64  H    0.002849
    65  H    0.027601
    66  H    0.021445
    67  H   -0.005787
    68  H    0.000768
    69  H    0.012689
    70  H    0.013746
    71  H    0.012330
    72  H    0.020594
    73  H    0.032549
    74  H    0.002658
    75  H    0.040510
    76  H    0.015329
    77  H    0.028362
    78  H    0.030758
    79  H    0.044514
    80  Mg   0.826398
    81  C   -0.012285
    82  C   -0.055167
    83  C   -0.055265
    84  C   -0.101716
    85  N   -0.262900
    86  C   -0.021595
    87  C   -0.037422
    88  C   -0.073772
    89  C    0.047889
    90  C    0.074556
    91  C    0.036477
    92  C   -0.072669
    93  H    0.021633
    94  N   -0.381559
    95  C    0.116857
    96  C   -0.159312
    97  C   -0.046539
    98  C    0.112372
    99  C    0.135753
   100  C    0.005280
   101  O   -0.221292
   102  C    0.048242
   103  N   -0.269128
   104  C    0.004014
   105  C   -0.013051
   106  C   -0.018945
   107  C    0.072167
   108  C    0.091477
   109  C   -0.014711
   110  C    0.000573
   111  N   -0.397748
   112  C    0.133548
   113  C   -0.171136
   114  C    0.038041
   115  C    0.108990
   116  C    0.123565
   117  C    0.020982
   118  O   -0.126975
   119  C   -0.025992
   120  C    0.176024
   121  O   -0.208431
   122  O   -0.277641
   123  C    0.182020
   124  H   -0.037404
   125  H    0.007443
   126  H   -0.023694
   127  H    0.021914
   128  H    0.013890
   129  H    0.030056
   130  H    0.010859
   131  H    0.027774
   132  H    0.008776
   133  H    0.018889
   134  H    0.034331
   135  H    0.048229
   136  H    0.023697
   137  H    0.016975
   138  H    0.018188
   139  H    0.040370
   140  H    0.017725
   141  H    0.042715
   142  H    0.008220
   143  H    0.001944
   144  H    0.024908
   145  H    0.012998
   146  H    0.014158
   147  H    0.012831
   148  H   -0.002254
   149  H    0.027145
   150  H    0.014306
   151  H    0.022633
   152  H    0.015008
   153  H    0.034287
   154  H    0.032618
   155  H    0.025858
   156  H    0.038482
   157  H    0.037347
   158  H    0.007172
 Sum of Mulliken charges =  -0.00000

 Dipole moment (field-independent basis, Debye):
    X=              3.2857    Y=             -1.5997    Z=              0.9061  Tot=              3.7650
 Quadrupole moment (field-independent basis, Debye-Ang):
   XX=           -511.9806   YY=           -525.9206   ZZ=           -500.9508
   XY=            -21.2054   XZ=             25.2476   YZ=            -15.8415

 Normal termination of Gaussian 16 at Wed Sep 15 12:22:30 2021.
