 Gaussian 16, Revision A.03,
 Gaussian 16:  ES64L-G16RevA.03 25-Dec-2016

 -----------------------------------
 #p cam-b3lyp/Def2SVP td=(nstates=5)
 -----------------------------------

 --------------------------------
 TDDFT excited states in gaussian
 --------------------------------
 Symbolic Z-matrix:
 Charge =  0 Multiplicity = 1

                         Standard orientation:
 ---------------------------------------------------------------------
 Center     Atomic      Atomic             Coordinates (Angstroms)
 Number     Number       Type             X           Y           Z
 ---------------------------------------------------------------------
      1         12           0       25.134626    0.556076   -0.355994
      2          6           0       26.115703   -1.916388    1.758222
      3          6           0       23.764521   -1.640140   -2.636899
      4          6           0       24.423966    3.197225   -2.415766
      5          6           0       26.916134    2.915714    1.729484
      6          7           0       25.158032   -1.531896   -0.507905
      7          6           0       25.393198   -2.386439    0.620961
      8          6           0       24.854482   -3.739757    0.380015
      9          6           0       24.502414   -3.664685   -1.173245
     10          6           0       24.462811   -2.191055   -1.511530
     11          6           0       25.567541   -4.435673   -2.102369
     12          6           0       23.742248   -4.187576    1.377496
     13          6           0       23.882125   -5.578696    1.906354
     14          1           0       24.362420   -6.670588    0.870994
     15          7           0       24.153141    0.757087   -2.234518
     16          6           0       23.699778   -0.298695   -2.968107
     17          6           0       23.096455    0.225924   -4.144973
     18          6           0       23.179585    1.672296   -4.096838
     19          6           0       23.895407    1.983347   -2.814377
     20          6           0       22.565556   -0.685333   -5.273145
     21          6           0       22.679870    2.756877   -4.999232
     22          8           0       22.890971    3.972866   -4.929463
     23          6           0       21.722096    2.277176   -6.154646
     24          7           0       25.698260    2.790236   -0.412584
     25          6           0       25.194462    3.619083   -1.292760
     26          6           0       25.405116    5.080949   -0.903905
     27          6           0       26.204427    4.968834    0.425729
     28          6           0       26.304339    3.454661    0.599819
     29          6           0       26.182718    5.942841   -2.023437
     30          6           0       25.366059    5.664170    1.587137
     31          6           0       24.021667    5.065823    2.069948
     32          7           0       26.425145    0.509259    1.306404
     33          6           0       26.998142    1.532450    2.037821
     34          6           0       27.576124    0.907278    3.244836
     35          6           0       27.280209   -0.422748    3.242300
     36          6           0       26.562162   -0.613214    2.006265
     37          6           0       28.473812    1.612921    4.201919
     38          6           0       27.400040   -1.702234    3.940914
     39          8           0       27.947763   -1.996613    4.990092
     40          6           0       26.642610   -2.711232    2.970565
     41          6           0       27.639103   -3.696876    2.504552
     42          8           0       28.717595   -3.479880    1.925124
     43          8           0       27.102059   -4.914537    2.870255
     44          6           0       27.827858   -6.079771    2.348056
     45          1           0       23.273623   -2.297267   -3.357566
     46          1           0       24.062671    4.001944   -3.060481
     47          1           0       27.391774    3.622789    2.411403
     48          1           0       25.705290   -4.401267    0.548067
     49          1           0       23.509122   -4.090760   -1.311122
     50          1           0       26.227100   -5.104021   -1.548842
     51          1           0       26.250078   -3.671170   -2.473291
     52          1           0       24.948860   -4.868640   -2.887323
     53          1           0       22.768121   -4.126573    0.892175
     54          1           0       23.852406   -3.472041    2.192221
     55          1           0       22.938176   -6.002157    2.247231
     56          1           0       24.491455   -5.797731    2.783297
     57          1           0       21.608421   -1.170156   -5.081301
     58          1           0       23.392860   -1.380209   -5.416465
     59          1           0       22.312493   -0.136232   -6.179836
     60          1           0       22.313069    1.761292   -6.911467
     61          1           0       21.098388    3.122196   -6.445672
     62          1           0       20.934143    1.603515   -5.817255
     63          1           0       24.432037    5.527241   -0.700250
     64          1           0       27.181359    5.451046    0.390242
     65          1           0       25.427868    6.581322   -2.483796
     66          1           0       26.597389    5.281924   -2.785269
     67          1           0       26.973133    6.629810   -1.723783
     68          1           0       25.162719    6.724442    1.437761
     69          1           0       26.044686    5.539264    2.431546
     70          1           0       24.247191    4.782609    3.098161
     71          1           0       23.685263    4.233975    1.452379
     72          1           0       23.193918    5.774912    2.061588
     73          1           0       28.241755    1.123868    5.147504
     74          1           0       28.293429    2.687383    4.239895
     75          1           0       29.486407    1.257510    4.015565
     76          1           0       25.979558   -3.183317    3.695065
     77          1           0       27.316493   -6.905623    2.843450
     78          1           0       28.835857   -6.009280    2.756808
     79          1           0       27.933892   -6.126047    1.264017
     80         12           0      -25.032500    0.620429    0.566797
     81          6           0      -24.953881   -1.887097   -2.018726
     82          6           0      -24.744077   -1.788213    2.862675
     83          6           0      -25.994088    2.883493    2.843777
     84          6           0      -25.798879    2.935180   -1.954878
     85          7           0      -24.926229   -1.547255    0.419614
     86          6           0      -24.714178   -2.356754   -0.709383
     87          6           0      -24.318237   -3.825616   -0.296790
     88          6           0      -24.330908   -3.751500    1.260102
     89          6           0      -24.631884   -2.256273    1.546642
     90          6           0      -25.280506   -4.667950    1.989062
     91          6           0      -22.921907   -4.310199   -0.963628
     92          6           0      -22.985916   -5.643906   -1.718133
     93          1           0      -21.992387   -6.735798   -1.172211
     94          7           0      -25.193999    0.586244    2.606072
     95          6           0      -25.048820   -0.486020    3.391159
     96          6           0      -25.276634   -0.157681    4.799488
     97          6           0      -25.737762    1.203522    4.761683
     98          6           0      -25.675420    1.627562    3.359046
     99          6           0      -25.087001   -1.116738    5.895152
    100          6           0      -26.285793    1.968487    6.007199
    101          8           0      -26.608440    3.143456    5.953474
    102          6           0      -26.429957    1.328974    7.351302
    103          7           0      -25.759106    2.557693    0.442296
    104          6           0      -25.971324    3.347493    1.567180
    105          6           0      -26.342839    4.811774    1.162161
    106          6           0      -25.926127    4.868869   -0.354882
    107          6           0      -25.760255    3.378513   -0.651006
    108          6           0      -27.772956    5.329149    1.524787
    109          6           0      -24.610910    5.650014   -0.624505
    110          6           0      -24.526842    6.525672   -1.849198
    111          7           0      -25.374855    0.565465   -1.548539
    112          6           0      -25.672714    1.580968   -2.412250
    113          6           0      -25.617521    1.037806   -3.839400
    114          6           0      -25.291338   -0.292415   -3.730560
    115          6           0      -25.223447   -0.551226   -2.318585
    116          6           0      -25.785825    1.919069   -5.056155
    117          6           0      -25.046190   -1.543615   -4.425471
    118          8           0      -25.065855   -1.669391   -5.667765
    119          6           0      -24.897952   -2.722100   -3.290076
    120          6           0      -26.013664   -3.746176   -3.288541
    121          8           0      -27.206385   -3.391461   -3.208244
    122          8           0      -25.556680   -5.035707   -3.563654
    123          6           0      -26.633752   -5.927880   -3.976574
    124          1           0      -24.545172   -2.505363    3.661530
    125          1           0      -26.232402    3.572349    3.656469
    126          1           0      -25.922170    3.734724   -2.688988
    127          1           0      -25.133798   -4.413491   -0.717477
    128          1           0      -23.369142   -4.169147    1.561050
    129          1           0      -25.901676   -5.263390    1.319824
    130          1           0      -25.960503   -3.923119    2.401109
    131          1           0      -24.778471   -5.359868    2.665981
    132          1           0      -22.251075   -4.353369   -0.106046
    133          1           0      -22.526471   -3.503962   -1.580885
    134          1           0      -22.838323   -5.411091   -2.772699
    135          1           0      -23.985649   -6.066898   -1.611601
    136          1           0      -25.904062   -1.329993    6.583670
    137          1           0      -24.434088   -0.597762    6.595989
    138          1           0      -24.504829   -2.004422    5.646812
    139          1           0      -25.418457    1.033209    7.632250
    140          1           0      -27.000450    0.412436    7.198392
    141          1           0      -26.911123    2.075856    7.981524
    142          1           0      -25.640454    5.419862    1.732287
    143          1           0      -26.733756    5.205515   -1.004459
    144          1           0      -28.193986    4.534787    2.140668
    145          1           0      -28.385033    5.595630    0.663605
    146          1           0      -27.742475    6.156038    2.235392
    147          1           0      -23.947713    4.789057   -0.706080
    148          1           0      -24.252159    6.246178    0.214782
    149          1           0      -24.033326    7.440152   -1.519949
    150          1           0      -25.504046    6.813427   -2.238315
    151          1           0      -23.805192    6.044180   -2.509574
    152          1           0      -25.981366    2.928787   -4.695595
    153          1           0      -26.690864    1.606835   -5.576747
    154          1           0      -24.918685    1.812315   -5.707588
    155          1           0      -23.916293   -3.182347   -3.402447
    156          1           0      -26.609746   -6.235055   -5.021200
    157          1           0      -27.633456   -5.543387   -3.773938
    158          1           0      -26.530473   -6.826066   -3.368269
 ---------------------------------------------------------------------

 SCF Done:  E(RCAM-B3LYP) =  -4069.79393630     A.U. after   19 cycles

 Excitation energies and oscillator strengths:

 Excited State   1:      Singlet-A      1.6979 eV  730.21 nm  f=0.2693  <S**2>=0.000
     310 -> 316        0.16878
     311 -> 313        0.15124
     312 -> 314        0.67137
     310 <- 316        0.10517
 This state for optimization and/or second-order correction.
 Total Energy, E(TD-HF/TD-DFT) =  -4069.73153877
 Copying the excited state density for this state as the 1-particle RhoCI density.

 Excited State   2:      Singlet-A      1.6991 eV  729.68 nm  f=0.5290  <S**2>=0.000
     309 -> 315        0.18168
     311 -> 313        0.66717
     312 -> 314       -0.15216
     309 <- 315        0.10635

 Excited State   3:      Singlet-A      2.2666 eV  547.00 nm  f=0.0451  <S**2>=0.000
     309 -> 313        0.60927
     311 -> 315       -0.34929

 Excited State   4:      Singlet-A      2.2865 eV  542.24 nm  f=0.0919  <S**2>=0.000
     310 -> 314        0.63010
     312 -> 316       -0.31285

 Excited State   5:      Singlet-A      3.1572 eV  392.71 nm  f=0.0000  <S**2>=0.000
     312 -> 313        0.70711

 The electronic state is 1-A.
 Alpha  occ. eigenvalues --  -46.89283 -46.88402 -19.26720 -19.25683 -19.20874
 Alpha  occ. eigenvalues --  -19.20288 -19.19948 -19.19585 -19.19531 -19.18568
 Alpha  occ. eigenvalues --  -14.42587 -14.42324 -14.42225 -14.41671 -14.39705
 Alpha  occ. eigenvalues --  -14.39534 -14.39515 -14.39389 -10.40857 -10.39551
 Alpha  occ. eigenvalues --  -10.36526 -10.35738 -10.35440 -10.34948 -10.32013
 Alpha  occ. eigenvalues --  -10.31864 -10.31806 -10.31765 -10.31613 -10.30981
 Alpha  occ. eigenvalues --  -10.30902 -10.30670 -10.30368 -10.30356 -10.30209
 Alpha  occ. eigenvalues --  -10.30142 -10.29976 -10.29927 -10.29803 -10.29622
 Alpha  occ. eigenvalues --  -10.29524 -10.29268 -10.29157 -10.29118 -10.29027
 Alpha  occ. eigenvalues --  -10.28884 -10.28850 -10.28584 -10.28366 -10.28364
 Alpha  occ. eigenvalues --  -10.28259 -10.28162 -10.28069 -10.27920 -10.27872
 Alpha  occ. eigenvalues --  -10.27788 -10.27739 -10.27616 -10.27591 -10.27526
 Alpha  occ. eigenvalues --  -10.27486 -10.27446 -10.27410 -10.27383 -10.27382
 Alpha  occ. eigenvalues --  -10.27314 -10.27243 -10.27100 -10.26965 -10.26620
 Alpha  occ. eigenvalues --  -10.26528 -10.26523 -10.26260 -10.26167 -10.26163
 Alpha  occ. eigenvalues --  -10.25941 -10.25880 -10.25873 -10.25742 -10.25602
 Alpha  occ. eigenvalues --  -10.25551 -10.25524 -10.25520 -10.25449 -10.25239
 Alpha  occ. eigenvalues --  -10.24763  -3.17687  -3.17054  -1.92590  -1.92132
 Alpha  occ. eigenvalues --   -1.91988  -1.91935  -1.91493  -1.91382  -1.16365
 Alpha  occ. eigenvalues --   -1.15994  -1.10230  -1.10131  -1.09638  -1.09064
 Alpha  occ. eigenvalues --   -1.07980  -1.07504  -1.05159  -1.03941  -1.03810
 Alpha  occ. eigenvalues --   -1.03318  -1.02925  -1.02666  -1.01905  -1.01746
 Alpha  occ. eigenvalues --   -0.92655  -0.92409  -0.89138  -0.89133  -0.88827
 Alpha  occ. eigenvalues --   -0.88767  -0.88055  -0.88039  -0.87351  -0.87310
 Alpha  occ. eigenvalues --   -0.87250  -0.86942  -0.86281  -0.86143  -0.84681
 Alpha  occ. eigenvalues --   -0.84310  -0.83684  -0.83406  -0.82741  -0.82451
 Alpha  occ. eigenvalues --   -0.81957  -0.81571  -0.81241  -0.81228  -0.80254
 Alpha  occ. eigenvalues --   -0.79999  -0.78454  -0.78118  -0.77630  -0.77391
 Alpha  occ. eigenvalues --   -0.77235  -0.76952  -0.76246  -0.75837  -0.75009
 Alpha  occ. eigenvalues --   -0.74728  -0.72500  -0.72471  -0.72211  -0.70993
 Alpha  occ. eigenvalues --   -0.69901  -0.69296  -0.69023  -0.68426  -0.68384
 Alpha  occ. eigenvalues --   -0.67937  -0.67466  -0.66740  -0.65361  -0.65268
 Alpha  occ. eigenvalues --   -0.65034  -0.65015  -0.64919  -0.64738  -0.64425
 Alpha  occ. eigenvalues --   -0.64376  -0.62616  -0.62570  -0.60334  -0.60311
 Alpha  occ. eigenvalues --   -0.59796  -0.59452  -0.58950  -0.58941  -0.58810
 Alpha  occ. eigenvalues --   -0.58547  -0.58356  -0.58007  -0.57517  -0.57342
 Alpha  occ. eigenvalues --   -0.56280  -0.55958  -0.55571  -0.55451  -0.55139
 Alpha  occ. eigenvalues --   -0.55099  -0.54947  -0.54911  -0.54454  -0.53793
 Alpha  occ. eigenvalues --   -0.53574  -0.53538  -0.53225  -0.53186  -0.53157
 Alpha  occ. eigenvalues --   -0.52623  -0.52480  -0.52428  -0.52319  -0.52162
 Alpha  occ. eigenvalues --   -0.51976  -0.51855  -0.51640  -0.51535  -0.51510
 Alpha  occ. eigenvalues --   -0.51296  -0.51157  -0.51088  -0.50923  -0.50848
 Alpha  occ. eigenvalues --   -0.50272  -0.49889  -0.49685  -0.49631  -0.49396
 Alpha  occ. eigenvalues --   -0.49367  -0.49180  -0.48951  -0.48814  -0.48648
 Alpha  occ. eigenvalues --   -0.48617  -0.48552  -0.48507  -0.48344  -0.48168
 Alpha  occ. eigenvalues --   -0.48152  -0.47976  -0.47730  -0.47415  -0.47271
 Alpha  occ. eigenvalues --   -0.47260  -0.47046  -0.46878  -0.46778  -0.46777
 Alpha  occ. eigenvalues --   -0.46507  -0.46172  -0.46044  -0.45970  -0.45908
 Alpha  occ. eigenvalues --   -0.45698  -0.45649  -0.45391  -0.45220  -0.44805
 Alpha  occ. eigenvalues --   -0.44593  -0.44566  -0.44351  -0.44165  -0.44056
 Alpha  occ. eigenvalues --   -0.43942  -0.43838  -0.43636  -0.43494  -0.43251
 Alpha  occ. eigenvalues --   -0.43222  -0.43020  -0.43020  -0.42940  -0.42873
 Alpha  occ. eigenvalues --   -0.42802  -0.42692  -0.42339  -0.42170  -0.42136
 Alpha  occ. eigenvalues --   -0.41969  -0.41747  -0.41728  -0.41721  -0.41569
 Alpha  occ. eigenvalues --   -0.41145  -0.40808  -0.40775  -0.40582  -0.40572
 Alpha  occ. eigenvalues --   -0.40200  -0.39824  -0.39548  -0.39524  -0.39156
 Alpha  occ. eigenvalues --   -0.38316  -0.37903  -0.37833  -0.37526  -0.37450
 Alpha  occ. eigenvalues --   -0.37438  -0.37177  -0.36755  -0.36441  -0.36427
 Alpha  occ. eigenvalues --   -0.36292  -0.36131  -0.35176  -0.34699  -0.34459
 Alpha  occ. eigenvalues --   -0.34241  -0.33510  -0.32908  -0.31574  -0.31411
 Alpha  occ. eigenvalues --   -0.31251  -0.31142  -0.31015  -0.30717  -0.30410
 Alpha  occ. eigenvalues --   -0.30410  -0.29913  -0.29802  -0.24442  -0.24192
 Alpha  occ. eigenvalues --   -0.20987  -0.20799
 Alpha virt. eigenvalues --   -0.08517  -0.08448  -0.02387  -0.01339  -0.00273
 Alpha virt. eigenvalues --   -0.00065   0.01764   0.01918   0.02141   0.02306
 Alpha virt. eigenvalues --    0.02782   0.04511   0.04702   0.04908   0.05409

 Mulliken charges:
               1
     1  Mg   0.798395
     2  C    0.018679
     3  C   -0.098322
     4  C   -0.026572
     5  C   -0.072673
     6  N   -0.371544
     7  C   -0.042092
     8  C   -0.004780
     9  C   -0.083354
    10  C    0.109740
    11  C    0.079498
    12  C    0.115806
    13  C   -0.087222
    14  H   -0.012867
    15  N   -0.377600
    16  C    0.154387
    17  C   -0.133056
    18  C   -0.038218
    19  C    0.104454
    20  C    0.104475
    21  C    0.019097
    22  O   -0.205624
    23  C    0.005665
    24  N   -0.192987
    25  C   -0.005881
    26  C   -0.021534
    27  C    0.004535
    28  C    0.005365
    29  C    0.043650
    30  C   -0.019987
    31  C   -0.000260
    32  N   -0.317252
    33  C    0.124305
    34  C   -0.222841
    35  C    0.035489
    36  C    0.083051
    37  C    0.127714
    38  C    0.060064
    39  O   -0.156788
    40  C   -0.043838
    41  C    0.209645
    42  O   -0.230288
    43  O   -0.341672
    44  C    0.182860
    45  H   -0.025410
    46  H   -0.002698
    47  H   -0.021280
    48  H    0.011630
    49  H    0.000546
    50  H    0.022071
    51  H    0.023909
    52  H    0.028385
    53  H    0.014403
    54  H    0.017215
    55  H    0.020341
    56  H    0.040256
    57  H    0.031527
    58  H    0.040615
    59  H   -0.006174
    60  H    0.059104
    61  H    0.025849
    62  H    0.020781
    63  H    0.023722
    64  H    0.011282
    65  H    0.021393
    66  H    0.027454
    67  H    0.019042
    68  H    0.016331
    69  H   -0.003146
    70  H    0.022471
    71  H    0.020496
    72  H    0.015712
    73  H    0.023476
    74  H    0.018838
    75  H    0.042602
    76  H    0.039233
    77  H    0.040903
    78  H    0.037742
    79  H    0.041761
    80  Mg   0.838900
    81  C   -0.085772
    82  C   -0.073213
    83  C   -0.080470
    84  C   -0.091738
    85  N   -0.300400
    86  C   -0.058273
    87  C   -0.033052
    88  C   -0.060023
    89  C    0.087841
    90  C    0.072299
    91  C    0.046885
    92  C   -0.051486
    93  H    0.010841
    94  N   -0.369158
    95  C    0.094523
    96  C   -0.130023
    97  C   -0.034164
    98  C    0.097027
    99  C    0.117794
   100  C   -0.018385
   101  O   -0.206454
   102  C    0.074191
   103  N   -0.329463
   104  C    0.078676
   105  C   -0.014141
   106  C   -0.051111
   107  C    0.040930
   108  C    0.083603
   109  C    0.023096
   110  C    0.033903
   111  N   -0.304523
   112  C    0.131430
   113  C   -0.210491
   114  C    0.055758
   115  C    0.126771
   116  C    0.140652
   117  C    0.068202
   118  O   -0.187287
   119  C    0.029252
   120  C    0.231175
   121  O   -0.228386
   122  O   -0.337454
   123  C    0.158754
   124  H   -0.037807
   125  H   -0.010929
   126  H   -0.028607
   127  H    0.019776
   128  H    0.008367
   129  H    0.005494
   130  H    0.020677
   131  H    0.020449
   132  H    0.007915
   133  H    0.014262
   134  H    0.041812
   135  H    0.032823
   136  H    0.024575
   137  H    0.006548
   138  H    0.018687
   139  H    0.028777
   140  H    0.031863
   141  H    0.041576
   142  H    0.004094
   143  H    0.004874
   144  H    0.017575
   145  H    0.023642
   146  H    0.013199
   147  H    0.005354
   148  H    0.010957
   149  H    0.005701
   150  H    0.020928
   151  H    0.021816
   152  H    0.000842
   153  H    0.035334
   154  H    0.044340
   155  H    0.029862
   156  H    0.045616
   157  H    0.055293
   158  H    0.027282
 Sum of Mulliken charges =  -0.00000

 Dipole moment (field-independent basis, Debye):
    X=             -1.5321    Y=             -2.4725    Z=              0.9801  Tot=              3.0694
 Quadrupole moment (field-independent basis, Debye-Ang):
   XX=           -849.4527   YY=           -462.9588   ZZ=           -541.7033
   XY=             14.6254   XZ=           -103.5299   YZ=              1.4776

 Normal termination of Gaussian 16 at Tue Sep 14 16:47:58 2021.
