 Gaussian 16, Revision A.03,
 Gaussian 16:  ES64L-G16RevA.03 25-Dec-2016

 ----------------------------------------------------------
 #p cam-b3lyp/Def2SVP td=(nstates=5) density=(transition=1)
 ----------------------------------------------------------

 --------------------------------
 TDDFT excited states in gaussian
 --------------------------------
 Symbolic Z-matrix:
 Charge =  0 Multiplicity = 1

                         Standard orientation:
 ---------------------------------------------------------------------
 Center     Atomic      Atomic             Coordinates (Angstroms)
 Number     Number       Type             X           Y           Z
 ---------------------------------------------------------------------
      1         12           0      -13.335737   -0.609731    0.385403
      2          6           0      -13.515560    2.739392   -0.807542
      3          6           0      -11.914418    0.587398    3.278381
      4          6           0      -13.191692   -3.782380    1.297780
      5          6           0      -14.352777   -1.757105   -2.865517
      6          7           0      -12.691993    1.488546    1.158503
      7          6           0      -12.990250    2.663662    0.493329
      8          6           0      -12.540437    3.826548    1.442766
      9          6           0      -11.967256    3.120313    2.784289
     10          6           0      -12.188177    1.659101    2.380133
     11          6           0      -10.533916    3.512455    3.199315
     12          6           0      -13.578887    4.997449    1.690558
     13          6           0      -13.111751    6.372429    1.310475
     14          1           0      -11.665959    6.793713    1.313139
     15          7           0      -12.734917   -1.505349    2.188004
     16          6           0      -12.176591   -0.834809    3.230330
     17          6           0      -12.062945   -1.793395    4.299325
     18          6           0      -12.321385   -3.060226    3.732783
     19          6           0      -12.759056   -2.868392    2.311874
     20          6           0      -11.552137   -1.349110    5.680320
     21          6           0      -12.078099   -4.398751    4.361544
     22          8           0      -12.234007   -5.463862    3.718520
     23          6           0      -11.586044   -4.467124    5.759631
     24          7           0      -13.677844   -2.502526   -0.727451
     25          6           0      -13.623985   -3.622262   -0.094265
     26          6           0      -14.059586   -4.951407   -0.913285
     27          6           0      -14.407783   -4.278430   -2.249703
     28          6           0      -14.152969   -2.817359   -1.970915
     29          6           0      -12.853907   -5.959990   -0.960596
     30          6           0      -15.852959   -4.521808   -2.810516
     31          6           0      -17.010045   -3.802868   -2.077028
     32          7           0      -13.696173    0.260021   -1.429704
     33          6           0      -14.071511   -0.357144   -2.646193
     34          6           0      -14.356535    0.705935   -3.619512
     35          6           0      -14.159704    1.930943   -2.937991
     36          6           0      -13.797288    1.608122   -1.586637
     37          6           0      -14.825583    0.484512   -5.088720
     38          6           0      -14.236237    3.282797   -3.120117
     39          8           0      -14.479714    3.963208   -4.095795
     40          6           0      -13.886511    3.924111   -1.748226
     41          6           0      -12.817843    4.875631   -1.947437
     42          8           0      -11.612981    4.601291   -1.912513
     43          8           0      -13.344747    6.085366   -2.415157
     44          6           0      -12.322060    7.075210   -2.835164
     45          1           0      -11.242708    0.800572    4.112996
     46          1           0      -12.983303   -4.822424    1.557588
     47          1           0      -14.668415   -2.051212   -3.868629
     48          1           0      -11.799689    4.279950    0.785386
     49          1           0      -12.567360    3.443775    3.633625
     50          1           0      -10.518921    3.890740    4.222259
     51          1           0      -10.014954    4.225810    2.559301
     52          1           0       -9.982313    2.573962    3.143903
     53          1           0      -13.889022    5.005864    2.735657
     54          1           0      -14.422820    4.773206    1.038138
     55          1           0      -13.410419    7.032215    2.125856
     56          1           0      -13.562105    6.622764    0.350598
     57          1           0      -11.608517   -0.268180    5.810860
     58          1           0      -10.521493   -1.675847    5.812490
     59          1           0      -12.212928   -1.850720    6.386587
     60          1           0      -12.317099   -3.945144    6.377072
     61          1           0      -10.638091   -3.940020    5.874171
     62          1           0      -11.403436   -5.500206    6.052680
     63          1           0      -14.940379   -5.418673   -0.472176
     64          1           0      -13.631451   -4.501461   -2.981954
     65          1           0      -11.933192   -5.377658   -0.926012
     66          1           0      -12.880145   -6.473656   -1.922264
     67          1           0      -12.792818   -6.721888   -0.183071
     68          1           0      -16.017317   -5.589043   -2.955767
     69          1           0      -15.858525   -4.187727   -3.847570
     70          1           0      -16.890863   -3.647530   -1.005278
     71          1           0      -17.938032   -4.321359   -2.320727
     72          1           0      -17.095893   -2.835784   -2.572242
     73          1           0      -15.699461    1.079614   -5.354047
     74          1           0      -15.013806   -0.561449   -5.328237
     75          1           0      -14.127563    0.984131   -5.760943
     76          1           0      -14.819055    4.430951   -1.502266
     77          1           0      -11.819605    6.744857   -3.743931
     78          1           0      -11.521660    7.231453   -2.112853
     79          1           0      -12.821184    8.044318   -2.845133
     80         12           0       12.774518   -0.731085   -0.491482
     81          6           0       14.933952    1.979355    0.409489
     82          6           0       10.090857    1.098986    0.623287
     83          6           0       10.727076   -3.390230   -0.871935
     84          6           0       15.655616   -2.759298   -0.655751
     85          7           0       12.570555    1.299304    0.393218
     86          6           0       13.551455    2.278449    0.616117
     87          6           0       12.886515    3.540843    1.101820
     88          6           0       11.484880    3.007619    1.620631
     89          6           0       11.379944    1.650331    0.864986
     90          6           0       11.582306    2.830529    3.177874
     91          6           0       12.864314    4.702733    0.046901
     92          6           0       13.215480    5.958565    0.670486
     93          1           0       13.574624    7.149332   -0.353142
     94          7           0       10.659976   -0.954714   -0.306203
     95          6           0        9.744667   -0.079558    0.126934
     96          6           0        8.439579   -0.645060   -0.027218
     97          6           0        8.580776   -1.953100   -0.440701
     98          6           0       10.088745   -2.174882   -0.627190
     99          6           0        7.150365    0.097233    0.448210
    100          6           0        7.488686   -2.986967   -0.784012
    101          8           0        7.817420   -4.102665   -1.098833
    102          6           0        6.031568   -2.590245   -0.817413
    103          7           0       13.172496   -2.834781   -0.457703
    104          6           0       12.128548   -3.697719   -0.772526
    105          6           0       12.649875   -5.048467   -1.141478
    106          6           0       14.242998   -4.848809   -1.095902
    107          6           0       14.388903   -3.379015   -0.779342
    108          6           0       12.105406   -6.141366   -0.285093
    109          6           0       15.092041   -5.288501   -2.411514
    110          6           0       16.108197   -6.350694   -2.261462
    111          7           0       14.885154   -0.497088   -0.246762
    112          6           0       15.888940   -1.433731   -0.348489
    113          6           0       17.221039   -0.710757   -0.159653
    114          6           0       16.901961    0.649312    0.026449
    115          6           0       15.464696    0.718290    0.017594
    116          6           0       18.592203   -1.400275   -0.156675
    117          6           0       17.495701    1.906678    0.366999
    118          8           0       18.698406    2.224140    0.506728
    119          6           0       16.254335    2.790534    0.798379
    120          6           0       16.480213    4.176014    0.121821
    121          8           0       15.868574    4.483816   -0.917602
    122          8           0       17.317068    4.926939    0.879154
    123          6           0       17.679276    6.167354    0.110861
    124          1           0        9.218638    1.741904    0.761416
    125          1           0       10.084373   -4.261581   -1.018473
    126          1           0       16.606451   -3.280762   -0.782956
    127          1           0       13.437781    3.839516    1.993161
    128          1           0       10.678953    3.705405    1.396093
    129          1           0       12.170542    1.965302    3.482579
    130          1           0       10.574613    2.794006    3.589599
    131          1           0       12.046539    3.720923    3.602523
    132          1           0       11.818088    4.846471   -0.224062
    133          1           0       13.449193    4.460456   -0.840726
    134          1           0       14.161499    5.880421    1.206519
    135          1           0       12.378320    6.253368    1.303703
    136          1           0        6.531836    0.105363   -0.449217
    137          1           0        7.303002    1.131285    0.756935
    138          1           0        6.713368   -0.427459    1.297714
    139          1           0        5.401566   -3.462053   -0.994257
    140          1           0        6.109348   -1.915484   -1.669853
    141          1           0        5.793184   -2.099069    0.125952
    142          1           0       12.313648   -5.156500   -2.172851
    143          1           0       14.606812   -5.456664   -0.267873
    144          1           0       11.445182   -6.699238   -0.947950
    145          1           0       11.449588   -5.776889    0.505431
    146          1           0       12.848690   -6.788398    0.181281
    147          1           0       15.647157   -4.377228   -2.633899
    148          1           0       14.381627   -5.465380   -3.217955
    149          1           0       17.108707   -5.970881   -2.466763
    150          1           0       15.795667   -6.940344   -3.122608
    151          1           0       15.982042   -6.943255   -1.354313
    152          1           0       18.810467   -1.612811    0.889288
    153          1           0       19.378169   -0.769507   -0.571885
    154          1           0       18.542809   -2.288176   -0.787031
    155          1           0       16.352372    2.836789    1.882115
    156          1           0       18.379531    6.010953   -0.709514
    157          1           0       18.074386    6.981071    0.718148
    158          1           0       16.734018    6.565626   -0.258427
 ---------------------------------------------------------------------

 SCF Done:  E(RCAM-B3LYP) =  -4069.77824444     A.U. after   19 cycles

 Excitation energies and oscillator strengths:

 Excited State   1:      Singlet-A      1.7189 eV  721.29 nm  f=0.3626  <S**2>=0.000
     309 -> 315        0.18744
     312 -> 314        0.68202
     309 <- 315        0.10708
 This state for optimization and/or second-order correction.
 Total Energy, E(TD-HF/TD-DFT) =  -4069.71507561
 Copying the excited state density for this state as the 1-particle RhoCI density.

 Excited State   2:      Singlet-A      1.7534 eV  707.10 nm  f=0.3684  <S**2>=0.000
     310 -> 316        0.18831
     311 -> 313        0.68161
     310 <- 316        0.10754

 Excited State   3:      Singlet-A      2.2094 eV  561.17 nm  f=0.1074  <S**2>=0.000
     310 -> 313        0.64204
     311 -> 316       -0.28095

 Excited State   4:      Singlet-A      2.2689 eV  546.44 nm  f=0.0058  <S**2>=0.000
     309 -> 314        0.54880
     312 -> 315       -0.43686

 Excited State   5:      Singlet-A      2.7966 eV  443.34 nm  f=0.0000  <S**2>=0.000
     312 -> 313        0.70709

 The electronic state is 1-A.
 Alpha  occ. eigenvalues --  -46.89886 -46.89407 -19.26137 -19.24338 -19.19734
 Alpha  occ. eigenvalues --  -19.19457 -19.19365 -19.18839 -19.18725 -19.17592
 Alpha  occ. eigenvalues --  -14.42742 -14.42245 -14.41952 -14.41890 -14.39834
 Alpha  occ. eigenvalues --  -14.39745 -14.39341 -14.39129 -10.39697 -10.38682
 Alpha  occ. eigenvalues --  -10.35646 -10.35134 -10.34884 -10.33368 -10.31969
 Alpha  occ. eigenvalues --  -10.31788 -10.31513 -10.31485 -10.31350 -10.31284
 Alpha  occ. eigenvalues --  -10.31181 -10.31171 -10.30966 -10.30904 -10.30858
 Alpha  occ. eigenvalues --  -10.30456 -10.30268 -10.29922 -10.29428 -10.29149
 Alpha  occ. eigenvalues --  -10.28979 -10.28946 -10.28887 -10.28844 -10.28742
 Alpha  occ. eigenvalues --  -10.28638 -10.28593 -10.28452 -10.28165 -10.28130
 Alpha  occ. eigenvalues --  -10.28126 -10.28091 -10.28083 -10.28056 -10.28052
 Alpha  occ. eigenvalues --  -10.28050 -10.28022 -10.28012 -10.27779 -10.27758
 Alpha  occ. eigenvalues --  -10.27479 -10.27406 -10.27346 -10.27329 -10.27283
 Alpha  occ. eigenvalues --  -10.27202 -10.27094 -10.26993 -10.26898 -10.26669
 Alpha  occ. eigenvalues --  -10.26424 -10.26396 -10.26392 -10.26363 -10.26267
 Alpha  occ. eigenvalues --  -10.26232 -10.26087 -10.26035 -10.25930 -10.25925
 Alpha  occ. eigenvalues --  -10.25855 -10.25339 -10.25077 -10.25004 -10.24906
 Alpha  occ. eigenvalues --  -10.23964  -3.18222  -3.17744  -1.93136  -1.92712
 Alpha  occ. eigenvalues --   -1.92640  -1.92478  -1.92186  -1.92045  -1.16021
 Alpha  occ. eigenvalues --   -1.14425  -1.11707  -1.09314  -1.08531  -1.07825
 Alpha  occ. eigenvalues --   -1.07104  -1.06382  -1.06177  -1.04057  -1.03768
 Alpha  occ. eigenvalues --   -1.03102  -1.03007  -1.02677  -1.01770  -1.01409
 Alpha  occ. eigenvalues --   -0.92350  -0.91195  -0.89809  -0.88912  -0.88663
 Alpha  occ. eigenvalues --   -0.88353  -0.88166  -0.87899  -0.87476  -0.87322
 Alpha  occ. eigenvalues --   -0.87224  -0.86859  -0.85544  -0.85446  -0.84391
 Alpha  occ. eigenvalues --   -0.84386  -0.83759  -0.83434  -0.82607  -0.82578
 Alpha  occ. eigenvalues --   -0.82486  -0.82291  -0.80741  -0.80649  -0.80432
 Alpha  occ. eigenvalues --   -0.80116  -0.78391  -0.78186  -0.77640  -0.77516
 Alpha  occ. eigenvalues --   -0.76514  -0.76511  -0.75799  -0.75447  -0.75048
 Alpha  occ. eigenvalues --   -0.74899  -0.72590  -0.72144  -0.71627  -0.71412
 Alpha  occ. eigenvalues --   -0.70525  -0.69105  -0.68771  -0.67908  -0.67840
 Alpha  occ. eigenvalues --   -0.67386  -0.66982  -0.66344  -0.65378  -0.65082
 Alpha  occ. eigenvalues --   -0.64974  -0.64933  -0.64713  -0.64407  -0.64303
 Alpha  occ. eigenvalues --   -0.64270  -0.62013  -0.61485  -0.60294  -0.59891
 Alpha  occ. eigenvalues --   -0.59571  -0.59088  -0.58672  -0.58405  -0.58209
 Alpha  occ. eigenvalues --   -0.58199  -0.58007  -0.57592  -0.57391  -0.57067
 Alpha  occ. eigenvalues --   -0.56344  -0.56088  -0.55953  -0.55529  -0.55337
 Alpha  occ. eigenvalues --   -0.55030  -0.55017  -0.54296  -0.53975  -0.53945
 Alpha  occ. eigenvalues --   -0.53663  -0.53521  -0.53309  -0.53085  -0.52939
 Alpha  occ. eigenvalues --   -0.52907  -0.52716  -0.52692  -0.52564  -0.52427
 Alpha  occ. eigenvalues --   -0.52090  -0.51883  -0.51616  -0.51357  -0.51220
 Alpha  occ. eigenvalues --   -0.50872  -0.50526  -0.50522  -0.50391  -0.50186
 Alpha  occ. eigenvalues --   -0.50090  -0.49914  -0.49576  -0.49482  -0.49312
 Alpha  occ. eigenvalues --   -0.49281  -0.49090  -0.49022  -0.48933  -0.48906
 Alpha  occ. eigenvalues --   -0.48640  -0.48622  -0.48172  -0.48046  -0.47994
 Alpha  occ. eigenvalues --   -0.47971  -0.47818  -0.47578  -0.47404  -0.47384
 Alpha  occ. eigenvalues --   -0.46800  -0.46679  -0.46591  -0.46580  -0.46517
 Alpha  occ. eigenvalues --   -0.46227  -0.46205  -0.46065  -0.45883  -0.45820
 Alpha  occ. eigenvalues --   -0.45553  -0.45357  -0.44997  -0.44662  -0.44608
 Alpha  occ. eigenvalues --   -0.44515  -0.44321  -0.44287  -0.44056  -0.43844
 Alpha  occ. eigenvalues --   -0.43813  -0.43718  -0.43511  -0.43430  -0.43269
 Alpha  occ. eigenvalues --   -0.43124  -0.42996  -0.42813  -0.42790  -0.42541
 Alpha  occ. eigenvalues --   -0.42429  -0.42339  -0.41975  -0.41933  -0.41892
 Alpha  occ. eigenvalues --   -0.41889  -0.41642  -0.41439  -0.41439  -0.41323
 Alpha  occ. eigenvalues --   -0.41207  -0.41102  -0.40754  -0.40658  -0.40198
 Alpha  occ. eigenvalues --   -0.40178  -0.39846  -0.39815  -0.39181  -0.38818
 Alpha  occ. eigenvalues --   -0.38523  -0.37843  -0.37241  -0.37058  -0.37009
 Alpha  occ. eigenvalues --   -0.36928  -0.36694  -0.36431  -0.36167  -0.36120
 Alpha  occ. eigenvalues --   -0.35564  -0.34760  -0.34003  -0.33970  -0.33797
 Alpha  occ. eigenvalues --   -0.33742  -0.33114  -0.33071  -0.31704  -0.31382
 Alpha  occ. eigenvalues --   -0.31368  -0.31272  -0.30604  -0.30395  -0.30052
 Alpha  occ. eigenvalues --   -0.30029  -0.29623  -0.29308  -0.24228  -0.23858
 Alpha  occ. eigenvalues --   -0.21310  -0.20178
 Alpha virt. eigenvalues --   -0.08609  -0.07548  -0.02485  -0.01851   0.00032
 Alpha virt. eigenvalues --    0.00075   0.01842   0.02258   0.02427   0.02521
 Alpha virt. eigenvalues --    0.04887   0.04941   0.05467   0.05480   0.06038

 Mulliken charges:
               1
     1  Mg  12.000083
     2  C    6.000475
     3  C    5.999195
     4  C    5.999658
     5  C    6.000547
     6  N    7.000099
     7  C    5.999260
     8  C    6.000233
     9  C    5.999381
    10  C    6.001313
    11  C    5.999926
    12  C    6.000080
    13  C    6.000031
    14  H    1.000098
    15  N    6.999318
    16  C    6.001680
    17  C    6.000435
    18  C    6.000490
    19  C    6.001226
    20  C    5.999912
    21  C    6.000438
    22  O    8.000852
    23  C    5.999819
    24  N    7.000273
    25  C    6.001044
    26  C    5.999669
    27  C    6.000305
    28  C    5.998819
    29  C    5.999835
    30  C    6.000145
    31  C    6.000192
    32  N    7.000185
    33  C    5.998607
    34  C    5.999206
    35  C    5.999928
    36  C    5.999051
    37  C    6.000128
    38  C    5.999519
    39  O    7.998903
    40  C    5.999933
    41  C    5.999815
    42  O    8.000015
    43  O    7.999905
    44  C    6.000082
    45  H    1.000367
    46  H    1.000240
    47  H    0.999643
    48  H    1.000263
    49  H    0.999996
    50  H    1.000016
    51  H    1.000541
    52  H    1.000290
    53  H    0.999591
    54  H    1.000038
    55  H    0.999689
    56  H    1.000052
    57  H    1.000473
    58  H    1.000916
    59  H    1.000281
    60  H    0.999993
    61  H    1.000524
    62  H    1.000434
    63  H    0.999848
    64  H    1.000074
    65  H    1.000333
    66  H    1.000316
    67  H    0.999852
    68  H    0.999577
    69  H    1.000036
    70  H    0.999624
    71  H    0.999602
    72  H    1.000226
    73  H    0.999162
    74  H    0.999312
    75  H    0.999454
    76  H    0.999544
    77  H    1.000050
    78  H    0.999935
    79  H    0.999600
    80  Mg  12.003309
    81  C    5.975312
    82  C    6.012451
    83  C    6.031857
    84  C    5.983588
    85  N    6.985607
    86  C    6.035461
    87  C    5.993420
    88  C    6.014300
    89  C    5.963457
    90  C    6.004599
    91  C    5.994549
    92  C    6.000458
    93  H    0.999732
    94  N    7.018415
    95  C    5.962604
    96  C    5.982753
    97  C    5.986678
    98  C    5.952136
    99  C    6.001332
   100  C    5.989151
   101  O    7.976241
   102  C    6.001566
   103  N    7.005052
   104  C    5.954067
   105  C    6.014673
   106  C    5.983853
   107  C    6.034643
   108  C    6.001494
   109  C    5.998126
   110  C    5.997582
   111  N    6.993520
   112  C    6.043607
   113  C    6.034884
   114  C    5.998601
   115  C    6.036322
   116  C    5.998029
   117  C    6.015716
   118  O    8.027555
   119  C    5.998493
   120  C    6.003969
   121  O    8.008587
   122  O    7.999239
   123  C    5.997336
   124  H    0.989145
   125  H    0.995503
   126  H    1.008123
   127  H    0.996434
   128  H    0.995670
   129  H    0.990798
   130  H    1.000849
   131  H    0.986634
   132  H    1.012107
   133  H    0.995827
   134  H    0.995155
   135  H    1.006119
   136  H    0.986043
   137  H    0.983664
   138  H    0.983512
   139  H    0.986266
   140  H    0.994618
   141  H    0.994790
   142  H    0.999319
   143  H    1.005888
   144  H    0.999633
   145  H    1.003971
   146  H    0.988298
   147  H    0.993881
   148  H    1.010704
   149  H    0.997079
   150  H    1.005799
   151  H    1.004126
   152  H    1.020730
   153  H    1.017860
   154  H    1.018465
   155  H    1.007779
   156  H    1.000719
   157  H    1.005041
   158  H    1.005128
 Sum of Mulliken charges = 624.00000

 Dipole moment (field-independent basis, Debye):
    X=             10.5025    Y=              0.9733    Z=             -0.0061  Tot=             10.5475
 Quadrupole moment (field-independent basis, Debye-Ang):
   XX=            263.9844   YY=              0.8184   ZZ=             -0.6386
   XY=              8.9781   XZ=             -9.1758   YZ=             -1.0200

 Normal termination of Gaussian 16 at Wed Sep 22 07:29:58 2021.
