 Gaussian 16, Revision A.03,
 Gaussian 16:  ES64L-G16RevA.03 25-Dec-2016

 -----------------------------------
 #p cam-b3lyp/Def2SVP td=(nstates=5)
 -----------------------------------

 --------------------------------
 TDDFT excited states in gaussian
 --------------------------------
 Symbolic Z-matrix:
 Charge =  0 Multiplicity = 1

                         Standard orientation:
 ---------------------------------------------------------------------
 Center     Atomic      Atomic             Coordinates (Angstroms)
 Number     Number       Type             X           Y           Z
 ---------------------------------------------------------------------
      1         12           0       12.773686    0.035617    0.172024
      2          6           0        9.441080   -0.617753   -0.213692
      3          6           0       13.083308    0.781613   -3.060612
      4          6           0       15.970198    0.389543    0.700787
      5          6           0       12.442423   -1.354380    3.437100
      6          7           0       11.430476   -0.085422   -1.528332
      7          6           0       10.083019   -0.115103   -1.375050
      8          6           0        9.368257    0.402792   -2.593070
      9          6           0       10.578279    0.573838   -3.596755
     10          6           0       11.786099    0.333410   -2.717243
     11          6           0       10.503782   -0.321090   -4.857118
     12          6           0        8.431309    1.730933   -2.318185
     13          6           0        7.002016    1.750363   -2.881206
     14          1           0        6.716448    0.838514   -4.115661
     15          7           0       14.221257    0.661706   -0.925104
     16          6           0       14.220668    0.932780   -2.256350
     17          6           0       15.532759    1.229505   -2.777504
     18          6           0       16.330626    1.319970   -1.677154
     19          6           0       15.535797    0.662854   -0.593510
     20          6           0       15.674337    1.326462   -4.285524
     21          6           0       17.803771    1.764978   -1.585331
     22          8           0       18.452434    1.754415   -0.565113
     23          6           0       18.393618    2.187467   -2.898404
     24          7           0       14.031373   -0.596791    1.807184
     25          6           0       15.312191   -0.186562    1.779222
     26          6           0       16.011405   -0.485687    3.109023
     27          6           0       14.812494   -0.746257    4.082926
     28          6           0       13.676891   -0.942720    3.057714
     29          6           0       17.106679   -1.634951    3.145013
     30          6           0       14.437614    0.429579    5.061701
     31          6           0       14.048214    1.801526    4.577580
     32          7           0       11.287863   -0.752495    1.476821
     33          6           0       11.286595   -1.364645    2.734365
     34          6           0        9.938977   -1.799944    3.122716
     35          6           0        9.168614   -1.514673    1.985440
     36          6           0       10.053920   -0.887125    1.053442
     37          6           0        9.481070   -2.358304    4.445622
     38          6           0        7.902424   -1.589062    1.414071
     39          8           0        6.841622   -2.059847    1.793753
     40          6           0        7.958791   -0.808611    0.075312
     41          6           0        7.269946   -1.727882   -0.859315
     42          8           0        7.775994   -2.719226   -1.390706
     43          8           0        5.948374   -1.409148   -0.979987
     44          6           0        5.031789   -2.361868   -1.614263
     45          1           0       13.107686    1.202875   -4.068008
     46          1           0       17.018299    0.534446    0.968113
     47          1           0       12.480727   -1.715081    4.467823
     48          1           0        8.749544   -0.377635   -3.036179
     49          1           0       10.642461    1.620329   -3.894018
     50          1           0       11.195446   -1.155009   -4.738248
     51          1           0       10.823526    0.267288   -5.717176
     52          1           0        9.473886   -0.671350   -4.926953
     53          1           0        8.996193    2.558537   -2.747401
     54          1           0        8.290892    1.883578   -1.248566
     55          1           0        6.764977    2.739796   -3.271372
     56          1           0        6.286563    1.581976   -2.076389
     57          1           0       15.429168    0.416632   -4.833655
     58          1           0       16.658254    1.428925   -4.742855
     59          1           0       15.052729    2.197455   -4.493161
     60          1           0       17.801235    2.984109   -3.347832
     61          1           0       18.447861    1.238741   -3.431930
     62          1           0       19.380419    2.648956   -2.907194
     63          1           0       16.543622    0.448836    3.290082
     64          1           0       14.969744   -1.703366    4.580730
     65          1           0       17.215309   -2.063120    2.148824
     66          1           0       16.759697   -2.480163    3.738236
     67          1           0       18.085619   -1.362094    3.542067
     68          1           0       15.350324    0.462657    5.657201
     69          1           0       13.606908    0.170171    5.717232
     70          1           0       14.228210    1.873665    3.504172
     71          1           0       14.668891    2.563338    5.049038
     72          1           0       12.997627    2.072784    4.679500
     73          1           0        9.260256   -3.423490    4.393117
     74          1           0        8.600336   -1.815531    4.789269
     75          1           0       10.367468   -2.256395    5.072233
     76          1           0        7.512076    0.181968    0.162703
     77          1           0        4.004220   -2.235475   -1.271301
     78          1           0        5.415948   -3.380301   -1.582941
     79          1           0        4.986325   -2.240943   -2.696425
     80         12           0      -12.378564   -0.458358   -0.651624
     81          6           0      -11.513724    2.995537    0.114933
     82          6           0       -9.085250   -0.939019   -1.495793
     83          6           0      -12.747246   -3.702820    0.069452
     84          6           0      -15.621072    0.235767    0.090450
     85          7           0      -10.469080    0.873429   -0.486630
     86          6           0      -10.385540    2.286869   -0.216189
     87          6           0       -8.978113    2.786365   -0.554465
     88          6           0       -8.351889    1.637857   -1.399224
     89          6           0       -9.333370    0.407490   -1.160927
     90          6           0       -8.246587    1.973931   -2.961803
     91          6           0       -8.152181    3.330248    0.574425
     92          6           0       -8.592470    2.979253    2.015272
     93          1           0       -7.869013    3.361369    3.319515
     94          7           0      -11.111612   -2.143737   -0.840609
     95          6           0       -9.778739   -2.116896   -1.186889
     96          6           0       -9.298899   -3.529960   -1.295143
     97          6           0      -10.329543   -4.278227   -0.732080
     98          6           0      -11.459520   -3.409467   -0.411167
     99          6           0       -7.930174   -3.837017   -1.790595
    100          6           0      -10.264663   -5.811954   -0.474895
    101          8           0       -9.212793   -6.382686   -0.702750
    102          6           0      -11.347938   -6.610417    0.171169
    103          7           0      -13.960268   -1.497463    0.144297
    104          6           0      -13.873064   -2.888014    0.200532
    105          6           0      -15.226418   -3.508279    0.547794
    106          6           0      -16.225960   -2.327836    0.268986
    107          6           0      -15.250028   -1.158584    0.119521
    108          6           0      -15.652226   -4.809786   -0.179156
    109          6           0      -17.333204   -2.094741    1.346364
    110          6           0      -18.812961   -2.530406    0.933039
    111          7           0      -13.432970    1.265002   -0.099318
    112          6           0      -14.800982    1.394699    0.091184
    113          6           0      -15.125940    2.792707    0.233112
    114          6           0      -13.861554    3.390690    0.322060
    115          6           0      -12.876868    2.399731    0.086111
    116          6           0      -16.557358    3.321291    0.429739
    117          6           0      -13.161051    4.630322    0.462836
    118          8           0      -13.698691    5.749274    0.586531
    119          6           0      -11.596973    4.488004    0.197202
    120          6           0      -10.967185    5.137249    1.364240
    121          8           0      -11.240110    4.943938    2.553630
    122          8           0       -9.947701    5.889609    0.882489
    123          6           0       -9.273374    6.798123    1.862066
    124          1           0       -8.034399   -1.094125   -1.747116
    125          1           0      -12.855991   -4.767521    0.287542
    126          1           0      -16.686808    0.444643    0.201313
    127          1           0       -9.276892    3.594617   -1.222013
    128          1           0       -7.412744    1.269121   -0.986361
    129          1           0       -7.172001    2.036108   -3.128924
    130          1           0       -8.793846    2.893044   -3.172554
    131          1           0       -8.653660    1.102140   -3.475260
    132          1           0       -8.071046    4.402543    0.397311
    133          1           0       -7.180512    2.892969    0.342325
    134          1           0       -8.683927    1.892639    2.016883
    135          1           0       -9.577768    3.403942    2.208478
    136          1           0       -7.379180   -4.212241   -0.928701
    137          1           0       -7.500099   -2.918943   -2.189799
    138          1           0       -7.996039   -4.544387   -2.618013
    139          1           0      -11.594566   -6.397632    1.210665
    140          1           0      -11.093849   -7.665968    0.263323
    141          1           0      -12.150652   -6.474524   -0.553461
    142          1           0      -15.021677   -3.689329    1.603609
    143          1           0      -16.641261   -2.550974   -0.714034
    144          1           0      -15.497812   -5.710807    0.415359
    145          1           0      -15.034139   -4.950257   -1.065284
    146          1           0      -16.688057   -4.682007   -0.495416
    147          1           0      -17.398787   -1.067718    1.706645
    148          1           0      -16.978013   -2.656753    2.210215
    149          1           0      -19.156665   -3.035749    1.835241
    150          1           0      -18.873612   -3.195841    0.071735
    151          1           0      -19.333180   -1.622136    0.630964
    152          1           0      -16.737700    4.328662    0.053880
    153          1           0      -16.618944    3.335511    1.517365
    154          1           0      -17.260463    2.730954   -0.157428
    155          1           0      -11.348771    4.969081   -0.750018
    156          1           0       -8.472506    7.339354    1.357111
    157          1           0       -8.824334    6.233483    2.679382
    158          1           0      -10.095143    7.441540    2.173248
 ---------------------------------------------------------------------

 SCF Done:  E(RCAM-B3LYP) =  -4069.76863651     A.U. after   19 cycles

 Excitation energies and oscillator strengths:

 Excited State   1:      Singlet-A      1.6566 eV  748.42 nm  f=0.3673  <S**2>=0.000
     309 -> 316        0.15654
     311 -> 313        0.69056
     309 <- 316        0.10153
 This state for optimization and/or second-order correction.
 Total Energy, E(TD-HF/TD-DFT) =  -4069.70775707
 Copying the excited state density for this state as the 1-particle RhoCI density.

 Excited State   2:      Singlet-A      1.7683 eV  701.14 nm  f=0.3731  <S**2>=0.000
     310 -> 315        0.19167
     312 -> 314        0.68167
     310 <- 315        0.10600

 Excited State   3:      Singlet-A      2.2756 eV  544.85 nm  f=0.0881  <S**2>=0.000
     309 -> 313       -0.28239
     310 -> 314        0.54830
     311 -> 316        0.14791
     312 -> 315       -0.30061

 Excited State   4:      Singlet-A      2.2764 eV  544.66 nm  f=0.0470  <S**2>=0.000
     309 -> 313        0.55099
     310 -> 314        0.28041
     311 -> 316       -0.28972
     312 -> 315       -0.15450

 Excited State   5:      Singlet-A      2.9068 eV  426.53 nm  f=0.0000  <S**2>=0.000
     312 -> 313        0.70706

 The electronic state is 1-A.
 Alpha  occ. eigenvalues --  -46.89248 -46.87974 -19.25315 -19.23942 -19.19951
 Alpha  occ. eigenvalues --  -19.19373 -19.19005 -19.18364 -19.17668 -19.17023
 Alpha  occ. eigenvalues --  -14.42411 -14.41729 -14.41490 -14.41076 -14.40019
 Alpha  occ. eigenvalues --  -14.39668 -14.38767 -14.38686 -10.39086 -10.38280
 Alpha  occ. eigenvalues --  -10.35981 -10.35431 -10.33564 -10.33483 -10.32085
 Alpha  occ. eigenvalues --  -10.31880 -10.31600 -10.30947 -10.30845 -10.30819
 Alpha  occ. eigenvalues --  -10.30756 -10.30692 -10.30604 -10.30472 -10.30443
 Alpha  occ. eigenvalues --  -10.30259 -10.30153 -10.29077 -10.28981 -10.28949
 Alpha  occ. eigenvalues --  -10.28944 -10.28775 -10.28734 -10.28660 -10.28464
 Alpha  occ. eigenvalues --  -10.28420 -10.28339 -10.28082 -10.27869 -10.27855
 Alpha  occ. eigenvalues --  -10.27827 -10.27826 -10.27804 -10.27798 -10.27765
 Alpha  occ. eigenvalues --  -10.27611 -10.27605 -10.27579 -10.27571 -10.27553
 Alpha  occ. eigenvalues --  -10.27516 -10.27488 -10.27350 -10.27260 -10.27240
 Alpha  occ. eigenvalues --  -10.27179 -10.27117 -10.27064 -10.26870 -10.26844
 Alpha  occ. eigenvalues --  -10.26716 -10.26538 -10.26513 -10.26347 -10.26273
 Alpha  occ. eigenvalues --  -10.26184 -10.26065 -10.26051 -10.25986 -10.25908
 Alpha  occ. eigenvalues --  -10.25880 -10.25581 -10.25226 -10.25070 -10.24077
 Alpha  occ. eigenvalues --  -10.23921  -3.17736  -3.16830  -1.92609  -1.92213
 Alpha  occ. eigenvalues --   -1.92018  -1.91695  -1.91299  -1.91163  -1.16034
 Alpha  occ. eigenvalues --   -1.14871  -1.11544  -1.10613  -1.09020  -1.07431
 Alpha  occ. eigenvalues --   -1.06628  -1.05947  -1.05607  -1.04782  -1.04717
 Alpha  occ. eigenvalues --   -1.04129  -1.03965  -1.03012  -1.02764  -1.00295
 Alpha  occ. eigenvalues --   -0.92360  -0.91882  -0.89646  -0.89292  -0.88917
 Alpha  occ. eigenvalues --   -0.88549  -0.88435  -0.88052  -0.87974  -0.87485
 Alpha  occ. eigenvalues --   -0.86763  -0.86589  -0.86572  -0.86028  -0.84397
 Alpha  occ. eigenvalues --   -0.84318  -0.83647  -0.83600  -0.82726  -0.82664
 Alpha  occ. eigenvalues --   -0.82627  -0.82298  -0.81084  -0.80913  -0.80548
 Alpha  occ. eigenvalues --   -0.80110  -0.79042  -0.77959  -0.77704  -0.77479
 Alpha  occ. eigenvalues --   -0.77005  -0.76435  -0.75945  -0.75727  -0.75226
 Alpha  occ. eigenvalues --   -0.75192  -0.72975  -0.72657  -0.71705  -0.71626
 Alpha  occ. eigenvalues --   -0.69657  -0.69586  -0.69048  -0.68953  -0.68174
 Alpha  occ. eigenvalues --   -0.67550  -0.67340  -0.66851  -0.66129  -0.65442
 Alpha  occ. eigenvalues --   -0.65308  -0.64988  -0.64765  -0.64609  -0.63781
 Alpha  occ. eigenvalues --   -0.63484  -0.62068  -0.61737  -0.61134  -0.59564
 Alpha  occ. eigenvalues --   -0.59340  -0.59302  -0.59059  -0.58990  -0.57973
 Alpha  occ. eigenvalues --   -0.57952  -0.57820  -0.57566  -0.57436  -0.57141
 Alpha  occ. eigenvalues --   -0.56714  -0.56321  -0.56229  -0.55338  -0.55137
 Alpha  occ. eigenvalues --   -0.55123  -0.54684  -0.54512  -0.54436  -0.54186
 Alpha  occ. eigenvalues --   -0.53660  -0.53612  -0.53388  -0.53227  -0.52806
 Alpha  occ. eigenvalues --   -0.52646  -0.52644  -0.52492  -0.52467  -0.52309
 Alpha  occ. eigenvalues --   -0.52235  -0.51780  -0.51650  -0.51315  -0.51279
 Alpha  occ. eigenvalues --   -0.51149  -0.50981  -0.50630  -0.50598  -0.50483
 Alpha  occ. eigenvalues --   -0.50250  -0.49919  -0.49612  -0.49517  -0.49462
 Alpha  occ. eigenvalues --   -0.49355  -0.49113  -0.48891  -0.48795  -0.48723
 Alpha  occ. eigenvalues --   -0.48588  -0.48294  -0.48083  -0.48056  -0.48028
 Alpha  occ. eigenvalues --   -0.47807  -0.47700  -0.47545  -0.47189  -0.47094
 Alpha  occ. eigenvalues --   -0.46850  -0.46814  -0.46727  -0.46683  -0.46528
 Alpha  occ. eigenvalues --   -0.46490  -0.46182  -0.45723  -0.45655  -0.45496
 Alpha  occ. eigenvalues --   -0.45400  -0.45265  -0.45127  -0.44893  -0.44849
 Alpha  occ. eigenvalues --   -0.44531  -0.44391  -0.44138  -0.43933  -0.43930
 Alpha  occ. eigenvalues --   -0.43889  -0.43849  -0.43480  -0.43423  -0.43360
 Alpha  occ. eigenvalues --   -0.43187  -0.42929  -0.42870  -0.42757  -0.42675
 Alpha  occ. eigenvalues --   -0.42497  -0.42455  -0.42216  -0.42158  -0.42069
 Alpha  occ. eigenvalues --   -0.41869  -0.41867  -0.41694  -0.41597  -0.41274
 Alpha  occ. eigenvalues --   -0.41077  -0.41018  -0.40772  -0.40710  -0.40547
 Alpha  occ. eigenvalues --   -0.39864  -0.39612  -0.39293  -0.39223  -0.39029
 Alpha  occ. eigenvalues --   -0.38481  -0.38446  -0.38211  -0.37347  -0.37039
 Alpha  occ. eigenvalues --   -0.37038  -0.36518  -0.36469  -0.36293  -0.36287
 Alpha  occ. eigenvalues --   -0.35781  -0.35181  -0.34375  -0.34327  -0.33767
 Alpha  occ. eigenvalues --   -0.33300  -0.32961  -0.32634  -0.32511  -0.31465
 Alpha  occ. eigenvalues --   -0.31379  -0.31100  -0.30734  -0.30109  -0.30042
 Alpha  occ. eigenvalues --   -0.29727  -0.29377  -0.29181  -0.24396  -0.23830
 Alpha  occ. eigenvalues --   -0.20697  -0.20624
 Alpha virt. eigenvalues --   -0.08525  -0.07845  -0.01770  -0.01734   0.00205
 Alpha virt. eigenvalues --    0.00982   0.01527   0.02260   0.02556   0.03007
 Alpha virt. eigenvalues --    0.04937   0.04984   0.05466   0.06087   0.06178

 Mulliken charges:
               1
     1  Mg   0.850592
     2  C    0.012172
     3  C   -0.109497
     4  C   -0.070299
     5  C   -0.108722
     6  N   -0.257943
     7  C   -0.051853
     8  C   -0.000870
     9  C   -0.101391
    10  C    0.045290
    11  C    0.094752
    12  C    0.048926
    13  C   -0.072432
    14  H    0.012824
    15  N   -0.419480
    16  C    0.163754
    17  C   -0.108919
    18  C   -0.091213
    19  C    0.161829
    20  C    0.094047
    21  C    0.026222
    22  O   -0.168417
    23  C    0.036205
    24  N   -0.251370
    25  C    0.003022
    26  C   -0.036976
    27  C    0.001966
    28  C   -0.034589
    29  C    0.070299
    30  C    0.035357
    31  C    0.008532
    32  N   -0.312638
    33  C    0.155309
    34  C   -0.183051
    35  C    0.078835
    36  C    0.062725
    37  C    0.144286
    38  C   -0.022434
    39  O   -0.177473
    40  C    0.001622
    41  C    0.195349
    42  O   -0.239375
    43  O   -0.323773
    44  C    0.190561
    45  H   -0.033121
    46  H   -0.010519
    47  H   -0.034943
    48  H    0.022002
    49  H    0.005821
    50  H    0.023495
    51  H    0.016502
    52  H    0.024892
    53  H    0.008949
    54  H    0.018185
    55  H    0.025775
    56  H    0.039969
    57  H    0.037353
    58  H    0.007431
    59  H    0.045189
    60  H    0.040679
    61  H    0.049180
    62  H    0.021298
    63  H    0.008530
    64  H    0.002591
    65  H    0.016661
    66  H    0.005104
    67  H    0.028239
    68  H    0.006618
    69  H    0.007700
    70  H    0.009812
    71  H    0.017943
    72  H    0.021355
    73  H    0.036410
    74  H    0.041652
    75  H   -0.001515
    76  H    0.043960
    77  H    0.042734
    78  H    0.040482
    79  H    0.011829
    80  Mg   0.820257
    81  C   -0.030276
    82  C   -0.063639
    83  C   -0.071130
    84  C   -0.075730
    85  N   -0.309231
    86  C   -0.098365
    87  C    0.032409
    88  C   -0.089019
    89  C    0.018103
    90  C    0.083105
    91  C    0.077556
    92  C   -0.047073
    93  H    0.020032
    94  N   -0.391714
    95  C    0.125547
    96  C   -0.145269
    97  C   -0.034467
    98  C    0.143059
    99  C    0.154428
   100  C   -0.013448
   101  O   -0.197831
   102  C    0.066651
   103  N   -0.314474
   104  C    0.069897
   105  C   -0.079011
   106  C    0.038578
   107  C   -0.001244
   108  C    0.080945
   109  C    0.022939
   110  C   -0.006885
   111  N   -0.284764
   112  C    0.084241
   113  C   -0.172697
   114  C    0.043259
   115  C    0.082233
   116  C    0.114731
   117  C    0.003039
   118  O   -0.216636
   119  C    0.045220
   120  C    0.197744
   121  O   -0.231826
   122  O   -0.339287
   123  C    0.180707
   124  H   -0.019184
   125  H   -0.063736
   126  H   -0.033618
   127  H    0.001326
   128  H    0.015046
   129  H    0.026207
   130  H    0.028842
   131  H    0.019903
   132  H    0.006523
   133  H   -0.007820
   134  H    0.024452
   135  H    0.048583
   136  H    0.050041
   137  H   -0.000696
   138  H    0.036236
   139  H    0.054969
   140  H    0.021235
   141  H    0.037746
   142  H    0.025912
   143  H    0.005469
   144  H    0.019004
   145  H    0.015428
   146  H    0.020733
   147  H    0.021126
   148  H   -0.000032
   149  H    0.029330
   150  H    0.015042
   151  H    0.025870
   152  H    0.027569
   153  H    0.049064
   154  H    0.018843
   155  H    0.043620
   156  H    0.041155
   157  H    0.050663
   158  H    0.054485
 Sum of Mulliken charges =  -0.00000

 Dipole moment (field-independent basis, Debye):
    X=              2.0894    Y=              0.5914    Z=             -5.6344  Tot=              6.0384
 Quadrupole moment (field-independent basis, Debye-Ang):
   XX=           -423.1526   YY=           -534.0727   ZZ=           -485.1013
   XY=            112.2028   XZ=              6.3775   YZ=            -22.6362

 Normal termination of Gaussian 16 at Tue Aug 31 14:08:44 2021.
