 Gaussian 16, Revision A.03,
 Gaussian 16:  ES64L-G16RevA.03 25-Dec-2016

 -----------------------------------
 #p cam-b3lyp/Def2SVP td=(nstates=5)
 -----------------------------------

 --------------------------------
 TDDFT excited states in gaussian
 --------------------------------
 Symbolic Z-matrix:
 Charge =  0 Multiplicity = 1

                         Standard orientation:
 ---------------------------------------------------------------------
 Center     Atomic      Atomic             Coordinates (Angstroms)
 Number     Number       Type             X           Y           Z
 ---------------------------------------------------------------------
      1         12           0       18.153106   -0.665789    0.260743
      2          6           0       15.503629    1.529622    0.069754
      3          6           0       19.973755    1.866056    1.668593
      4          6           0       20.836426   -2.714860    0.186516
      5          6           0       16.404250   -2.951172   -1.690578
      6          7           0       17.731311    1.530349    0.660728
      7          6           0       16.595132    2.112903    0.695794
      8          6           0       16.569164    3.609191    1.303107
      9          6           0       18.123166    3.779298    1.530597
     10          6           0       18.707814    2.325415    1.197908
     11          6           0       18.848316    4.839937    0.547597
     12          6           0       15.700240    3.796711    2.621483
     13          6           0       15.014835    5.189983    2.853057
     14          1           0       15.441392    6.307044    1.949260
     15          7           0       20.058689   -0.499022    0.894490
     16          6           0       20.656817    0.640928    1.562272
     17          6           0       22.022321    0.270404    1.919197
     18          6           0       22.324182   -1.012115    1.397205
     19          6           0       21.041143   -1.486065    0.830810
     20          6           0       22.793802    1.243131    2.736427
     21          6           0       23.612297   -1.864979    1.472364
     22          8           0       23.796325   -2.902354    0.908268
     23          6           0       24.791201   -1.196729    2.208365
     24          7           0       18.663048   -2.539716   -0.703489
     25          6           0       19.785174   -3.179372   -0.603753
     26          6           0       19.846479   -4.390264   -1.577517
     27          6           0       18.392242   -4.527959   -2.088460
     28          6           0       17.739152   -3.277098   -1.454758
     29          6           0       20.884400   -4.151725   -2.694796
     30          6           0       17.745925   -5.890876   -1.692350
     31          6           0       18.294070   -7.113013   -2.446734
     32          7           0       16.306534   -0.744019   -0.656173
     33          6           0       15.706270   -1.792733   -1.330062
     34          6           0       14.363266   -1.371429   -1.630506
     35          6           0       14.191224   -0.038800   -1.149866
     36          6           0       15.442570    0.235583   -0.533717
     37          6           0       13.411670   -2.138793   -2.346793
     38          6           0       13.310918    1.067252   -0.946063
     39          8           0       12.131328    1.225586   -1.380893
     40          6           0       14.192988    2.170532   -0.242814
     41          6           0       14.211923    3.326899   -1.113011
     42          8           0       14.954438    3.452800   -2.086443
     43          8           0       13.169231    4.133898   -0.734764
     44          6           0       12.902955    5.225391   -1.695420
     45          1           0       20.586982    2.661602    2.095906
     46          1           0       21.737571   -3.331689    0.222197
     47          1           0       15.873865   -3.731824   -2.240718
     48          1           0       16.245740    4.218226    0.458581
     49          1           0       18.317698    4.115245    2.548931
     50          1           0       18.203740    4.988906   -0.319142
     51          1           0       19.812174    4.444086    0.228001
     52          1           0       19.066900    5.820832    0.970957
     53          1           0       16.421622    3.645343    3.424035
     54          1           0       15.033620    2.974209    2.883007
     55          1           0       15.122982    5.569531    3.869030
     56          1           0       13.950013    5.100087    2.637979
     57          1           0       23.265255    1.991839    2.099177
     58          1           0       23.450110    0.763717    3.462872
     59          1           0       22.074262    1.756956    3.373439
     60          1           0       24.692246   -1.168328    3.293941
     61          1           0       24.786725   -0.204214    1.758951
     62          1           0       25.778692   -1.602409    1.990421
     63          1           0       20.107313   -5.211782   -0.910729
     64          1           0       18.370268   -4.384599   -3.168743
     65          1           0       21.110754   -3.108451   -2.915981
     66          1           0       20.641074   -4.492693   -3.701642
     67          1           0       21.790047   -4.654511   -2.355641
     68          1           0       16.682693   -5.854269   -1.925551
     69          1           0       17.849853   -6.049313   -0.618412
     70          1           0       19.125828   -6.772356   -3.063380
     71          1           0       17.578264   -7.399165   -3.217490
     72          1           0       18.525074   -8.019240   -1.887349
     73          1           0       13.495801   -3.139601   -1.923054
     74          1           0       13.580850   -2.240957   -3.418602
     75          1           0       12.441551   -1.647068   -2.267803
     76          1           0       13.615444    2.407746    0.651033
     77          1           0       12.551043    4.743647   -2.608094
     78          1           0       13.756699    5.894261   -1.799033
     79          1           0       12.083610    5.818803   -1.289366
     80         12           0      -18.454547   -0.144524    0.269298
     81          6           0      -15.559354    1.681406   -0.571494
     82          6           0      -19.292775   -0.021257   -2.975208
     83          6           0      -20.815808   -2.253877    1.079045
     84          6           0      -16.918546   -0.683378    3.450620
     85          7           0      -17.485667    0.702472   -1.559123
     86          6           0      -16.374547    1.464914   -1.692671
     87          6           0      -16.138110    1.953417   -3.107400
     88          6           0      -17.532796    1.592414   -3.759670
     89          6           0      -18.181878    0.683007   -2.736978
     90          6           0      -18.449044    2.837252   -4.107821
     91          6           0      -14.920330    1.425863   -3.984662
     92          6           0      -14.127237    0.151956   -3.589343
     93          1           0      -13.552334   -0.747714   -4.746430
     94          7           0      -19.955093   -0.904677   -0.842440
     95          6           0      -20.086188   -0.842401   -2.160754
     96          6           0      -21.228170   -1.703308   -2.572922
     97          6           0      -21.788662   -2.243251   -1.301913
     98          6           0      -20.825937   -1.809649   -0.288957
     99          6           0      -21.768228   -1.772527   -3.975933
    100          6           0      -22.990274   -3.143673   -1.181878
    101          8           0      -23.628801   -3.412570   -2.196417
    102          6           0      -23.480844   -3.839554    0.141082
    103          7           0      -18.783581   -1.443427    2.044038
    104          6           0      -19.927253   -2.034696    2.083239
    105          6           0      -20.091221   -2.658816    3.540196
    106          6           0      -18.724304   -2.332672    4.145459
    107          6           0      -18.057004   -1.420854    3.133914
    108          6           0      -21.275772   -2.216879    4.415581
    109          6           0      -17.747871   -3.614049    4.269396
    110          6           0      -17.399827   -4.076080    5.696297
    111          7           0      -16.629918    0.295408    1.265029
    112          6           0      -16.202256    0.130756    2.555967
    113          6           0      -15.001644    0.965387    2.820494
    114          6           0      -14.617020    1.515097    1.564873
    115          6           0      -15.734852    1.141447    0.700139
    116          6           0      -14.185537    1.037787    4.130396
    117          6           0      -13.671501    2.286295    0.829025
    118          8           0      -12.541364    2.740569    1.076702
    119          6           0      -14.276844    2.498299   -0.581946
    120          6           0      -14.410613    4.010507   -0.783558
    121          8           0      -13.795679    4.802705   -1.446814
    122          8           0      -15.604621    4.414947   -0.176690
    123          6           0      -16.016620    5.843718   -0.340159
    124          1           0      -19.536504    0.027916   -4.038699
    125          1           0      -21.646779   -2.924708    1.310296
    126          1           0      -16.606414   -0.647245    4.496087
    127          1           0      -16.089917    3.038435   -3.016922
    128          1           0      -17.363742    1.076602   -4.705012
    129          1           0      -17.982603    3.766856   -3.783404
    130          1           0      -19.282021    2.689052   -3.421462
    131          1           0      -18.706468    2.818516   -5.166980
    132          1           0      -14.216731    2.253951   -4.071185
    133          1           0      -15.265800    1.272240   -5.007551
    134          1           0      -14.818083   -0.450522   -2.999508
    135          1           0      -13.182004    0.359473   -3.088716
    136          1           0      -22.753657   -2.234084   -4.035569
    137          1           0      -20.985460   -2.230315   -4.581912
    138          1           0      -21.764225   -0.732174   -4.302793
    139          1           0      -23.656327   -3.262479    1.049770
    140          1           0      -22.708160   -4.540193    0.457589
    141          1           0      -24.420391   -4.372786   -0.001000
    142          1           0      -20.261096   -3.734036    3.495404
    143          1           0      -18.681062   -1.892327    5.142224
    144          1           0      -21.918249   -1.503536    3.899133
    145          1           0      -20.942423   -1.823745    5.376596
    146          1           0      -21.958796   -3.029169    4.664120
    147          1           0      -16.782236   -3.432065    3.799651
    148          1           0      -18.250326   -4.414274    3.725568
    149          1           0      -16.404830   -4.503681    5.822207
    150          1           0      -18.102546   -4.880577    5.913081
    151          1           0      -17.510412   -3.166084    6.286152
    152          1           0      -14.409757    0.258278    4.857804
    153          1           0      -14.457551    2.003688    4.555299
    154          1           0      -13.129388    1.096974    3.868599
    155          1           0      -13.598778    2.089192   -1.330188
    156          1           0      -15.240403    6.601336   -0.445617
    157          1           0      -16.507764    6.067894    0.606556
    158          1           0      -16.766427    6.086109   -1.093519
 ---------------------------------------------------------------------

 SCF Done:  E(RCAM-B3LYP) =  -4069.80835801     A.U. after   18 cycles

 Excitation energies and oscillator strengths:

 Excited State   1:      Singlet-A      1.7688 eV  700.94 nm  f=0.6082  <S**2>=0.000
     309 -> 315       -0.17782
     311 -> 313        0.65730
     312 -> 314       -0.18744
     309 <- 315       -0.10217
 This state for optimization and/or second-order correction.
 Total Energy, E(TD-HF/TD-DFT) =  -4069.74335446
 Copying the excited state density for this state as the 1-particle RhoCI density.

 Excited State   2:      Singlet-A      1.7726 eV  699.46 nm  f=0.1871  <S**2>=0.000
     310 -> 316        0.19140
     311 -> 313        0.18849
     312 -> 314        0.65297
     310 <- 316        0.10551

 Excited State   3:      Singlet-A      2.2144 eV  559.90 nm  f=0.1112  <S**2>=0.000
     310 -> 314        0.64301
     312 -> 316       -0.28133

 Excited State   4:      Singlet-A      2.2834 eV  542.99 nm  f=0.0988  <S**2>=0.000
     309 -> 313        0.63710
     311 -> 315        0.29627

 Excited State   5:      Singlet-A      3.0808 eV  402.44 nm  f=0.0000  <S**2>=0.000
     312 -> 313        0.70709

 The electronic state is 1-A.
 Alpha  occ. eigenvalues --  -46.90047 -46.88343 -19.24731 -19.24573 -19.20388
 Alpha  occ. eigenvalues --  -19.20115 -19.19440 -19.19244 -19.18582 -19.18179
 Alpha  occ. eigenvalues --  -14.42293 -14.42164 -14.41820 -14.41485 -14.40414
 Alpha  occ. eigenvalues --  -14.40143 -14.39624 -14.38888 -10.39853 -10.38491
 Alpha  occ. eigenvalues --  -10.36225 -10.35664 -10.35588 -10.34700 -10.31844
 Alpha  occ. eigenvalues --  -10.31783 -10.31500 -10.31202 -10.31103 -10.31006
 Alpha  occ. eigenvalues --  -10.30749 -10.30709 -10.30627 -10.30615 -10.30422
 Alpha  occ. eigenvalues --  -10.30370 -10.30282 -10.30153 -10.30085 -10.30078
 Alpha  occ. eigenvalues --  -10.29844 -10.29381 -10.29372 -10.29154 -10.28943
 Alpha  occ. eigenvalues --  -10.28932 -10.28872 -10.28869 -10.28772 -10.28733
 Alpha  occ. eigenvalues --  -10.28132 -10.28040 -10.27995 -10.27892 -10.27798
 Alpha  occ. eigenvalues --  -10.27729 -10.27714 -10.27605 -10.27565 -10.27534
 Alpha  occ. eigenvalues --  -10.27507 -10.27352 -10.27225 -10.27160 -10.27127
 Alpha  occ. eigenvalues --  -10.27077 -10.27069 -10.27048 -10.26864 -10.26812
 Alpha  occ. eigenvalues --  -10.26627 -10.26562 -10.26552 -10.26512 -10.26360
 Alpha  occ. eigenvalues --  -10.26322 -10.26230 -10.26162 -10.26103 -10.25772
 Alpha  occ. eigenvalues --  -10.25618 -10.25359 -10.25347 -10.25275 -10.24593
 Alpha  occ. eigenvalues --  -10.24396  -3.18525  -3.16956  -1.93413  -1.92979
 Alpha  occ. eigenvalues --   -1.92828  -1.91849  -1.91417  -1.91259  -1.16032
 Alpha  occ. eigenvalues --   -1.15458  -1.12468  -1.09552  -1.09303  -1.07253
 Alpha  occ. eigenvalues --   -1.07162  -1.06725  -1.06687  -1.05329  -1.04803
 Alpha  occ. eigenvalues --   -1.04263  -1.03990  -1.03403  -1.03282  -1.00819
 Alpha  occ. eigenvalues --   -0.93561  -0.92466  -0.89787  -0.89269  -0.88804
 Alpha  occ. eigenvalues --   -0.88590  -0.88307  -0.88282  -0.87788  -0.87428
 Alpha  occ. eigenvalues --   -0.86908  -0.86882  -0.86801  -0.85391  -0.84870
 Alpha  occ. eigenvalues --   -0.83940  -0.83857  -0.83430  -0.82880  -0.82271
 Alpha  occ. eigenvalues --   -0.81773  -0.81688  -0.80995  -0.80788  -0.80526
 Alpha  occ. eigenvalues --   -0.80224  -0.78499  -0.78496  -0.77691  -0.77337
 Alpha  occ. eigenvalues --   -0.77007  -0.76671  -0.76327  -0.75694  -0.75351
 Alpha  occ. eigenvalues --   -0.74788  -0.73299  -0.72378  -0.72152  -0.71410
 Alpha  occ. eigenvalues --   -0.69546  -0.69364  -0.69243  -0.68735  -0.68675
 Alpha  occ. eigenvalues --   -0.68127  -0.67508  -0.66939  -0.66839  -0.65766
 Alpha  occ. eigenvalues --   -0.65675  -0.65493  -0.65357  -0.64854  -0.64700
 Alpha  occ. eigenvalues --   -0.64026  -0.63141  -0.61492  -0.60584  -0.60181
 Alpha  occ. eigenvalues --   -0.59971  -0.59446  -0.59314  -0.59077  -0.58532
 Alpha  occ. eigenvalues --   -0.58225  -0.58069  -0.57823  -0.57609  -0.57290
 Alpha  occ. eigenvalues --   -0.56353  -0.55938  -0.55855  -0.55674  -0.55659
 Alpha  occ. eigenvalues --   -0.55105  -0.55052  -0.54509  -0.54494  -0.53929
 Alpha  occ. eigenvalues --   -0.53923  -0.53592  -0.53300  -0.53105  -0.52991
 Alpha  occ. eigenvalues --   -0.52891  -0.52805  -0.52673  -0.52014  -0.51999
 Alpha  occ. eigenvalues --   -0.51855  -0.51745  -0.51515  -0.51316  -0.51227
 Alpha  occ. eigenvalues --   -0.51094  -0.51063  -0.50888  -0.50661  -0.50600
 Alpha  occ. eigenvalues --   -0.50335  -0.49995  -0.49781  -0.49468  -0.49378
 Alpha  occ. eigenvalues --   -0.49087  -0.49008  -0.48902  -0.48855  -0.48537
 Alpha  occ. eigenvalues --   -0.48497  -0.48477  -0.48411  -0.48272  -0.48136
 Alpha  occ. eigenvalues --   -0.47881  -0.47778  -0.47730  -0.47615  -0.47418
 Alpha  occ. eigenvalues --   -0.47217  -0.46981  -0.46914  -0.46627  -0.46576
 Alpha  occ. eigenvalues --   -0.46400  -0.46260  -0.46179  -0.46066  -0.45980
 Alpha  occ. eigenvalues --   -0.45877  -0.45549  -0.45507  -0.45340  -0.45065
 Alpha  occ. eigenvalues --   -0.44850  -0.44801  -0.44356  -0.44227  -0.44190
 Alpha  occ. eigenvalues --   -0.44107  -0.43897  -0.43689  -0.43560  -0.43472
 Alpha  occ. eigenvalues --   -0.43275  -0.43154  -0.43104  -0.42867  -0.42724
 Alpha  occ. eigenvalues --   -0.42660  -0.42612  -0.42231  -0.42208  -0.42056
 Alpha  occ. eigenvalues --   -0.41990  -0.41651  -0.41609  -0.41445  -0.41408
 Alpha  occ. eigenvalues --   -0.41232  -0.41135  -0.40901  -0.40665  -0.40601
 Alpha  occ. eigenvalues --   -0.40149  -0.39952  -0.39754  -0.39341  -0.39217
 Alpha  occ. eigenvalues --   -0.38831  -0.38188  -0.38165  -0.37926  -0.37637
 Alpha  occ. eigenvalues --   -0.37564  -0.36872  -0.36828  -0.36640  -0.36494
 Alpha  occ. eigenvalues --   -0.36293  -0.36267  -0.34990  -0.34255  -0.34244
 Alpha  occ. eigenvalues --   -0.33833  -0.33625  -0.33384  -0.31888  -0.31705
 Alpha  occ. eigenvalues --   -0.31390  -0.31146  -0.31026  -0.30947  -0.30325
 Alpha  occ. eigenvalues --   -0.30091  -0.29250  -0.29112  -0.24472  -0.23615
 Alpha  occ. eigenvalues --   -0.21512  -0.21186
 Alpha virt. eigenvalues --   -0.08892  -0.08367  -0.02011  -0.01640  -0.00596
 Alpha virt. eigenvalues --    0.00021   0.01206   0.01888   0.02145   0.02655
 Alpha virt. eigenvalues --    0.04335   0.04995   0.05462   0.05525   0.05995

 Mulliken charges:
               1
     1  Mg   0.834067
     2  C    0.046705
     3  C   -0.061052
     4  C   -0.071313
     5  C   -0.093671
     6  N   -0.207343
     7  C   -0.140046
     8  C    0.027023
     9  C   -0.087859
    10  C    0.045265
    11  C    0.043961
    12  C    0.065421
    13  C   -0.077265
    14  H    0.020432
    15  N   -0.449211
    16  C    0.144306
    17  C   -0.127443
    18  C   -0.063103
    19  C    0.122845
    20  C    0.101068
    21  C    0.037178
    22  O   -0.159121
    23  C    0.015523
    24  N   -0.261505
    25  C    0.011038
    26  C    0.001218
    27  C   -0.019821
    28  C    0.031462
    29  C    0.063951
    30  C    0.026413
    31  C    0.015656
    32  N   -0.333837
    33  C    0.151043
    34  C   -0.160956
    35  C    0.054084
    36  C    0.083192
    37  C    0.103564
    38  C    0.016044
    39  O   -0.219886
    40  C   -0.011487
    41  C    0.205077
    42  O   -0.233945
    43  O   -0.336031
    44  C    0.186316
    45  H   -0.027725
    46  H   -0.015419
    47  H   -0.031250
    48  H    0.025865
    49  H    0.014629
    50  H    0.026813
    51  H    0.017596
    52  H    0.017589
    53  H   -0.007452
    54  H    0.015290
    55  H    0.035024
    56  H    0.042504
    57  H    0.043180
    58  H    0.020411
    59  H    0.020674
    60  H    0.049339
    61  H    0.033200
    62  H    0.022769
    63  H    0.011337
    64  H    0.008396
    65  H    0.021639
    66  H    0.013224
    67  H    0.028397
    68  H    0.004173
    69  H    0.007194
    70  H    0.004328
    71  H    0.003670
    72  H    0.027862
    73  H    0.017352
    74  H    0.026305
    75  H    0.033313
    76  H    0.032907
    77  H    0.049866
    78  H    0.038606
    79  H    0.030439
    80  Mg   0.823394
    81  C   -0.024885
    82  C   -0.082112
    83  C   -0.031354
    84  C   -0.095655
    85  N   -0.272497
    86  C   -0.080739
    87  C    0.045059
    88  C   -0.108052
    89  C    0.036590
    90  C    0.079832
    91  C    0.047751
    92  C   -0.094808
    93  H    0.010230
    94  N   -0.388574
    95  C    0.149207
    96  C   -0.157986
    97  C   -0.043842
    98  C    0.147771
    99  C    0.134736
   100  C    0.013412
   101  O   -0.209489
   102  C    0.034128
   103  N   -0.199548
   104  C    0.025759
   105  C   -0.006799
   106  C   -0.076373
   107  C    0.051558
   108  C    0.059943
   109  C   -0.001651
   110  C    0.015458
   111  N   -0.315914
   112  C    0.114123
   113  C   -0.179618
   114  C    0.031555
   115  C    0.134916
   116  C    0.119660
   117  C    0.021437
   118  O   -0.182499
   119  C   -0.017389
   120  C    0.214350
   121  O   -0.175819
   122  O   -0.370385
   123  C    0.173509
   124  H   -0.036647
   125  H   -0.077784
   126  H   -0.024258
   127  H    0.012997
   128  H    0.011056
   129  H    0.013904
   130  H    0.016896
   131  H    0.032858
   132  H    0.019995
   133  H    0.021121
   134  H    0.051418
   135  H    0.052635
   136  H    0.053371
   137  H    0.017462
   138  H    0.015880
   139  H    0.036725
   140  H    0.036769
   141  H    0.025180
   142  H    0.009770
   143  H    0.001019
   144  H    0.011980
   145  H    0.014729
   146  H    0.005245
   147  H    0.019590
   148  H    0.001087
   149  H    0.021001
   150  H    0.015839
   151  H    0.009282
   152  H    0.021156
   153  H    0.031304
   154  H    0.046406
   155  H    0.038585
   156  H    0.048733
   157  H    0.026379
   158  H    0.029924
 Sum of Mulliken charges =  -0.00000

 Dipole moment (field-independent basis, Debye):
    X=              0.2642    Y=              0.7431    Z=              6.6027  Tot=              6.6496
 Quadrupole moment (field-independent basis, Debye-Ang):
   XX=           -368.2235   YY=           -488.6281   ZZ=           -481.9639
   XY=              1.0506   XZ=             -8.9049   YZ=              0.1832

 Normal termination of Gaussian 16 at Thu Sep 16 06:59:33 2021.
