 Gaussian 16, Revision A.03,
 Gaussian 16:  ES64L-G16RevA.03 25-Dec-2016

 -----------------------------------
 #p cam-b3lyp/Def2SVP td=(nstates=5)
 -----------------------------------

 --------------------------------
 TDDFT excited states in gaussian
 --------------------------------
 Symbolic Z-matrix:
 Charge =  0 Multiplicity = 1

                         Standard orientation:
 ---------------------------------------------------------------------
 Center     Atomic      Atomic             Coordinates (Angstroms)
 Number     Number       Type             X           Y           Z
 ---------------------------------------------------------------------
      1         12           0       25.091386   -0.877277    0.331873
      2          6           0       25.336655    2.284238   -1.245679
      3          6           0       25.699077    0.834492    3.318369
      4          6           0       24.785068   -3.706808    1.968779
      5          6           0       25.320136   -2.417119   -2.777224
      6          7           0       25.433148    1.305421    0.915012
      7          6           0       25.344713    2.422838    0.141261
      8          6           0       25.567004    3.762295    0.864339
      9          6           0       25.802614    3.175111    2.347064
     10          6           0       25.646975    1.696217    2.149989
     11          6           0       27.228479    3.487190    2.951778
     12          6           0       24.332165    4.717322    0.776464
     13          6           0       24.309200    6.031639    0.005861
     14          1           0       23.528420    7.234785    0.518033
     15          7           0       25.142810   -1.391533    2.374407
     16          6           0       25.478125   -0.559367    3.452198
     17          6           0       25.548782   -1.390637    4.633114
     18          6           0       25.131791   -2.677728    4.302750
     19          6           0       24.945252   -2.623156    2.839683
     20          6           0       25.796794   -0.735531    5.948899
     21          6           0       24.996753   -3.945660    5.145244
     22          8           0       24.641897   -5.044654    4.708258
     23          6           0       25.169416   -3.802161    6.606085
     24          7           0       25.157483   -2.813968   -0.270763
     25          6           0       24.794872   -3.844823    0.551186
     26          6           0       24.415077   -5.119077   -0.276728
     27          6           0       24.693320   -4.689940   -1.711469
     28          6           0       25.162904   -3.213074   -1.596218
     29          6           0       25.142939   -6.417023    0.203630
     30          6           0       23.424405   -4.867646   -2.559065
     31          6           0       23.555395   -5.473546   -3.909010
     32          7           0       25.389704   -0.265781   -1.626839
     33          6           0       25.432687   -0.988840   -2.792018
     34          6           0       25.573652   -0.134063   -3.932708
     35          6           0       25.444226    1.249384   -3.421853
     36          6           0       25.326427    1.074994   -1.986760
     37          6           0       25.754789   -0.597344   -5.388353
     38          6           0       25.406751    2.698851   -3.741015
     39          8           0       25.344748    3.276965   -4.839334
     40          6           0       25.329037    3.405585   -2.325379
     41          6           0       26.567737    4.243535   -2.387216
     42          8           0       27.713986    3.933989   -2.085444
     43          8           0       26.278499    5.475208   -2.706883
     44          6           0       27.370820    6.439109   -2.984961
     45          1           0       25.741280    1.508843    4.175848
     46          1           0       24.711449   -4.715449    2.379905
     47          1           0       25.318621   -2.915998   -3.748225
     48          1           0       26.489454    4.196791    0.477083
     49          1           0       25.081297    3.429656    3.124219
     50          1           0       28.000549    3.819048    2.258142
     51          1           0       27.630885    2.594204    3.428768
     52          1           0       27.114369    4.254558    3.717649
     53          1           0       24.093083    5.001036    1.801506
     54          1           0       23.478343    4.190592    0.352168
     55          1           0       23.751331    5.727318   -0.879851
     56          1           0       25.373543    6.223130   -0.130916
     57          1           0       24.959752   -0.867319    6.633147
     58          1           0       25.959533    0.335955    5.829846
     59          1           0       26.666827   -1.132818    6.470807
     60          1           0       24.557948   -2.973944    6.964454
     61          1           0       26.167458   -3.456535    6.875825
     62          1           0       24.860292   -4.672652    7.183815
     63          1           0       23.352729   -5.213671   -0.052446
     64          1           0       25.429383   -5.341856   -2.181620
     65          1           0       25.687472   -6.304400    1.141013
     66          1           0       25.874022   -6.800108   -0.507350
     67          1           0       24.437261   -7.247351    0.225045
     68          1           0       23.063709   -3.844266   -2.654282
     69          1           0       22.657424   -5.494469   -2.104835
     70          1           0       23.103729   -4.743393   -4.580147
     71          1           0       23.120360   -6.472882   -3.917809
     72          1           0       24.577451   -5.552358   -4.280165
     73          1           0       26.819305   -0.690797   -5.600044
     74          1           0       25.269851    0.129579   -6.039727
     75          1           0       25.329024   -1.585847   -5.562036
     76          1           0       24.435685    4.029717   -2.337703
     77          1           0       28.040240    6.606214   -2.141839
     78          1           0       27.028338    7.410624   -3.340744
     79          1           0       28.047583    6.192390   -3.802449
     80         12           0      -25.865488   -0.459883   -0.320834
     81          6           0      -23.587903    2.212160   -0.084687
     82          6           0      -27.952129    1.306143    1.828044
     83          6           0      -27.828373   -3.138432   -0.315538
     84          6           0      -23.271797   -2.466039   -1.783225
     85          7           0      -25.770137    1.491280    0.752810
     86          6           0      -24.773411    2.461764    0.579103
     87          6           0      -25.305731    3.808163    1.033661
     88          6           0      -26.563011    3.476816    1.886987
     89          6           0      -26.783395    1.994353    1.459696
     90          6           0      -26.452268    3.747300    3.420386
     91          6           0      -25.563990    4.834375   -0.123483
     92          6           0      -25.354698    6.355882    0.295967
     93          1           0      -24.989342    6.651985    1.752966
     94          7           0      -27.642789   -0.792258    0.496805
     95          6           0      -28.380114    0.075913    1.283432
     96          6           0      -29.672078   -0.475132    1.574814
     97          6           0      -29.625097   -1.816659    1.077130
     98          6           0      -28.364074   -1.935829    0.367181
     99          6           0      -30.751167    0.256528    2.430058
    100          6           0      -30.637612   -2.905103    1.223599
    101          8           0      -30.390962   -4.082055    0.867335
    102          6           0      -32.052959   -2.850273    1.870379
    103          7           0      -25.521860   -2.585458   -0.702759
    104          6           0      -26.541458   -3.464528   -0.725977
    105          6           0      -26.121088   -4.763298   -1.458882
    106          6           0      -24.668599   -4.568840   -1.908579
    107          6           0      -24.482803   -3.050718   -1.465988
    108          6           0      -26.450684   -5.987250   -0.659965
    109          6           0      -24.352559   -4.822177   -3.398302
    110          6           0      -25.140340   -3.943488   -4.401042
    111          7           0      -23.792091   -0.259944   -0.803101
    112          6           0      -22.979781   -1.081105   -1.508529
    113          6           0      -21.797013   -0.297725   -1.862188
    114          6           0      -21.953476    1.027014   -1.366674
    115          6           0      -23.185877    0.997831   -0.669720
    116          6           0      -20.646018   -0.772408   -2.745243
    117          6           0      -21.358667    2.321727   -1.269935
    118          8           0      -20.362955    2.841776   -1.766396
    119          6           0      -22.426217    3.181559   -0.325238
    120          6           0      -21.681203    3.771990    0.857127
    121          8           0      -21.397351    3.140838    1.856268
    122          8           0      -21.471113    5.120693    0.680123
    123          6           0      -20.461393    5.790693    1.493216
    124          1           0      -28.576775    1.997133    2.397635
    125          1           0      -28.554910   -3.951863   -0.364125
    126          1           0      -22.584483   -3.098159   -2.348810
    127          1           0      -24.567860    4.288313    1.676229
    128          1           0      -27.381937    4.075168    1.488735
    129          1           0      -26.693206    2.773526    3.845458
    130          1           0      -27.240960    4.424959    3.749467
    131          1           0      -25.503479    4.075387    3.844891
    132          1           0      -26.602561    4.810773   -0.452042
    133          1           0      -24.943229    4.559527   -0.975285
    134          1           0      -26.319766    6.853418    0.198788
    135          1           0      -24.601859    6.773518   -0.372106
    136          1           0      -31.238514   -0.493685    3.053970
    137          1           0      -31.529355    0.714455    1.820394
    138          1           0      -30.487836    1.084742    3.087776
    139          1           0      -32.658541   -2.072416    1.404428
    140          1           0      -32.012999   -2.726948    2.952609
    141          1           0      -32.714047   -3.663175    1.572297
    142          1           0      -26.831233   -4.875013   -2.277214
    143          1           0      -24.077688   -5.119271   -1.175642
    144          1           0      -27.346796   -6.496183   -1.015523
    145          1           0      -26.534046   -5.729862    0.396047
    146          1           0      -25.662071   -6.740469   -0.650361
    147          1           0      -24.660974   -5.857798   -3.542828
    148          1           0      -23.280834   -4.729006   -3.576367
    149          1           0      -24.380269   -3.392766   -4.954836
    150          1           0      -25.774089   -3.283260   -3.808893
    151          1           0      -25.836152   -4.495850   -5.032773
    152          1           0      -20.331971   -0.017992   -3.466023
    153          1           0      -20.951605   -1.595263   -3.390848
    154          1           0      -19.851467   -1.139966   -2.095286
    155          1           0      -22.734657    4.011156   -0.961938
    156          1           0      -20.546664    5.373712    2.497034
    157          1           0      -20.583051    6.870753    1.576228
    158          1           0      -19.513733    5.608814    0.986243
 ---------------------------------------------------------------------

 SCF Done:  E(RCAM-B3LYP) =  -4069.81192240     A.U. after   17 cycles

 Excitation energies and oscillator strengths:

 Excited State   1:      Singlet-A      1.6591 eV  747.30 nm  f=0.4026  <S**2>=0.000
     309 -> 316        0.16730
     311 -> 313        0.68827
     309 <- 316        0.10534
 This state for optimization and/or second-order correction.
 Total Energy, E(TD-HF/TD-DFT) =  -4069.75095165
 Copying the excited state density for this state as the 1-particle RhoCI density.

 Excited State   2:      Singlet-A      1.7572 eV  705.57 nm  f=0.3810  <S**2>=0.000
     310 -> 315        0.18343
     312 -> 314        0.68375
     310 <- 315        0.10474

 Excited State   3:      Singlet-A      2.1919 eV  565.66 nm  f=0.1538  <S**2>=0.000
     309 -> 313        0.65715
     311 -> 316       -0.24517

 Excited State   4:      Singlet-A      2.2202 eV  558.44 nm  f=0.1065  <S**2>=0.000
     310 -> 314        0.63626
     312 -> 315       -0.29384

 Excited State   5:      Singlet-A      3.0617 eV  404.95 nm  f=0.0000  <S**2>=0.000
     312 -> 313        0.70710

 The electronic state is 1-A.
 Alpha  occ. eigenvalues --  -46.88903 -46.88508 -19.25287 -19.24251 -19.19564
 Alpha  occ. eigenvalues --  -19.19353 -19.19252 -19.18854 -19.18358 -19.18171
 Alpha  occ. eigenvalues --  -14.42565 -14.42545 -14.41885 -14.41427 -14.40268
 Alpha  occ. eigenvalues --  -14.39805 -14.39373 -14.38967 -10.39113 -10.38629
 Alpha  occ. eigenvalues --  -10.35957 -10.35583 -10.35472 -10.35423 -10.31928
 Alpha  occ. eigenvalues --  -10.31617 -10.31536 -10.31409 -10.31386 -10.31093
 Alpha  occ. eigenvalues --  -10.30932 -10.30894 -10.30794 -10.30726 -10.30725
 Alpha  occ. eigenvalues --  -10.30506 -10.30463 -10.30346 -10.29847 -10.29511
 Alpha  occ. eigenvalues --  -10.29409 -10.29286 -10.29033 -10.29018 -10.28841
 Alpha  occ. eigenvalues --  -10.28749 -10.28717 -10.28604 -10.28380 -10.28239
 Alpha  occ. eigenvalues --  -10.28196 -10.28149 -10.28019 -10.28012 -10.27971
 Alpha  occ. eigenvalues --  -10.27941 -10.27933 -10.27860 -10.27847 -10.27692
 Alpha  occ. eigenvalues --  -10.27518 -10.27514 -10.27502 -10.27470 -10.27451
 Alpha  occ. eigenvalues --  -10.27040 -10.26964 -10.26879 -10.26720 -10.26586
 Alpha  occ. eigenvalues --  -10.26505 -10.26481 -10.26387 -10.26328 -10.26254
 Alpha  occ. eigenvalues --  -10.26066 -10.25836 -10.25805 -10.25671 -10.25623
 Alpha  occ. eigenvalues --  -10.25610 -10.25594 -10.25288 -10.25204 -10.24902
 Alpha  occ. eigenvalues --  -10.24842  -3.17474  -3.17105  -1.92344  -1.92006
 Alpha  occ. eigenvalues --   -1.91929  -1.91787  -1.91562  -1.91409  -1.17779
 Alpha  occ. eigenvalues --   -1.15443  -1.10066  -1.09443  -1.08408  -1.08370
 Alpha  occ. eigenvalues --   -1.07450  -1.06470  -1.05456  -1.04324  -1.03990
 Alpha  occ. eigenvalues --   -1.03463  -1.03211  -1.02760  -1.02110  -1.01342
 Alpha  occ. eigenvalues --   -0.92183  -0.91827  -0.89558  -0.89205  -0.89025
 Alpha  occ. eigenvalues --   -0.88774  -0.88546  -0.88143  -0.87701  -0.87364
 Alpha  occ. eigenvalues --   -0.86796  -0.86741  -0.85310  -0.85092  -0.84321
 Alpha  occ. eigenvalues --   -0.83814  -0.83462  -0.83333  -0.82858  -0.82679
 Alpha  occ. eigenvalues --   -0.82182  -0.81061  -0.80811  -0.80623  -0.80499
 Alpha  occ. eigenvalues --   -0.80035  -0.78758  -0.78704  -0.77479  -0.76946
 Alpha  occ. eigenvalues --   -0.76856  -0.76768  -0.76174  -0.75833  -0.75141
 Alpha  occ. eigenvalues --   -0.74982  -0.72538  -0.72210  -0.71798  -0.71080
 Alpha  occ. eigenvalues --   -0.69921  -0.69208  -0.69132  -0.68330  -0.68183
 Alpha  occ. eigenvalues --   -0.67594  -0.67522  -0.66911  -0.65854  -0.65265
 Alpha  occ. eigenvalues --   -0.65214  -0.64910  -0.64847  -0.64185  -0.64148
 Alpha  occ. eigenvalues --   -0.64129  -0.62386  -0.61631  -0.60930  -0.60903
 Alpha  occ. eigenvalues --   -0.59494  -0.59485  -0.58965  -0.58790  -0.58479
 Alpha  occ. eigenvalues --   -0.58068  -0.57831  -0.57623  -0.57415  -0.56949
 Alpha  occ. eigenvalues --   -0.56681  -0.55894  -0.55759  -0.55623  -0.54956
 Alpha  occ. eigenvalues --   -0.54919  -0.54740  -0.54290  -0.54162  -0.53940
 Alpha  occ. eigenvalues --   -0.53823  -0.53538  -0.53471  -0.53046  -0.52902
 Alpha  occ. eigenvalues --   -0.52773  -0.52623  -0.52547  -0.52541  -0.52345
 Alpha  occ. eigenvalues --   -0.52120  -0.51984  -0.51405  -0.51316  -0.51022
 Alpha  occ. eigenvalues --   -0.50717  -0.50561  -0.50431  -0.50013  -0.50008
 Alpha  occ. eigenvalues --   -0.49865  -0.49723  -0.49512  -0.49395  -0.49277
 Alpha  occ. eigenvalues --   -0.49200  -0.49045  -0.49024  -0.48763  -0.48693
 Alpha  occ. eigenvalues --   -0.48602  -0.48480  -0.48184  -0.48172  -0.48015
 Alpha  occ. eigenvalues --   -0.47870  -0.47789  -0.47748  -0.47414  -0.47412
 Alpha  occ. eigenvalues --   -0.46679  -0.46615  -0.46372  -0.46301  -0.46290
 Alpha  occ. eigenvalues --   -0.46070  -0.45827  -0.45819  -0.45563  -0.45459
 Alpha  occ. eigenvalues --   -0.45433  -0.45199  -0.45153  -0.45009  -0.44715
 Alpha  occ. eigenvalues --   -0.44638  -0.44545  -0.44340  -0.44241  -0.44235
 Alpha  occ. eigenvalues --   -0.44072  -0.44001  -0.43994  -0.43399  -0.43177
 Alpha  occ. eigenvalues --   -0.43131  -0.43042  -0.43039  -0.42795  -0.42635
 Alpha  occ. eigenvalues --   -0.42410  -0.42402  -0.41920  -0.41885  -0.41843
 Alpha  occ. eigenvalues --   -0.41628  -0.41598  -0.41527  -0.41390  -0.41217
 Alpha  occ. eigenvalues --   -0.40810  -0.40730  -0.40602  -0.40402  -0.40095
 Alpha  occ. eigenvalues --   -0.40053  -0.39825  -0.39629  -0.39495  -0.39239
 Alpha  occ. eigenvalues --   -0.38675  -0.38425  -0.37905  -0.37799  -0.37630
 Alpha  occ. eigenvalues --   -0.37220  -0.36818  -0.36610  -0.36365  -0.36307
 Alpha  occ. eigenvalues --   -0.35964  -0.35829  -0.34434  -0.34008  -0.33739
 Alpha  occ. eigenvalues --   -0.33426  -0.33074  -0.33055  -0.31902  -0.31764
 Alpha  occ. eigenvalues --   -0.31464  -0.30789  -0.30733  -0.30585  -0.30297
 Alpha  occ. eigenvalues --   -0.30291  -0.29487  -0.28698  -0.24118  -0.23898
 Alpha  occ. eigenvalues --   -0.21379  -0.21163
 Alpha virt. eigenvalues --   -0.09240  -0.08504  -0.01846  -0.01406  -0.00175
 Alpha virt. eigenvalues --   -0.00046   0.01363   0.02092   0.02171   0.02712
 Alpha virt. eigenvalues --    0.05211   0.05258   0.05391   0.05784   0.06078

 Mulliken charges:
               1
     1  Mg   0.832130
     2  C    0.053301
     3  C   -0.082058
     4  C   -0.070456
     5  C   -0.080610
     6  N   -0.209693
     7  C   -0.071907
     8  C    0.011111
     9  C   -0.072295
    10  C   -0.024591
    11  C    0.046711
    12  C    0.028490
    13  C   -0.068386
    14  H    0.028057
    15  N   -0.362207
    16  C    0.170265
    17  C   -0.116453
    18  C   -0.038009
    19  C    0.148198
    20  C    0.098553
    21  C    0.036642
    22  O   -0.200893
    23  C    0.053970
    24  N   -0.348537
    25  C   -0.000989
    26  C   -0.010948
    27  C   -0.014540
    28  C    0.090612
    29  C    0.058951
    30  C    0.000414
    31  C    0.009594
    32  N   -0.370110
    33  C    0.134138
    34  C   -0.185250
    35  C   -0.007956
    36  C    0.094258
    37  C    0.119453
    38  C    0.044312
    39  O   -0.191190
    40  C   -0.048608
    41  C    0.168013
    42  O   -0.239956
    43  O   -0.278998
    44  C    0.189684
    45  H   -0.020172
    46  H   -0.008664
    47  H   -0.032242
    48  H    0.036448
    49  H    0.020272
    50  H    0.030099
    51  H    0.017473
    52  H    0.014702
    53  H    0.014814
    54  H    0.008480
    55  H    0.040758
    56  H    0.030040
    57  H    0.032443
    58  H    0.010811
    59  H    0.024870
    60  H    0.019500
    61  H    0.028226
    62  H    0.034463
    63  H    0.027697
    64  H    0.006902
    65  H    0.037036
    66  H    0.003325
    67  H    0.012713
    68  H    0.013033
    69  H    0.007204
    70  H    0.015209
    71  H    0.020900
    72  H    0.005591
    73  H    0.033353
    74  H    0.038397
    75  H    0.005118
    76  H    0.046533
    77  H    0.033287
    78  H    0.033835
    79  H    0.035332
    80  Mg   0.835486
    81  C    0.031212
    82  C   -0.057087
    83  C   -0.053494
    84  C   -0.058913
    85  N   -0.269243
    86  C   -0.044983
    87  C    0.002011
    88  C   -0.047189
    89  C   -0.014827
    90  C    0.074629
    91  C    0.034741
    92  C   -0.076611
    93  H    0.020617
    94  N   -0.405711
    95  C    0.178241
    96  C   -0.125134
    97  C   -0.000863
    98  C    0.109738
    99  C    0.101755
   100  C   -0.004295
   101  O   -0.244042
   102  C    0.051033
   103  N   -0.270188
   104  C    0.053244
   105  C   -0.078190
   106  C    0.027878
   107  C   -0.007800
   108  C    0.069552
   109  C    0.031256
   110  C    0.009331
   111  N   -0.344264
   112  C    0.135690
   113  C   -0.189186
   114  C    0.048243
   115  C    0.088879
   116  C    0.113938
   117  C    0.043012
   118  O   -0.170947
   119  C   -0.068820
   120  C    0.209041
   121  O   -0.207551
   122  O   -0.347374
   123  C    0.172017
   124  H   -0.027407
   125  H   -0.004053
   126  H   -0.028298
   127  H    0.008147
   128  H    0.006980
   129  H    0.010111
   130  H    0.012677
   131  H    0.036559
   132  H    0.005613
   133  H    0.014518
   134  H    0.032442
   135  H    0.046727
   136  H    0.016017
   137  H    0.027846
   138  H    0.023618
   139  H    0.009465
   140  H    0.052510
   141  H    0.022996
   142  H    0.010407
   143  H    0.009992
   144  H    0.021278
   145  H    0.019808
   146  H   -0.000306
   147  H    0.007284
   148  H    0.015368
   149  H    0.024411
   150  H    0.019927
   151  H    0.019862
   152  H    0.034824
   153  H   -0.002143
   154  H    0.035963
   155  H    0.036136
   156  H    0.043638
   157  H    0.035896
   158  H    0.046355
 Sum of Mulliken charges =  -0.00000

 Dipole moment (field-independent basis, Debye):
    X=             -5.4960    Y=              2.2257    Z=              4.2157  Tot=              7.2754
 Quadrupole moment (field-independent basis, Debye-Ang):
   XX=           -334.9788   YY=           -484.3805   ZZ=           -499.9936
   XY=            -63.1484   XZ=            140.4645   YZ=             46.6716

 Normal termination of Gaussian 16 at Thu Sep  2 21:04:10 2021.
