 Gaussian 16, Revision A.03,
 Gaussian 16:  ES64L-G16RevA.03 25-Dec-2016

 ----------------------------------------------------------
 #p cam-b3lyp/Def2SVP td=(nstates=5) density=(transition=1)
 ----------------------------------------------------------

 --------------------------------
 TDDFT excited states in gaussian
 --------------------------------
 Symbolic Z-matrix:
 Charge =  0 Multiplicity = 1

                         Standard orientation:
 ---------------------------------------------------------------------
 Center     Atomic      Atomic             Coordinates (Angstroms)
 Number     Number       Type             X           Y           Z
 ---------------------------------------------------------------------
      1         12           0       -4.019051   -0.501546    1.223678
      2          6           0       -5.368558    2.415331   -0.258616
      3          6           0       -1.742312    1.452898    2.768304
      4          6           0       -2.727760   -3.245911    2.456293
      5          6           0       -6.022439   -2.395372   -1.071471
      6          7           0       -3.507807    1.721357    1.188608
      7          6           0       -4.376459    2.686371    0.706980
      8          6           0       -3.931010    3.990452    1.275099
      9          6           0       -2.498182    3.741139    1.746971
     10          6           0       -2.542780    2.206658    1.955488
     11          6           0       -1.461892    4.118268    0.622879
     12          6           0       -4.846657    4.624257    2.455128
     13          6           0       -5.170104    6.149691    2.472116
     14          1           0       -3.968120    7.122671    2.298906
     15          7           0       -2.412109   -0.815633    2.454993
     16          6           0       -1.647401    0.099660    2.973200
     17          6           0       -0.605000   -0.567927    3.771960
     18          6           0       -0.977475   -1.941256    3.890183
     19          6           0       -2.073803   -2.068307    2.888399
     20          6           0        0.670722    0.058973    4.443477
     21          6           0       -0.434833   -3.070531    4.765477
     22          8           0       -0.788180   -4.261586    4.672240
     23          6           0        0.707555   -2.792065    5.622137
     24          7           0       -4.244279   -2.577173    0.593853
     25          6           0       -3.649865   -3.554109    1.388237
     26          6           0       -4.241556   -4.962114    0.993684
     27          6           0       -5.363708   -4.606627   -0.013282
     28          6           0       -5.243806   -3.087731   -0.156389
     29          6           0       -3.171640   -5.951859    0.531885
     30          6           0       -6.778928   -5.140324    0.323081
     31          6           0       -7.647337   -5.664978   -0.844120
     32          7           0       -5.399132   -0.130587   -0.356226
     33          6           0       -6.086046   -0.975555   -1.222179
     34          6           0       -7.009525   -0.185715   -1.996324
     35          6           0       -6.720048    1.145144   -1.691429
     36          6           0       -5.732895    1.161440   -0.667765
     37          6           0       -8.008171   -0.657704   -2.862469
     38          6           0       -7.091993    2.546999   -1.933209
     39          8           0       -7.938198    3.070296   -2.640654
     40          6           0       -6.227517    3.429786   -0.974694
     41          6           0       -5.473265    4.426204   -1.836957
     42          8           0       -4.439668    4.369350   -2.463893
     43          8           0       -6.217532    5.558008   -1.668885
     44          6           0       -5.615195    6.847528   -2.083388
     45          1           0       -1.055952    2.078698    3.343200
     46          1           0       -2.410851   -4.111985    3.040938
     47          1           0       -6.792434   -2.950846   -1.610071
     48          1           0       -3.893446    4.827938    0.578014
     49          1           0       -2.302281    4.156006    2.735412
     50          1           0       -0.513231    4.494053    1.004702
     51          1           0       -1.785708    4.954005    0.002082
     52          1           0       -1.265780    3.183042    0.099597
     53          1           0       -4.462435    4.299714    3.421597
     54          1           0       -5.820805    4.133884    2.462197
     55          1           0       -5.513796    6.297923    3.496480
     56          1           0       -5.922131    6.221957    1.686374
     57          1           0        0.657472    0.090336    5.532710
     58          1           0        0.764092    1.074207    4.056864
     59          1           0        1.595693   -0.497996    4.293862
     60          1           0        0.508026   -1.940602    6.273286
     61          1           0        1.599189   -2.594935    5.026830
     62          1           0        0.781257   -3.620441    6.326059
     63          1           0       -4.770790   -5.320610    1.876700
     64          1           0       -5.082371   -4.908148   -1.022074
     65          1           0       -3.035553   -5.851811   -0.545453
     66          1           0       -3.437553   -7.000443    0.661679
     67          1           0       -2.200998   -5.620556    0.899453
     68          1           0       -7.381660   -4.455547    0.919450
     69          1           0       -6.724591   -5.964813    1.035242
     70          1           0       -8.297107   -4.824498   -1.088468
     71          1           0       -8.262131   -6.448400   -0.399809
     72          1           0       -7.014256   -5.966361   -1.678221
     73          1           0       -8.393454   -0.014316   -3.653164
     74          1           0       -8.818712   -1.025347   -2.232427
     75          1           0       -7.552093   -1.489394   -3.398266
     76          1           0       -6.869227    3.936946   -0.254446
     77          1           0       -5.858557    7.535543   -1.274260
     78          1           0       -5.996598    7.283024   -3.006606
     79          1           0       -4.531563    6.749664   -2.143177
     80         12           0        3.773473   -0.797107   -1.204888
     81          6           0        5.756428    1.991031   -0.148684
     82          6           0        0.954321    1.129217   -0.836703
     83          6           0        1.796183   -3.483376   -1.736018
     84          6           0        6.590677   -2.827847   -0.587788
     85          7           0        3.432739    1.309485   -0.578034
     86          6           0        4.366409    2.306980   -0.255797
     87          6           0        3.640554    3.609772   -0.037726
     88          6           0        2.153523    3.127721    0.235107
     89          6           0        2.178129    1.703184   -0.392852
     90          6           0        1.931686    3.103185    1.789471
     91          6           0        3.852907    4.663428   -1.181428
     92          6           0        4.094192    5.974462   -0.622625
     93          1           0        4.674214    7.060409   -1.661382
     94          7           0        1.661251   -1.004449   -1.431052
     95          6           0        0.693680   -0.092504   -1.277885
     96          6           0       -0.563710   -0.672060   -1.638297
     97          6           0       -0.366152   -2.013948   -1.887656
     98          6           0        1.144104   -2.250826   -1.742902
     99          6           0       -1.908415    0.111272   -1.506914
    100          6           0       -1.385439   -3.077774   -2.344529
    101          8           0       -1.020579   -4.218381   -2.478149
    102          6           0       -2.798340   -2.688124   -2.710018
    103          7           0        4.117663   -2.886994   -0.890292
    104          6           0        3.142924   -3.777866   -1.325993
    105          6           0        3.702974   -5.157419   -1.450906
    106          6           0        5.257589   -4.952156   -1.103025
    107          6           0        5.363708   -3.458335   -0.905463
    108          6           0        2.976988   -6.162489   -0.622024
    109          6           0        6.346217   -5.516694   -2.171307
    110          6           0        7.291514   -6.557885   -1.717793
    111          7           0        5.795362   -0.537596   -0.561424
    112          6           0        6.781624   -1.478357   -0.367802
    113          6           0        8.061371   -0.738666    0.016828
    114          6           0        7.736420    0.632635    0.003591
    115          6           0        6.331978    0.698513   -0.302626
    116          6           0        9.390840   -1.422796    0.363254
    117          6           0        8.272350    1.917967    0.335511
    118          8           0        9.427818    2.249121    0.684848
    119          6           0        6.985990    2.837966    0.420118
    120          6           0        7.369114    4.151309   -0.325974
    121          8           0        6.985387    4.355657   -1.492267
    122          8           0        8.049763    4.973498    0.509782
    123          6           0        8.582218    6.133717   -0.284249
    124          1           0        0.084154    1.781368   -0.940131
    125          1           0        1.180294   -4.365707   -1.925663
    126          1           0        7.537866   -3.357953   -0.469407
    127          1           0        4.006182    3.994524    0.914046
    128          1           0        1.422408    3.799264   -0.213604
    129          1           0        2.430371    2.272509    2.288246
    130          1           0        0.861176    3.105574    1.990214
    131          1           0        2.317078    4.031303    2.212214
    132          1           0        2.885630    4.778716   -1.671074
    133          1           0        4.600183    4.336676   -1.904945
    134          1           0        4.911099    5.950124    0.098804
    135          1           0        3.152124    6.328389   -0.203158
    136          1           0       -2.333038    0.031185   -2.507566
    137          1           0       -1.802148    1.170668   -1.273972
    138          1           0       -2.517306   -0.328817   -0.717296
    139          1           0       -3.395689   -3.573843   -2.926585
    140          1           0       -2.537870   -2.099443   -3.589572
    141          1           0       -3.212951   -2.107770   -1.885819
    142          1           0        3.579675   -5.365781   -2.513842
    143          1           0        5.435722   -5.476039   -0.164252
    144          1           0        2.453816   -6.783113   -1.348395
    145          1           0        2.182071   -5.723665   -0.019188
    146          1           0        3.598930   -6.760063    0.044850
    147          1           0        6.951453   -4.630659   -2.362767
    148          1           0        5.809860   -5.772177   -3.084199
    149          1           0        8.319690   -6.198531   -1.751623
    150          1           0        7.148231   -7.228975   -2.563985
    151          1           0        6.974154   -7.059497   -0.802570
    152          1           0        9.389775   -1.532218    1.447170
    153          1           0       10.255860   -0.834396    0.057417
    154          1           0        9.453218   -2.367906   -0.176223
    155          1           0        6.864337    2.989624    1.491769
    156          1           0        9.430501    5.899133   -0.927071
    157          1           0        8.861682    7.003208    0.309830
    158          1           0        7.738330    6.492894   -0.873613
 ---------------------------------------------------------------------

 SCF Done:  E(RCAM-B3LYP) =  -4069.77498647     A.U. after   17 cycles

 Excitation energies and oscillator strengths:

 Excited State   1:      Singlet-A      1.7185 eV  721.47 nm  f=0.2254  <S**2>=0.000
     309 -> 315        0.18148
     311 -> 313        0.66356
     312 -> 314       -0.16036
     309 <- 315        0.10441
 This state for optimization and/or second-order correction.
 Total Energy, E(TD-HF/TD-DFT) =  -4069.71183329
 Copying the excited state density for this state as the 1-particle RhoCI density.

 Excited State   2:      Singlet-A      1.7215 eV  720.23 nm  f=0.5036  <S**2>=0.000
     310 -> 316       -0.17784
     311 -> 313        0.15894
     312 -> 314        0.66287
     310 <- 316       -0.10207

 Excited State   3:      Singlet-A      1.9516 eV  635.30 nm  f=0.0007  <S**2>=0.000
     312 -> 313        0.70419

 Excited State   4:      Singlet-A      2.2501 eV  551.02 nm  f=0.0427  <S**2>=0.000
     309 -> 313        0.59501
     310 -> 314        0.16245
     311 -> 315       -0.30482
     312 -> 316        0.11115

 Excited State   5:      Singlet-A      2.2718 eV  545.76 nm  f=0.0139  <S**2>=0.000
     309 -> 313       -0.17239
     310 -> 314        0.52134
     312 -> 316        0.42286

 The electronic state is 1-A.
 Alpha  occ. eigenvalues --  -46.90145 -46.89267 -19.26118 -19.24905 -19.20664
 Alpha  occ. eigenvalues --  -19.19695 -19.19599 -19.19223 -19.19194 -19.18629
 Alpha  occ. eigenvalues --  -14.42460 -14.42148 -14.42118 -14.41736 -14.40456
 Alpha  occ. eigenvalues --  -14.39644 -14.39145 -14.39010 -10.39844 -10.39658
 Alpha  occ. eigenvalues --  -10.35858 -10.35369 -10.35271 -10.34795 -10.32312
 Alpha  occ. eigenvalues --  -10.31920 -10.31509 -10.31459 -10.31351 -10.31276
 Alpha  occ. eigenvalues --  -10.31176 -10.31013 -10.30893 -10.30773 -10.30770
 Alpha  occ. eigenvalues --  -10.30617 -10.30344 -10.30297 -10.30144 -10.29981
 Alpha  occ. eigenvalues --  -10.28984 -10.28893 -10.28840 -10.28789 -10.28513
 Alpha  occ. eigenvalues --  -10.28506 -10.28471 -10.28411 -10.28405 -10.28217
 Alpha  occ. eigenvalues --  -10.28199 -10.28163 -10.28145 -10.28116 -10.28101
 Alpha  occ. eigenvalues --  -10.27965 -10.27957 -10.27908 -10.27738 -10.27675
 Alpha  occ. eigenvalues --  -10.27488 -10.27400 -10.27341 -10.27210 -10.27202
 Alpha  occ. eigenvalues --  -10.27111 -10.26866 -10.26862 -10.26839 -10.26668
 Alpha  occ. eigenvalues --  -10.26479 -10.26267 -10.26218 -10.26210 -10.26073
 Alpha  occ. eigenvalues --  -10.26064 -10.26063 -10.25835 -10.25741 -10.25738
 Alpha  occ. eigenvalues --  -10.25458 -10.25382 -10.25185 -10.25029 -10.24912
 Alpha  occ. eigenvalues --  -10.24771  -3.18549  -3.17605  -1.93470  -1.92998
 Alpha  occ. eigenvalues --   -1.92832  -1.92503  -1.92048  -1.91906  -1.16695
 Alpha  occ. eigenvalues --   -1.15997  -1.11412  -1.10132  -1.09692  -1.08355
 Alpha  occ. eigenvalues --   -1.07738  -1.07070  -1.05769  -1.04629  -1.03898
 Alpha  occ. eigenvalues --   -1.03694  -1.02878  -1.02702  -1.02531  -1.01274
 Alpha  occ. eigenvalues --   -0.93391  -0.91088  -0.89370  -0.89019  -0.88860
 Alpha  occ. eigenvalues --   -0.88592  -0.88505  -0.88119  -0.88037  -0.87610
 Alpha  occ. eigenvalues --   -0.87423  -0.87154  -0.87041  -0.85323  -0.84850
 Alpha  occ. eigenvalues --   -0.84360  -0.83975  -0.83681  -0.83317  -0.82779
 Alpha  occ. eigenvalues --   -0.82444  -0.82060  -0.81915  -0.81167  -0.80475
 Alpha  occ. eigenvalues --   -0.80357  -0.78840  -0.77892  -0.77805  -0.77675
 Alpha  occ. eigenvalues --   -0.77313  -0.76510  -0.76393  -0.75652  -0.75435
 Alpha  occ. eigenvalues --   -0.74797  -0.73090  -0.72398  -0.72055  -0.71266
 Alpha  occ. eigenvalues --   -0.69426  -0.69119  -0.68598  -0.68215  -0.67896
 Alpha  occ. eigenvalues --   -0.67724  -0.67252  -0.66257  -0.65968  -0.65831
 Alpha  occ. eigenvalues --   -0.65688  -0.65016  -0.64922  -0.64819  -0.64287
 Alpha  occ. eigenvalues --   -0.64142  -0.62485  -0.61938  -0.60962  -0.60335
 Alpha  occ. eigenvalues --   -0.59822  -0.59618  -0.59044  -0.58832  -0.58524
 Alpha  occ. eigenvalues --   -0.58229  -0.58097  -0.58041  -0.57290  -0.56949
 Alpha  occ. eigenvalues --   -0.56652  -0.56415  -0.55798  -0.55714  -0.55462
 Alpha  occ. eigenvalues --   -0.55049  -0.54891  -0.54326  -0.54280  -0.54225
 Alpha  occ. eigenvalues --   -0.53846  -0.53793  -0.53699  -0.53471  -0.53385
 Alpha  occ. eigenvalues --   -0.53355  -0.52969  -0.52786  -0.52703  -0.52585
 Alpha  occ. eigenvalues --   -0.52505  -0.52321  -0.52167  -0.51891  -0.51717
 Alpha  occ. eigenvalues --   -0.51676  -0.51186  -0.50971  -0.50869  -0.50500
 Alpha  occ. eigenvalues --   -0.50338  -0.50298  -0.50124  -0.50029  -0.49916
 Alpha  occ. eigenvalues --   -0.49815  -0.49677  -0.49409  -0.49206  -0.49020
 Alpha  occ. eigenvalues --   -0.48765  -0.48606  -0.48449  -0.48308  -0.48163
 Alpha  occ. eigenvalues --   -0.47924  -0.47849  -0.47576  -0.47498  -0.47274
 Alpha  occ. eigenvalues --   -0.47188  -0.46983  -0.46841  -0.46572  -0.46448
 Alpha  occ. eigenvalues --   -0.46309  -0.46100  -0.46056  -0.45899  -0.45775
 Alpha  occ. eigenvalues --   -0.45512  -0.45457  -0.45214  -0.45181  -0.44871
 Alpha  occ. eigenvalues --   -0.44595  -0.44514  -0.44450  -0.44174  -0.44146
 Alpha  occ. eigenvalues --   -0.44043  -0.43765  -0.43635  -0.43544  -0.43464
 Alpha  occ. eigenvalues --   -0.43377  -0.43249  -0.42988  -0.42894  -0.42669
 Alpha  occ. eigenvalues --   -0.42605  -0.42477  -0.42266  -0.42258  -0.42081
 Alpha  occ. eigenvalues --   -0.41929  -0.41833  -0.41744  -0.41378  -0.41307
 Alpha  occ. eigenvalues --   -0.41198  -0.41002  -0.40624  -0.40602  -0.40445
 Alpha  occ. eigenvalues --   -0.40140  -0.39967  -0.39701  -0.39116  -0.38724
 Alpha  occ. eigenvalues --   -0.38466  -0.38175  -0.37965  -0.37715  -0.37153
 Alpha  occ. eigenvalues --   -0.37105  -0.37005  -0.36926  -0.36811  -0.36551
 Alpha  occ. eigenvalues --   -0.36016  -0.35281  -0.34728  -0.34533  -0.33907
 Alpha  occ. eigenvalues --   -0.33740  -0.33673  -0.32936  -0.32052  -0.31728
 Alpha  occ. eigenvalues --   -0.31429  -0.31066  -0.31016  -0.30979  -0.30510
 Alpha  occ. eigenvalues --   -0.29924  -0.29862  -0.29182  -0.24604  -0.24079
 Alpha  occ. eigenvalues --   -0.21564  -0.20047
 Alpha virt. eigenvalues --   -0.08885  -0.07358  -0.02682  -0.02357  -0.00637
 Alpha virt. eigenvalues --    0.00172   0.01223   0.01734   0.02000   0.02601
 Alpha virt. eigenvalues --    0.04720   0.04862   0.05269   0.05409   0.05547

 Mulliken charges:
               1
     1  Mg  12.005586
     2  C    5.980050
     3  C    6.028770
     4  C    6.017808
     5  C    5.982703
     6  N    7.004682
     7  C    6.032325
     8  C    5.990611
     9  C    6.003539
    10  C    5.965582
    11  C    5.998589
    12  C    5.996067
    13  C    5.999225
    14  H    1.007393
    15  N    7.012891
    16  C    5.954158
    17  C    5.977129
    18  C    5.988678
    19  C    5.961176
    20  C    6.002941
    21  C    5.987149
    22  O    7.975166
    23  C    6.006628
    24  N    6.998103
    25  C    5.959310
    26  C    6.010275
    27  C    5.991124
    28  C    6.032024
    29  C    6.003884
    30  C    5.995027
    31  C    6.000126
    32  N    6.993067
    33  C    6.044370
    34  C    6.026301
    35  C    6.005405
    36  C    6.036320
    37  C    5.993563
    38  C    6.015941
    39  O    8.028586
    40  C    6.001480
    41  C    6.001657
    42  O    8.008917
    43  O    7.999406
    44  C    5.996996
    45  H    0.993935
    46  H    0.991864
    47  H    1.005994
    48  H    1.003805
    49  H    1.001343
    50  H    1.000289
    51  H    0.988253
    52  H    1.003470
    53  H    1.014255
    54  H    0.996665
    55  H    1.003431
    56  H    0.995144
    57  H    0.979404
    58  H    0.981498
    59  H    0.981007
    60  H    0.993903
    61  H    0.991361
    62  H    0.985415
    63  H    0.995844
    64  H    0.999976
    65  H    0.991343
    66  H    0.991216
    67  H    1.005934
    68  H    0.999626
    69  H    1.009735
    70  H    0.992589
    71  H    1.003152
    72  H    1.002094
    73  H    1.015814
    74  H    1.021568
    75  H    1.018350
    76  H    1.007878
    77  H    1.004644
    78  H    1.003127
    79  H    1.005452
    80  Mg  12.003981
    81  C    5.993923
    82  C    6.012737
    83  C    6.008849
    84  C    5.996391
    85  N    6.996490
    86  C    6.009322
    87  C    5.998057
    88  C    6.001345
    89  C    5.993526
    90  C    6.002697
    91  C    5.999217
    92  C    6.001360
    93  H    0.996853
    94  N    7.003517
    95  C    5.993719
    96  C    5.998755
    97  C    6.000694
    98  C    5.990001
    99  C    5.997591
   100  C    6.004180
   101  O    7.996804
   102  C    5.993956
   103  N    7.002209
   104  C    5.991334
   105  C    6.002534
   106  C    5.996474
   107  C    6.008358
   108  C    5.999729
   109  C    5.999496
   110  C    5.999871
   111  N    6.998746
   112  C    6.010986
   113  C    6.008081
   114  C    5.999313
   115  C    6.008868
   116  C    5.999649
   117  C    6.003231
   118  O    8.005375
   119  C    5.999896
   120  C    6.000520
   121  O    8.001115
   122  O    8.000184
   123  C    5.999766
   124  H    0.992591
   125  H    0.998753
   126  H    1.001465
   127  H    1.000068
   128  H    0.995451
   129  H    1.003867
   130  H    1.004567
   131  H    0.993842
   132  H    1.000516
   133  H    0.998160
   134  H    0.999416
   135  H    1.001006
   136  H    0.987007
   137  H    0.992422
   138  H    0.999548
   139  H    0.994465
   140  H    0.997053
   141  H    0.992491
   142  H    0.997870
   143  H    1.002699
   144  H    0.997855
   145  H    1.005951
   146  H    0.997543
   147  H    0.997886
   148  H    1.001304
   149  H    0.998711
   150  H    1.000274
   151  H    1.001545
   152  H    1.005486
   153  H    1.003086
   154  H    1.003557
   155  H    1.002937
   156  H    0.999521
   157  H    1.000588
   158  H    1.000692
 Sum of Mulliken charges = 624.00000

 Dipole moment (field-independent basis, Debye):
    X=             -4.8862    Y=              3.2681    Z=             -5.8840  Tot=              8.3173
 Quadrupole moment (field-independent basis, Debye-Ang):
   XX=             71.9642   YY=             -1.0257   ZZ=            -15.7296
   XY=            -11.3463   XZ=             17.6008   YZ=              6.0369

 Normal termination of Gaussian 16 at Wed Sep 22 14:13:55 2021.
