 Gaussian 16, Revision A.03,
 Gaussian 16:  ES64L-G16RevA.03 25-Dec-2016

 ----------------------------------------------------------
 #p cam-b3lyp/Def2SVP td=(nstates=5) density=(transition=1)
 ----------------------------------------------------------

 --------------------------------
 TDDFT excited states in gaussian
 --------------------------------
 Symbolic Z-matrix:
 Charge =  0 Multiplicity = 1

                         Standard orientation:
 ---------------------------------------------------------------------
 Center     Atomic      Atomic             Coordinates (Angstroms)
 Number     Number       Type             X           Y           Z
 ---------------------------------------------------------------------
      1         12           0       16.755610   -0.579127    0.068129
      2          6           0       15.571404    2.545650   -1.255492
      3          6           0       18.414648    1.350569    2.536884
      4          6           0       18.126886   -3.483853    1.438705
      5          6           0       15.480578   -2.257524   -2.523701
      6          7           0       17.105643    1.789925    0.422336
      7          6           0       16.426366    2.792889   -0.174281
      8          6           0       16.886167    4.175000    0.414392
      9          6           0       17.949038    3.697069    1.467261
     10          6           0       17.778712    2.163321    1.559702
     11          6           0       19.404098    4.147517    1.092476
     12          6           0       15.746638    4.975433    1.044510
     13          6           0       15.709016    6.433950    0.725267
     14          1           0       14.533786    7.274315    1.245382
     15          7           0       17.886262   -1.051101    1.823980
     16          6           0       18.463929   -0.112693    2.672701
     17          6           0       19.146959   -0.826120    3.733588
     18          6           0       19.007148   -2.187591    3.520940
     19          6           0       18.375597   -2.301854    2.163193
     20          6           0       19.993720   -0.179486    4.791874
     21          6           0       19.555357   -3.431666    4.332824
     22          8           0       19.395520   -4.601870    4.085464
     23          6           0       20.224918   -3.185315    5.667457
     24          7           0       16.944991   -2.514209   -0.497257
     25          6           0       17.521644   -3.567353    0.163612
     26          6           0       17.563208   -4.848388   -0.701878
     27          6           0       16.510124   -4.526511   -1.845897
     28          6           0       16.270991   -2.990905   -1.582486
     29          6           0       19.001971   -5.207188   -1.193592
     30          6           0       15.197001   -5.363633   -1.771308
     31          6           0       14.289310   -5.066528   -0.579824
     32          7           0       15.775774   -0.057587   -1.564310
     33          6           0       15.215376   -0.884254   -2.577656
     34          6           0       14.522237   -0.073691   -3.576539
     35          6           0       14.597061    1.235075   -3.066998
     36          6           0       15.340828    1.214126   -1.857495
     37          6           0       13.856041   -0.569979   -4.774828
     38          6           0       14.185430    2.600316   -3.377443
     39          8           0       13.488764    3.012052   -4.289919
     40          6           0       14.878120    3.544611   -2.254482
     41          6           0       13.640899    4.292698   -1.752145
     42          8           0       12.708867    3.861166   -1.049848
     43          8           0       13.658010    5.519788   -2.242812
     44          6           0       12.705111    6.559304   -1.677735
     45          1           0       18.859028    1.949766    3.333963
     46          1           0       18.519153   -4.441864    1.788773
     47          1           0       15.027849   -2.876344   -3.300849
     48          1           0       17.224844    4.735256   -0.456459
     49          1           0       17.722754    4.071603    2.466471
     50          1           0       19.939003    4.716109    1.853184
     51          1           0       19.488050    4.602409    0.105317
     52          1           0       20.146760    3.353357    1.012672
     53          1           0       16.106301    5.073698    2.068913
     54          1           0       14.786680    4.459269    1.007441
     55          1           0       15.824112    6.769010   -0.306826
     56          1           0       16.588097    6.817639    1.243168
     57          1           0       19.888688    0.905036    4.776996
     58          1           0       21.060544   -0.400462    4.732044
     59          1           0       19.738461   -0.434415    5.820574
     60          1           0       19.563802   -2.690407    6.378774
     61          1           0       21.094995   -2.601498    5.366915
     62          1           0       20.606854   -4.169941    5.937219
     63          1           0       17.308089   -5.641167    0.002224
     64          1           0       16.889786   -4.423142   -2.862637
     65          1           0       19.391889   -6.112082   -0.727584
     66          1           0       19.766298   -4.431646   -1.158790
     67          1           0       18.821246   -5.362202   -2.257423
     68          1           0       15.457541   -6.398267   -1.994799
     69          1           0       14.593824   -5.094513   -2.638235
     70          1           0       14.690855   -4.381183    0.165724
     71          1           0       14.141613   -6.024624   -0.082109
     72          1           0       13.363537   -4.539991   -0.808912
     73          1           0       13.401071    0.197666   -5.401112
     74          1           0       13.094746   -1.258326   -4.408012
     75          1           0       14.587761   -1.149109   -5.339902
     76          1           0       15.500390    4.323622   -2.694925
     77          1           0       13.109128    7.524638   -1.983492
     78          1           0       12.696880    6.579590   -0.588377
     79          1           0       11.669334    6.413132   -1.986366
     80         12           0      -16.091338   -0.798968    0.102224
     81          6           0      -18.134152    1.939362    1.021142
     82          6           0      -13.576240    1.426222   -0.694321
     83          6           0      -14.265036   -3.412593   -1.044602
     84          6           0      -18.746994   -3.001850    0.722072
     85          7           0      -16.015273    1.413764    0.095543
     86          6           0      -16.869737    2.324440    0.712472
     87          6           0      -16.263787    3.787323    0.697901
     88          6           0      -14.951331    3.579372   -0.103802
     89          6           0      -14.834635    2.052478   -0.309669
     90          6           0      -14.790146    4.338619   -1.473728
     91          6           0      -16.170836    4.532363    2.092167
     92          6           0      -16.934891    5.818718    2.180905
     93          1           0      -16.260322    6.969631    3.027573
     94          7           0      -14.231940   -0.913059   -0.733609
     95          6           0      -13.297873    0.083826   -0.929782
     96          6           0      -12.110147   -0.481621   -1.550487
     97          6           0      -12.257585   -1.892288   -1.673276
     98          6           0      -13.635762   -2.147941   -1.113829
     99          6           0      -10.828860    0.321371   -1.852443
    100          6           0      -11.279571   -2.941981   -2.191091
    101          8           0      -11.493018   -4.136582   -2.163810
    102          6           0       -9.825536   -2.616782   -2.727759
    103          7           0      -16.502501   -2.920842   -0.217352
    104          6           0      -15.594473   -3.763869   -0.691350
    105          6           0      -16.131190   -5.238691   -0.745635
    106          6           0      -17.513325   -5.124121    0.011204
    107          6           0      -17.606895   -3.582473    0.220612
    108          6           0      -16.141058   -5.802699   -2.195893
    109          6           0      -17.549590   -5.971464    1.267638
    110          6           0      -18.867026   -6.715044    1.480188
    111          7           0      -18.107381   -0.664850    0.609078
    112          6           0      -19.041224   -1.633861    0.922303
    113          6           0      -20.268466   -0.961780    1.220117
    114          6           0      -19.983431    0.422478    1.321654
    115          6           0      -18.625741    0.587048    0.929266
    116          6           0      -21.576564   -1.609016    1.475746
    117          6           0      -20.534436    1.731939    1.712040
    118          8           0      -21.667602    2.108233    1.997057
    119          6           0      -19.212951    2.810744    1.540238
    120          6           0      -19.564816    3.862597    0.638190
    121          8           0      -19.174633    3.949547   -0.505910
    122          8           0      -20.297230    4.834237    1.281974
    123          6           0      -20.733863    5.920419    0.369691
    124          1           0      -12.713799    2.079951   -0.841520
    125          1           0      -13.741516   -4.282513   -1.445326
    126          1           0      -19.489033   -3.763215    0.973981
    127          1           0      -16.888699    4.324511   -0.014739
    128          1           0      -14.086829    3.874473    0.490960
    129          1           0      -13.756373    4.682807   -1.517569
    130          1           0      -15.500844    5.164418   -1.495291
    131          1           0      -14.976636    3.722911   -2.353852
    132          1           0      -15.106762    4.674810    2.281239
    133          1           0      -16.603761    3.861440    2.834347
    134          1           0      -17.906154    5.637700    2.643194
    135          1           0      -17.065078    6.106996    1.138192
    136          1           0      -10.079031   -0.080823   -1.172121
    137          1           0      -10.969237    1.350013   -1.519494
    138          1           0      -10.443939    0.238898   -2.869634
    139          1           0       -9.288173   -2.089212   -1.938977
    140          1           0       -9.829147   -2.209964   -3.739422
    141          1           0       -9.409931   -3.590451   -2.985527
    142          1           0      -15.539136   -5.938523   -0.156223
    143          1           0      -18.274367   -5.397798   -0.719827
    144          1           0      -17.129225   -6.218705   -2.394324
    145          1           0      -15.335350   -6.511021   -2.390457
    146          1           0      -15.975821   -4.992110   -2.903748
    147          1           0      -17.332131   -5.389424    2.162606
    148          1           0      -16.756991   -6.719009    1.326598
    149          1           0      -19.632978   -6.376753    0.782275
    150          1           0      -19.196962   -6.465499    2.489029
    151          1           0      -18.738382   -7.797514    1.487912
    152          1           0      -21.618622   -2.696433    1.414424
    153          1           0      -22.313493   -1.028799    0.919112
    154          1           0      -21.674160   -1.527963    2.558603
    155          1           0      -18.969968    3.230138    2.516958
    156          1           0      -21.352076    5.507322   -0.427650
    157          1           0      -19.822835    6.420493    0.041078
    158          1           0      -21.365878    6.659112    0.861087
 ---------------------------------------------------------------------

 SCF Done:  E(RCAM-B3LYP) =  -4069.79639670     A.U. after   19 cycles

 Excitation energies and oscillator strengths:

 Excited State   1:      Singlet-A      1.6510 eV  750.98 nm  f=0.3714  <S**2>=0.000
     309 -> 315       -0.18396
     312 -> 313        0.68514
     309 <- 315       -0.11253
 This state for optimization and/or second-order correction.
 Total Energy, E(TD-HF/TD-DFT) =  -4069.73572474
 Copying the excited state density for this state as the 1-particle RhoCI density.

 Excited State   2:      Singlet-A      1.7843 eV  694.88 nm  f=0.3725  <S**2>=0.000
     310 -> 316        0.17649
     311 -> 314        0.68526
     310 <- 316        0.10143

 Excited State   3:      Singlet-A      2.2173 eV  559.16 nm  f=0.0898  <S**2>=0.000
     309 -> 313        0.62577
     312 -> 315        0.32040

 Excited State   4:      Singlet-A      2.2589 eV  548.87 nm  f=0.1146  <S**2>=0.000
     310 -> 314        0.63965
     311 -> 316       -0.28427

 Excited State   5:      Singlet-A      3.1184 eV  397.59 nm  f=0.0000  <S**2>=0.000
     312 -> 314        0.70708

 The electronic state is 1-A.
 Alpha  occ. eigenvalues --  -46.88338 -46.88184 -19.24993 -19.24288 -19.19827
 Alpha  occ. eigenvalues --  -19.19556 -19.19411 -19.19339 -19.19179 -19.18052
 Alpha  occ. eigenvalues --  -14.42502 -14.42221 -14.41713 -14.41594 -14.40290
 Alpha  occ. eigenvalues --  -14.40148 -14.39723 -14.38673 -10.38516 -10.38278
 Alpha  occ. eigenvalues --  -10.36344 -10.35948 -10.35631 -10.35439 -10.32470
 Alpha  occ. eigenvalues --  -10.32259 -10.31927 -10.31448 -10.31413 -10.31282
 Alpha  occ. eigenvalues --  -10.31227 -10.31224 -10.31131 -10.31084 -10.31078
 Alpha  occ. eigenvalues --  -10.30672 -10.30134 -10.30121 -10.30045 -10.29957
 Alpha  occ. eigenvalues --  -10.29761 -10.28916 -10.28823 -10.28811 -10.28787
 Alpha  occ. eigenvalues --  -10.28661 -10.28641 -10.28605 -10.28459 -10.28453
 Alpha  occ. eigenvalues --  -10.28447 -10.28409 -10.28402 -10.28332 -10.28182
 Alpha  occ. eigenvalues --  -10.27975 -10.27934 -10.27757 -10.27734 -10.27619
 Alpha  occ. eigenvalues --  -10.27576 -10.27563 -10.27329 -10.27319 -10.27076
 Alpha  occ. eigenvalues --  -10.26930 -10.26878 -10.26858 -10.26730 -10.26658
 Alpha  occ. eigenvalues --  -10.26656 -10.26447 -10.26286 -10.26263 -10.26198
 Alpha  occ. eigenvalues --  -10.26142 -10.26109 -10.26066 -10.25937 -10.25776
 Alpha  occ. eigenvalues --  -10.25748 -10.25465 -10.25447 -10.25249 -10.25101
 Alpha  occ. eigenvalues --  -10.24829  -3.17028  -3.16713  -1.91914  -1.91621
 Alpha  occ. eigenvalues --   -1.91500  -1.91333  -1.91163  -1.91020  -1.15995
 Alpha  occ. eigenvalues --   -1.15832  -1.11494  -1.11457  -1.10083  -1.09219
 Alpha  occ. eigenvalues --   -1.07389  -1.05337  -1.04040  -1.03832  -1.03171
 Alpha  occ. eigenvalues --   -1.02420  -1.02261  -1.01915  -1.01746  -1.00894
 Alpha  occ. eigenvalues --   -0.91804  -0.90909  -0.89299  -0.89093  -0.88793
 Alpha  occ. eigenvalues --   -0.88389  -0.88039  -0.87995  -0.87400  -0.87169
 Alpha  occ. eigenvalues --   -0.86998  -0.86847  -0.86493  -0.85564  -0.84333
 Alpha  occ. eigenvalues --   -0.84165  -0.83627  -0.83597  -0.82462  -0.82411
 Alpha  occ. eigenvalues --   -0.81548  -0.81076  -0.80987  -0.80673  -0.80210
 Alpha  occ. eigenvalues --   -0.80048  -0.78382  -0.78177  -0.77349  -0.77000
 Alpha  occ. eigenvalues --   -0.76898  -0.76409  -0.76024  -0.75721  -0.75169
 Alpha  occ. eigenvalues --   -0.74673  -0.72639  -0.72199  -0.71691  -0.71256
 Alpha  occ. eigenvalues --   -0.70111  -0.69008  -0.68807  -0.68796  -0.67582
 Alpha  occ. eigenvalues --   -0.67379  -0.67193  -0.66321  -0.65587  -0.65524
 Alpha  occ. eigenvalues --   -0.65163  -0.64756  -0.64614  -0.64541  -0.64308
 Alpha  occ. eigenvalues --   -0.64103  -0.61828  -0.61104  -0.59988  -0.59637
 Alpha  occ. eigenvalues --   -0.59323  -0.59123  -0.58985  -0.58752  -0.57982
 Alpha  occ. eigenvalues --   -0.57766  -0.57749  -0.57407  -0.56961  -0.56289
 Alpha  occ. eigenvalues --   -0.55901  -0.55722  -0.55687  -0.55538  -0.55069
 Alpha  occ. eigenvalues --   -0.54710  -0.54692  -0.54201  -0.54012  -0.53653
 Alpha  occ. eigenvalues --   -0.53372  -0.53259  -0.53189  -0.53159  -0.52992
 Alpha  occ. eigenvalues --   -0.52941  -0.52766  -0.52510  -0.52471  -0.52162
 Alpha  occ. eigenvalues --   -0.52084  -0.51653  -0.51565  -0.51369  -0.51013
 Alpha  occ. eigenvalues --   -0.50965  -0.50940  -0.50874  -0.50545  -0.50155
 Alpha  occ. eigenvalues --   -0.50103  -0.49841  -0.49649  -0.49532  -0.49471
 Alpha  occ. eigenvalues --   -0.49418  -0.49331  -0.49272  -0.48997  -0.48701
 Alpha  occ. eigenvalues --   -0.48602  -0.48492  -0.48482  -0.48175  -0.48024
 Alpha  occ. eigenvalues --   -0.47961  -0.47690  -0.47566  -0.47495  -0.47446
 Alpha  occ. eigenvalues --   -0.46769  -0.46738  -0.46698  -0.46386  -0.46379
 Alpha  occ. eigenvalues --   -0.46230  -0.46173  -0.45953  -0.45874  -0.45547
 Alpha  occ. eigenvalues --   -0.45481  -0.45286  -0.45098  -0.44957  -0.44803
 Alpha  occ. eigenvalues --   -0.44629  -0.44456  -0.44426  -0.44204  -0.44012
 Alpha  occ. eigenvalues --   -0.43951  -0.43888  -0.43685  -0.43574  -0.43524
 Alpha  occ. eigenvalues --   -0.43247  -0.43200  -0.43149  -0.43036  -0.43013
 Alpha  occ. eigenvalues --   -0.42909  -0.42538  -0.42365  -0.42254  -0.42189
 Alpha  occ. eigenvalues --   -0.41951  -0.41857  -0.41468  -0.41455  -0.41130
 Alpha  occ. eigenvalues --   -0.40959  -0.40518  -0.40410  -0.40242  -0.40231
 Alpha  occ. eigenvalues --   -0.39981  -0.39634  -0.39624  -0.39387  -0.39246
 Alpha  occ. eigenvalues --   -0.38677  -0.38643  -0.38093  -0.37617  -0.37566
 Alpha  occ. eigenvalues --   -0.37130  -0.36823  -0.36667  -0.36206  -0.36104
 Alpha  occ. eigenvalues --   -0.35870  -0.35685  -0.34245  -0.33950  -0.33801
 Alpha  occ. eigenvalues --   -0.33172  -0.33037  -0.32777  -0.31608  -0.31483
 Alpha  occ. eigenvalues --   -0.31429  -0.31028  -0.30844  -0.30600  -0.30400
 Alpha  occ. eigenvalues --   -0.30188  -0.30026  -0.28615  -0.24152  -0.24018
 Alpha  occ. eigenvalues --   -0.21269  -0.21001
 Alpha virt. eigenvalues --   -0.08743  -0.08470  -0.02076  -0.01730   0.00092
 Alpha virt. eigenvalues --    0.00611   0.02146   0.02348   0.03009   0.03365
 Alpha virt. eigenvalues --    0.04581   0.05110   0.05219   0.05440   0.05984

 Mulliken charges:
               1
     1  Mg  11.999316
     2  C    6.022065
     3  C    5.976549
     4  C    5.971682
     5  C    6.007366
     6  N    7.009198
     7  C    5.970667
     8  C    6.004814
     9  C    5.993780
    10  C    6.033234
    11  C    5.997439
    12  C    6.005775
    13  C    6.001931
    14  H    0.999418
    15  N    6.990106
    16  C    6.051784
    17  C    6.014518
    18  C    6.018499
    19  C    6.043660
    20  C    5.993049
    21  C    6.012209
    22  O    8.026496
    23  C    5.996334
    24  N    6.987780
    25  C    6.042497
    26  C    5.992774
    27  C    6.004136
    28  C    5.966358
    29  C    5.994570
    30  C    6.005535
    31  C    6.006938
    32  N    7.005695
    33  C    5.959048
    34  C    5.971514
    35  C    5.995869
    36  C    5.963802
    37  C    6.002089
    38  C    5.985614
    39  O    7.971710
    40  C    5.997081
    41  C    5.996515
    42  O    7.994996
    43  O    7.999893
    44  C    6.002412
    45  H    1.010220
    46  H    1.006120
    47  H    0.987249
    48  H    1.003627
    49  H    0.998782
    50  H    1.002880
    51  H    1.012981
    52  H    0.997641
    53  H    0.990269
    54  H    1.003676
    55  H    1.003346
    56  H    0.994128
    57  H    1.018408
    58  H    1.020647
    59  H    1.019557
    60  H    1.007743
    61  H    1.004977
    62  H    1.014479
    63  H    0.997512
    64  H    1.002449
    65  H    0.999924
    66  H    0.998782
    67  H    1.013892
    68  H    0.989448
    69  H    1.004109
    70  H    0.988239
    71  H    0.991268
    72  H    1.004204
    73  H    0.984547
    74  H    0.981345
    75  H    0.981242
    76  H    0.991148
    77  H    0.995373
    78  H    0.994687
    79  H    0.998389
    80  Mg  11.999902
    81  C    6.000203
    82  C    5.999858
    83  C    5.999758
    84  C    6.000079
    85  N    7.000114
    86  C    5.999709
    87  C    6.000108
    88  C    5.999886
    89  C    6.000320
    90  C    5.999917
    91  C    6.000014
    92  C    6.000051
    93  H    0.999883
    94  N    6.999898
    95  C    6.000403
    96  C    6.000172
    97  C    6.000254
    98  C    6.000333
    99  C    5.999934
   100  C    6.000024
   101  O    8.000229
   102  C    5.999965
   103  N    6.999977
   104  C    6.000323
   105  C    5.999908
   106  C    6.000081
   107  C    5.999769
   108  C    5.999966
   109  C    6.000093
   110  C    6.000023
   111  N    7.000026
   112  C    5.999615
   113  C    5.999720
   114  C    5.999910
   115  C    5.999685
   116  C    6.000100
   117  C    5.999788
   118  O    7.999632
   119  C    5.999930
   120  C    5.999983
   121  O    7.999931
   122  O    7.999967
   123  C    6.000041
   124  H    1.000233
   125  H    1.000085
   126  H    0.999786
   127  H    0.999962
   128  H    1.000067
   129  H    1.000132
   130  H    1.000117
   131  H    1.000053
   132  H    0.999944
   133  H    0.999997
   134  H    0.999986
   135  H    1.000010
   136  H    1.000273
   137  H    1.000211
   138  H    1.000382
   139  H    1.000143
   140  H    1.000246
   141  H    1.000245
   142  H    1.000001
   143  H    0.999953
   144  H    1.000045
   145  H    1.000030
   146  H    1.000032
   147  H    0.999963
   148  H    0.999868
   149  H    1.000022
   150  H    0.999943
   151  H    0.999890
   152  H    0.999741
   153  H    0.999770
   154  H    0.999694
   155  H    0.999867
   156  H    0.999969
   157  H    0.999972
   158  H    0.999887
 Sum of Mulliken charges = 624.00000

 Dipole moment (field-independent basis, Debye):
    X=              6.3067    Y=             -2.0891    Z=              8.6310  Tot=             10.8919
 Quadrupole moment (field-independent basis, Debye-Ang):
   XX=            203.5447   YY=              0.0033   ZZ=              3.1738
   XY=            -37.4548   XZ=            148.1806   YZ=             -5.8108

 Normal termination of Gaussian 16 at Wed Sep 22 12:32:22 2021.
