 Gaussian 16, Revision A.03,
 Gaussian 16:  ES64L-G16RevA.03 25-Dec-2016

 ----------------------------------------------------------
 #p cam-b3lyp/Def2SVP td=(nstates=5) density=(transition=1)
 ----------------------------------------------------------

 --------------------------------
 TDDFT excited states in gaussian
 --------------------------------
 Symbolic Z-matrix:
 Charge =  0 Multiplicity = 1

                         Standard orientation:
 ---------------------------------------------------------------------
 Center     Atomic      Atomic             Coordinates (Angstroms)
 Number     Number       Type             X           Y           Z
 ---------------------------------------------------------------------
      1         12           0      -13.262661   -0.401131    0.317197
      2          6           0      -13.277684    2.517955   -1.396112
      3          6           0      -11.672497    1.168011    2.976880
      4          6           0      -13.242222   -3.322414    2.028090
      5          6           0      -14.392043   -2.063111   -2.501556
      6          7           0      -12.698836    1.589391    0.708960
      7          6           0      -12.750957    2.656923   -0.127129
      8          6           0      -12.404677    3.948591    0.566474
      9          6           0      -11.638599    3.468458    1.857252
     10          6           0      -12.059024    1.962156    1.864863
     11          6           0      -10.082758    3.733823    2.011197
     12          6           0      -13.709928    4.767269    0.978594
     13          6           0      -13.434133    6.292287    1.130562
     14          1           0      -12.045267    6.832701    1.510228
     15          7           0      -12.486565   -1.062431    2.227363
     16          6           0      -11.867708   -0.203391    3.173017
     17          6           0      -11.529702   -0.951429    4.346255
     18          6           0      -11.968340   -2.299613    4.091404
     19          6           0      -12.610817   -2.239932    2.729946
     20          6           0      -10.938182   -0.369627    5.582111
     21          6           0      -11.864833   -3.533712    4.980599
     22          8           0      -12.170160   -4.714965    4.642664
     23          6           0      -11.335739   -3.388432    6.397340
     24          7           0      -13.676295   -2.407955   -0.173374
     25          6           0      -13.780407   -3.435577    0.765416
     26          6           0      -14.531287   -4.701510    0.260576
     27          6           0      -14.922515   -4.180356   -1.233786
     28          6           0      -14.343266   -2.816531   -1.329451
     29          6           0      -13.570236   -5.897004    0.285422
     30          6           0      -16.386558   -4.257745   -1.552399
     31          6           0      -16.689621   -5.056753   -2.787590
     32          7           0      -13.644330   -0.017661   -1.563671
     33          6           0      -14.130121   -0.751020   -2.639060
     34          6           0      -14.273587    0.083249   -3.774120
     35          6           0      -13.912086    1.400926   -3.384642
     36          6           0      -13.635714    1.325200   -2.003186
     37          6           0      -14.751883   -0.261745   -5.132107
     38          6           0      -13.659219    2.744629   -3.856822
     39          8           0      -13.691990    3.296815   -4.939170
     40          6           0      -13.300648    3.523082   -2.503320
     41          6           0      -12.199815    4.504286   -2.689332
     42          8           0      -11.177774    4.331133   -3.302735
     43          8           0      -12.447529    5.694579   -2.120959
     44          6           0      -11.352277    6.693176   -2.279835
     45          1           0      -11.026966    1.709912    3.671386
     46          1           0      -13.107702   -4.278615    2.537864
     47          1           0      -14.852282   -2.486651   -3.396597
     48          1           0      -11.663808    4.530107    0.018048
     49          1           0      -12.135508    3.896833    2.727106
     50          1           0       -9.775175    4.347821    1.164654
     51          1           0       -9.426173    2.867775    2.077884
     52          1           0       -9.950236    4.245724    2.964537
     53          1           0      -14.041252    4.292821    1.902461
     54          1           0      -14.450149    4.607470    0.194510
     55          1           0      -14.162509    6.582094    1.888136
     56          1           0      -13.801164    6.757817    0.216247
     57          1           0      -11.641175    0.104239    6.267277
     58          1           0      -10.179804    0.330561    5.234076
     59          1           0      -10.290038   -1.064267    6.115593
     60          1           0      -10.249337   -3.406481    6.312053
     61          1           0      -11.672663   -4.286978    6.913666
     62          1           0      -11.637389   -2.465111    6.892214
     63          1           0      -15.325122   -4.887105    0.984195
     64          1           0      -14.420454   -4.817958   -1.962237
     65          1           0      -12.526225   -5.664796    0.496745
     66          1           0      -13.718738   -6.486886   -0.618749
     67          1           0      -13.872827   -6.500370    1.141766
     68          1           0      -16.833120   -3.285834   -1.762741
     69          1           0      -17.006131   -4.661326   -0.751454
     70          1           0      -17.480411   -5.791487   -2.638929
     71          1           0      -15.812649   -5.604685   -3.131227
     72          1           0      -16.880990   -4.301725   -3.550660
     73          1           0      -14.540719   -1.276369   -5.471128
     74          1           0      -14.064943    0.282521   -5.780813
     75          1           0      -15.811560   -0.023949   -5.225668
     76          1           0      -14.230963    4.087613   -2.434290
     77          1           0      -11.343760    7.137732   -3.276038
     78          1           0      -10.391358    6.301135   -1.946190
     79          1           0      -11.545896    7.518956   -1.594780
     80         12           0       12.629351   -0.737647   -0.439112
     81          6           0       14.837408    1.986623    0.028633
     82          6           0       10.007547    1.312537    0.474434
     83          6           0       10.581036   -3.431475   -0.610334
     84          6           0       15.348130   -2.832579   -1.152487
     85          7           0       12.562022    1.361434    0.261845
     86          6           0       13.537389    2.351282    0.167500
     87          6           0       12.949354    3.778206    0.521779
     88          6           0       11.488679    3.431033    0.914734
     89          6           0       11.322689    1.929752    0.589152
     90          6           0       11.024304    3.734628    2.388274
     91          6           0       13.177332    4.926078   -0.545046
     92          6           0       13.946437    6.113677   -0.050626
     93          1           0       13.485425    7.519272   -0.605839
     94          7           0       10.628568   -0.964907   -0.101155
     95          6           0        9.678075   -0.010950    0.200963
     96          6           0        8.378540   -0.649658    0.338648
     97          6           0        8.489068   -2.035073    0.030094
     98          6           0        9.957165   -2.207553   -0.274299
     99          6           0        7.065171    0.114129    0.602009
    100          6           0        7.415285   -3.116206   -0.038027
    101          8           0        7.624897   -4.255196   -0.401536
    102          6           0        5.878719   -2.864976    0.251517
    103          7           0       12.949530   -2.878079   -0.738389
    104          6           0       11.954609   -3.755161   -0.765604
    105          6           0       12.459574   -5.209612   -1.074956
    106          6           0       13.977609   -4.970183   -1.441663
    107          6           0       14.121931   -3.452062   -1.119540
    108          6           0       12.138669   -6.197202    0.083981
    109          6           0       14.294280   -5.383111   -2.865441
    110          6           0       15.622836   -6.121303   -3.019512
    111          7           0       14.708286   -0.606061   -0.433698
    112          6           0       15.685171   -1.497063   -0.834902
    113          6           0       16.950477   -0.861189   -0.631984
    114          6           0       16.701015    0.503069   -0.341653
    115          6           0       15.290363    0.639888   -0.216295
    116          6           0       18.280052   -1.493988   -0.796835
    117          6           0       17.331000    1.822955   -0.163558
    118          8           0       18.500671    2.181905   -0.063942
    119          6           0       16.008982    2.891622    0.059771
    120          6           0       16.151370    3.579264    1.305069
    121          8           0       15.512570    3.334172    2.305387
    122          8           0       17.014168    4.644527    1.179507
    123          6           0       17.236932    5.355022    2.463358
    124          1           0        9.136627    1.951369    0.636375
    125          1           0        9.977124   -4.340454   -0.631792
    126          1           0       16.125086   -3.531473   -1.471302
    127          1           0       13.398660    4.016801    1.485178
    128          1           0       10.782426    3.962043    0.276435
    129          1           0       10.008751    4.125661    2.318848
    130          1           0       11.714739    4.455730    2.825093
    131          1           0       11.004344    2.862605    3.042238
    132          1           0       12.184254    5.201092   -0.900654
    133          1           0       13.764565    4.489442   -1.353068
    134          1           0       14.996470    6.012555   -0.328177
    135          1           0       13.838199    6.051226    1.031819
    136          1           0        6.487379    0.002799   -0.314835
    137          1           0        7.281141    1.181454    0.655288
    138          1           0        6.459602   -0.252182    1.431917
    139          1           0        5.535910   -2.078190   -0.421324
    140          1           0        5.654669   -2.795835    1.316411
    141          1           0        5.411902   -3.835798    0.087840
    142          1           0       12.013759   -5.643198   -1.969915
    143          1           0       14.552312   -5.515561   -0.692818
    144          1           0       13.054670   -6.728401    0.344133
    145          1           0       11.307190   -6.867288   -0.135945
    146          1           0       11.820464   -5.637993    0.962302
    147          1           0       14.287311   -4.535975   -3.550525
    148          1           0       13.532833   -6.012194   -3.329085
    149          1           0       16.212110   -6.077207   -2.103533
    150          1           0       16.173582   -5.595198   -3.799757
    151          1           0       15.495237   -7.134144   -3.401903
    152          1           0       18.303065   -2.546078   -1.080706
    153          1           0       18.873953   -1.174481    0.060343
    154          1           0       18.620625   -1.086623   -1.749063
    155          1           0       15.995056    3.612204   -0.758447
    156          1           0       17.656981    4.667803    3.198122
    157          1           0       16.277031    5.795417    2.732943
    158          1           0       17.966562    6.159772    2.382130
 ---------------------------------------------------------------------

 SCF Done:  E(RCAM-B3LYP) =  -4069.81389028     A.U. after   18 cycles

 Excitation energies and oscillator strengths:

 Excited State   1:      Singlet-A      1.6462 eV  753.17 nm  f=0.3919  <S**2>=0.000
     309 -> 316       -0.16998
     312 -> 313        0.68908
     309 <- 316       -0.10747
 This state for optimization and/or second-order correction.
 Total Energy, E(TD-HF/TD-DFT) =  -4069.75339520
 Copying the excited state density for this state as the 1-particle RhoCI density.

 Excited State   2:      Singlet-A      1.7840 eV  694.98 nm  f=0.3746  <S**2>=0.000
     310 -> 315        0.17652
     311 -> 314        0.68525
     310 <- 315        0.10146

 Excited State   3:      Singlet-A      2.2270 eV  556.74 nm  f=0.1092  <S**2>=0.000
     309 -> 313        0.63815
     312 -> 316        0.29154

 Excited State   4:      Singlet-A      2.2588 eV  548.89 nm  f=0.1158  <S**2>=0.000
     310 -> 314        0.63961
     311 -> 315       -0.28429

 Excited State   5:      Singlet-A      2.9823 eV  415.74 nm  f=0.0000  <S**2>=0.000
     311 -> 313        0.70709

 The electronic state is 1-A.
 Alpha  occ. eigenvalues --  -46.88208 -46.87223 -19.25250 -19.24317 -19.19851
 Alpha  occ. eigenvalues --  -19.19364 -19.19299 -19.19207 -19.18844 -19.18567
 Alpha  occ. eigenvalues --  -14.42930 -14.42247 -14.41759 -14.41737 -14.40315
 Alpha  occ. eigenvalues --  -14.39600 -14.38833 -14.38697 -10.38674 -10.38306
 Alpha  occ. eigenvalues --  -10.36368 -10.35973 -10.35296 -10.35222 -10.32496
 Alpha  occ. eigenvalues --  -10.32129 -10.31951 -10.31431 -10.31256 -10.31246
 Alpha  occ. eigenvalues --  -10.31104 -10.31029 -10.30802 -10.30553 -10.30186
 Alpha  occ. eigenvalues --  -10.30160 -10.30147 -10.29928 -10.29784 -10.29421
 Alpha  occ. eigenvalues --  -10.29023 -10.28929 -10.28837 -10.28818 -10.28691
 Alpha  occ. eigenvalues --  -10.28631 -10.28471 -10.28330 -10.28210 -10.28112
 Alpha  occ. eigenvalues --  -10.28008 -10.27969 -10.27943 -10.27933 -10.27872
 Alpha  occ. eigenvalues --  -10.27784 -10.27764 -10.27728 -10.27644 -10.27611
 Alpha  occ. eigenvalues --  -10.27581 -10.27579 -10.27549 -10.27338 -10.27279
 Alpha  occ. eigenvalues --  -10.27101 -10.26907 -10.26882 -10.26759 -10.26683
 Alpha  occ. eigenvalues --  -10.26471 -10.26310 -10.26237 -10.26071 -10.25951
 Alpha  occ. eigenvalues --  -10.25909 -10.25831 -10.25795 -10.25667 -10.25541
 Alpha  occ. eigenvalues --  -10.25459 -10.25312 -10.25261 -10.25178 -10.25122
 Alpha  occ. eigenvalues --  -10.24853  -3.16738  -3.16082  -1.91646  -1.91188
 Alpha  occ. eigenvalues --   -1.91045  -1.90972  -1.90516  -1.90427  -1.17391
 Alpha  occ. eigenvalues --   -1.15860  -1.11481  -1.10216  -1.09244  -1.07480
 Alpha  occ. eigenvalues --   -1.07418  -1.07340  -1.04602  -1.04062  -1.03645
 Alpha  occ. eigenvalues --   -1.02793  -1.02446  -1.01940  -1.01485  -1.00920
 Alpha  occ. eigenvalues --   -0.93450  -0.91830  -0.89785  -0.89111  -0.88885
 Alpha  occ. eigenvalues --   -0.88667  -0.88419  -0.88020  -0.87754  -0.87300
 Alpha  occ. eigenvalues --   -0.87196  -0.86872  -0.86491  -0.85587  -0.84404
 Alpha  occ. eigenvalues --   -0.84362  -0.83896  -0.83617  -0.82557  -0.82487
 Alpha  occ. eigenvalues --   -0.81736  -0.81136  -0.81013  -0.80699  -0.80583
 Alpha  occ. eigenvalues --   -0.80074  -0.78435  -0.78410  -0.77853  -0.77441
 Alpha  occ. eigenvalues --   -0.76918  -0.76610  -0.76439  -0.75749  -0.75294
 Alpha  occ. eigenvalues --   -0.74699  -0.72961  -0.72224  -0.71926  -0.71282
 Alpha  occ. eigenvalues --   -0.69171  -0.69034  -0.68825  -0.68756  -0.68271
 Alpha  occ. eigenvalues --   -0.67403  -0.67222  -0.66779  -0.65937  -0.65606
 Alpha  occ. eigenvalues --   -0.65433  -0.64854  -0.64785  -0.64567  -0.64333
 Alpha  occ. eigenvalues --   -0.64158  -0.62420  -0.61131  -0.60400  -0.60015
 Alpha  occ. eigenvalues --   -0.60013  -0.59147  -0.59046  -0.58780  -0.58451
 Alpha  occ. eigenvalues --   -0.58080  -0.58009  -0.57790  -0.57789  -0.56986
 Alpha  occ. eigenvalues --   -0.56167  -0.55927  -0.55748  -0.55585  -0.55265
 Alpha  occ. eigenvalues --   -0.55054  -0.54718  -0.54226  -0.54017  -0.53678
 Alpha  occ. eigenvalues --   -0.53427  -0.53216  -0.53186  -0.53077  -0.53017
 Alpha  occ. eigenvalues --   -0.52964  -0.52636  -0.52537  -0.52510  -0.52225
 Alpha  occ. eigenvalues --   -0.52112  -0.52053  -0.51680  -0.51389  -0.51387
 Alpha  occ. eigenvalues --   -0.51231  -0.50996  -0.50895  -0.50570  -0.50387
 Alpha  occ. eigenvalues --   -0.50181  -0.50123  -0.50057  -0.49690  -0.49561
 Alpha  occ. eigenvalues --   -0.49497  -0.49446  -0.49084  -0.48961  -0.48628
 Alpha  occ. eigenvalues --   -0.48520  -0.48465  -0.48308  -0.48071  -0.48050
 Alpha  occ. eigenvalues --   -0.47983  -0.47844  -0.47721  -0.47473  -0.47402
 Alpha  occ. eigenvalues --   -0.47293  -0.46789  -0.46759  -0.46678  -0.46436
 Alpha  occ. eigenvalues --   -0.46407  -0.46200  -0.46002  -0.45978  -0.45507
 Alpha  occ. eigenvalues --   -0.45274  -0.45121  -0.44987  -0.44849  -0.44830
 Alpha  occ. eigenvalues --   -0.44656  -0.44621  -0.44452  -0.44126  -0.43978
 Alpha  occ. eigenvalues --   -0.43968  -0.43913  -0.43592  -0.43549  -0.43361
 Alpha  occ. eigenvalues --   -0.43265  -0.43252  -0.43175  -0.42935  -0.42489
 Alpha  occ. eigenvalues --   -0.42426  -0.42391  -0.42272  -0.42130  -0.42018
 Alpha  occ. eigenvalues --   -0.41976  -0.41496  -0.41494  -0.41157  -0.41051
 Alpha  occ. eigenvalues --   -0.40971  -0.40571  -0.40547  -0.40510  -0.40471
 Alpha  occ. eigenvalues --   -0.40262  -0.40119  -0.40010  -0.39654  -0.39416
 Alpha  occ. eigenvalues --   -0.38663  -0.38329  -0.38046  -0.37695  -0.37645
 Alpha  occ. eigenvalues --   -0.37274  -0.37154  -0.37108  -0.36848  -0.36696
 Alpha  occ. eigenvalues --   -0.36234  -0.35895  -0.34673  -0.34273  -0.34215
 Alpha  occ. eigenvalues --   -0.33825  -0.33424  -0.33062  -0.31634  -0.31613
 Alpha  occ. eigenvalues --   -0.31452  -0.30811  -0.30786  -0.30625  -0.30213
 Alpha  occ. eigenvalues --   -0.30025  -0.29654  -0.28639  -0.24391  -0.24043
 Alpha  occ. eigenvalues --   -0.21294  -0.21113
 Alpha virt. eigenvalues --   -0.09042  -0.08496  -0.01754  -0.01697   0.00035
 Alpha virt. eigenvalues --    0.00067   0.02089   0.02122   0.02991   0.03090
 Alpha virt. eigenvalues --    0.04552   0.04685   0.05389   0.05412   0.05783

 Mulliken charges:
               1
     1  Mg  12.004659
     2  C    5.973701
     3  C    6.009439
     4  C    6.035873
     5  C    6.009658
     6  N    6.986785
     7  C    6.036172
     8  C    5.987006
     9  C    6.010811
    10  C    5.963700
    11  C    6.005264
    12  C    5.997017
    13  C    5.999799
    14  H    1.006816
    15  N    7.007054
    16  C    5.950827
    17  C    5.987683
    18  C    5.974915
    19  C    5.963672
    20  C    6.004824
    21  C    5.986919
    22  O    7.961328
    23  C    6.005836
    24  N    7.021021
    25  C    5.961839
    26  C    6.010894
    27  C    5.987010
    28  C    6.018905
    29  C    6.000292
    30  C    5.993143
    31  C    5.999658
    32  N    6.994708
    33  C    6.025625
    34  C    6.035963
    35  C    6.001895
    36  C    6.035707
    37  C    5.995000
    38  C    6.012829
    39  O    8.025305
    40  C    6.004324
    41  C    6.002918
    42  O    8.002442
    43  O    8.002096
    44  C    5.997825
    45  H    0.984363
    46  H    1.002267
    47  H    1.015988
    48  H    0.999759
    49  H    0.995942
    50  H    0.983461
    51  H    1.000664
    52  H    0.996407
    53  H    1.012905
    54  H    0.992190
    55  H    1.002752
    56  H    0.995450
    57  H    0.979586
    58  H    0.985448
    59  H    0.984122
    60  H    0.989121
    61  H    0.984200
    62  H    0.992666
    63  H    1.003323
    64  H    1.004550
    65  H    1.004921
    66  H    0.990998
    67  H    1.004920
    68  H    0.997696
    69  H    1.013766
    70  H    1.007730
    71  H    1.004242
    72  H    0.995328
    73  H    1.019246
    74  H    1.017713
    75  H    1.023851
    76  H    1.003952
    77  H    1.000619
    78  H    1.005437
    79  H    1.005259
    80  Mg  11.999845
    81  C    6.000227
    82  C    5.999872
    83  C    5.999714
    84  C    6.000099
    85  N    7.000128
    86  C    5.999649
    87  C    6.000144
    88  C    5.999867
    89  C    6.000380
    90  C    5.999920
    91  C    6.000040
    92  C    6.000087
    93  H    0.999749
    94  N    6.999864
    95  C    6.000372
    96  C    6.000244
    97  C    6.000298
    98  C    6.000346
    99  C    5.999996
   100  C    6.000020
   101  O    8.000223
   102  C    5.999931
   103  N    6.999998
   104  C    6.000361
   105  C    5.999876
   106  C    6.000109
   107  C    5.999700
   108  C    5.999952
   109  C    6.000132
   110  C    6.000038
   111  N    7.000055
   112  C    5.999553
   113  C    5.999717
   114  C    5.999925
   115  C    5.999633
   116  C    6.000092
   117  C    5.999754
   118  O    7.999617
   119  C    5.999877
   120  C    5.999990
   121  O    7.999975
   122  O    7.999938
   123  C    6.000033
   124  H    1.000229
   125  H    1.000099
   126  H    0.999758
   127  H    1.000004
   128  H    0.999963
   129  H    1.000145
   130  H    1.000151
   131  H    1.000184
   132  H    0.999840
   133  H    0.999948
   134  H    0.999996
   135  H    1.000076
   136  H    1.000068
   137  H    1.000180
   138  H    1.000684
   139  H    0.999914
   140  H    1.000629
   141  H    1.000295
   142  H    0.999916
   143  H    1.000002
   144  H    1.000089
   145  H    1.000032
   146  H    1.000139
   147  H    0.999884
   148  H    0.999792
   149  H    1.000079
   150  H    0.999905
   151  H    0.999865
   152  H    0.999721
   153  H    0.999785
   154  H    0.999627
   155  H    0.999800
   156  H    1.000016
   157  H    0.999972
   158  H    0.999869
 Sum of Mulliken charges = 624.00000

 Dipole moment (field-independent basis, Debye):
    X=             -3.8128    Y=              1.7059    Z=            -10.3981  Tot=             11.2057
 Quadrupole moment (field-independent basis, Debye-Ang):
   XX=             91.3234   YY=             -0.1943   ZZ=             -8.2961
   XY=            -18.7775   XZ=            133.6501   YZ=              7.8054

 Normal termination of Gaussian 16 at Wed Sep 22 23:00:18 2021.
