 Gaussian 16, Revision A.03,
 Gaussian 16:  ES64L-G16RevA.03 25-Dec-2016

 -----------------------------------
 #p cam-b3lyp/Def2SVP td=(nstates=5)
 -----------------------------------

 --------------------------------
 TDDFT excited states in gaussian
 --------------------------------
 Symbolic Z-matrix:
 Charge =  0 Multiplicity = 1

                         Standard orientation:
 ---------------------------------------------------------------------
 Center     Atomic      Atomic             Coordinates (Angstroms)
 Number     Number       Type             X           Y           Z
 ---------------------------------------------------------------------
      1         12           0      -27.237166   -0.372037   -0.433587
      2          6           0      -25.179252    2.446038   -0.583372
      3          6           0      -28.278943    0.777019    2.711059
      4          6           0      -28.827144   -3.265246    0.114399
      5          6           0      -25.367702   -1.794911   -2.948311
      6          7           0      -26.863926    1.505823    0.916877
      7          6           0      -25.924142    2.433142    0.592354
      8          6           0      -25.813816    3.529992    1.724413
      9          6           0      -26.652602    2.818115    2.902033
     10          6           0      -27.275228    1.609045    2.183907
     11          6           0      -25.617129    2.275972    3.950306
     12          6           0      -26.552661    4.817059    1.203250
     13          6           0      -26.700753    6.005870    2.191487
     14          1           0      -27.900270    6.865261    2.459741
     15          7           0      -28.526589   -1.019487    1.080879
     16          6           0      -28.886463   -0.412189    2.295528
     17          6           0      -29.754968   -1.282715    2.969920
     18          6           0      -30.074272   -2.364028    2.159579
     19          6           0      -29.136365   -2.245991    1.055328
     20          6           0      -30.349568   -0.883353    4.280628
     21          6           0      -31.044054   -3.568915    2.394004
     22          8           0      -31.254693   -4.466756    1.585640
     23          6           0      -31.996812   -3.624231    3.591305
     24          7           0      -27.011510   -2.274153   -1.229809
     25          6           0      -27.893703   -3.253797   -0.931021
     26          6           0      -27.806930   -4.471679   -1.871555
     27          6           0      -26.603856   -4.059796   -2.764712
     28          6           0      -26.363717   -2.604557   -2.404980
     29          6           0      -27.766501   -5.855362   -1.141893
     30          6           0      -26.733591   -4.311115   -4.292062
     31          6           0      -27.600714   -3.387802   -5.037700
     32          7           0      -25.669196    0.194406   -1.630079
     33          6           0      -25.028724   -0.449448   -2.578151
     34          6           0      -24.041385    0.402142   -3.249411
     35          6           0      -24.105382    1.584671   -2.445161
     36          6           0      -25.063362    1.402881   -1.466965
     37          6           0      -23.487715    0.285351   -4.592126
     38          6           0      -23.543890    2.918419   -2.320811
     39          8           0      -22.772109    3.519561   -3.033162
     40          6           0      -24.191013    3.477079   -1.047723
     41          6           0      -23.140937    3.899202   -0.014734
     42          8           0      -22.548058    3.135281    0.701831
     43          8           0      -22.941038    5.256438   -0.098359
     44          6           0      -21.941361    5.743727    0.879791
     45          1           0      -28.691798    1.207877    3.624654
     46          1           0      -29.479964   -4.140728    0.132630
     47          1           0      -25.038444   -2.410642   -3.787107
     48          1           0      -24.787364    3.685386    2.057577
     49          1           0      -27.384398    3.461655    3.391917
     50          1           0      -25.448769    1.199549    3.956948
     51          1           0      -26.009137    2.335788    4.965913
     52          1           0      -24.637730    2.750233    3.890770
     53          1           0      -27.532895    4.502691    0.845924
     54          1           0      -26.032649    5.135358    0.299311
     55          1           0      -25.842803    6.638927    1.963185
     56          1           0      -26.557569    5.489233    3.139727
     57          1           0      -30.010114    0.071723    4.682395
     58          1           0      -30.267940   -1.735576    4.956667
     59          1           0      -31.405895   -0.744246    4.048941
     60          1           0      -31.491372   -3.738831    4.550272
     61          1           0      -32.809996   -4.343527    3.492815
     62          1           0      -32.545920   -2.682477    3.585590
     63          1           0      -28.770147   -4.334056   -2.362060
     64          1           0      -25.766871   -4.624327   -2.353777
     65          1           0      -28.299788   -5.811823   -0.192833
     66          1           0      -26.729332   -6.122585   -0.937781
     67          1           0      -28.248371   -6.648583   -1.713847
     68          1           0      -27.151822   -5.317087   -4.306776
     69          1           0      -25.741364   -4.394340   -4.735946
     70          1           0      -27.039785   -2.488265   -5.290765
     71          1           0      -28.513417   -3.171747   -4.482709
     72          1           0      -27.887292   -3.793303   -6.008486
     73          1           0      -24.227048   -0.293623   -5.146054
     74          1           0      -22.573188   -0.285311   -4.754406
     75          1           0      -23.352458    1.302116   -4.959381
     76          1           0      -24.796811    4.336965   -1.335457
     77          1           0      -21.387478    6.564096    0.423770
     78          1           0      -21.116465    5.066262    1.101462
     79          1           0      -22.427808    6.142501    1.769393
     80         12           0       26.213439   -0.915102    0.066231
     81          6           0       26.588601    2.490790   -0.807899
     82          6           0       25.610206    0.078431    3.287733
     83          6           0       26.510001   -4.079553    0.996888
     84          6           0       27.319827   -1.759591   -3.145342
     85          7           0       26.273377    1.062722    1.149176
     86          6           0       26.338524    2.315739    0.533996
     87          6           0       25.914753    3.417751    1.536108
     88          6           0       25.623865    2.612600    2.855030
     89          6           0       25.798737    1.125399    2.440133
     90          6           0       26.304943    3.092754    4.124711
     91          6           0       24.743838    4.317719    1.111530
     92          6           0       25.070946    5.835888    1.146852
     93          1           0       24.147523    6.680576    1.996420
     94          7           0       25.987445   -1.857069    1.900854
     95          6           0       25.775551   -1.303855    3.129461
     96          6           0       25.535069   -2.381167    4.059702
     97          6           0       25.946740   -3.629542    3.423515
     98          6           0       26.183622   -3.177917    2.060961
     99          6           0       25.183899   -2.122620    5.615453
    100          6           0       26.346287   -4.927311    3.981533
    101          8           0       26.667858   -5.911985    3.379651
    102          6           0       26.364690   -5.020164    5.504379
    103          7           0       27.042777   -2.652305   -0.916551
    104          6           0       26.984194   -3.857980   -0.318125
    105          6           0       27.267918   -4.975964   -1.324074
    106          6           0       27.163482   -4.251313   -2.675630
    107          6           0       27.134117   -2.798450   -2.256471
    108          6           0       28.711650   -5.618409   -1.090552
    109          6           0       25.765718   -4.660896   -3.368471
    110          6           0       24.490700   -4.048074   -2.727373
    111          7           0       26.735963    0.076602   -1.729186
    112          6           0       27.140525   -0.399325   -2.917893
    113          6           0       27.364368    0.717750   -3.795712
    114          6           0       27.114721    1.843965   -3.034170
    115          6           0       26.790808    1.429207   -1.739471
    116          6           0       27.810860    0.721875   -5.245336
    117          6           0       27.160547    3.305189   -3.134286
    118          8           0       27.497034    4.141008   -3.924949
    119          6           0       26.745408    3.789867   -1.720023
    120          6           0       27.875272    4.622226   -1.237370
    121          8           0       29.001682    4.194478   -1.202943
    122          8           0       27.511895    5.923799   -0.931118
    123          6           0       28.635069    6.898736   -0.726855
    124          1           0       25.216712    0.409228    4.251287
    125          1           0       26.506448   -5.148708    1.220780
    126          1           0       27.460130   -1.927218   -4.215263
    127          1           0       26.784065    4.035806    1.761580
    128          1           0       24.581708    2.782129    3.126419
    129          1           0       27.133456    3.762227    3.898244
    130          1           0       26.656016    2.285043    4.767430
    131          1           0       25.568925    3.709356    4.640021
    132          1           0       23.826799    4.276032    1.699265
    133          1           0       24.411787    4.068274    0.104005
    134          1           0       25.198128    6.240573    0.142836
    135          1           0       26.042262    5.949207    1.626627
    136          1           0       24.330031   -2.749670    5.871759
    137          1           0       24.873038   -1.112201    5.878306
    138          1           0       25.966000   -2.269046    6.360384
    139          1           0       25.324229   -4.842764    5.777546
    140          1           0       27.022770   -4.212071    5.822213
    141          1           0       26.634765   -6.000434    5.898323
    142          1           0       26.507429   -5.757501   -1.333371
    143          1           0       27.968856   -4.329102   -3.406325
    144          1           0       28.653963   -6.653411   -1.428540
    145          1           0       29.106582   -5.660267   -0.074913
    146          1           0       29.362121   -5.050809   -1.755817
    147          1           0       25.627901   -5.739910   -3.435202
    148          1           0       25.705051   -4.208744   -4.358505
    149          1           0       23.545260   -4.456505   -3.082771
    150          1           0       24.487365   -2.983328   -2.961171
    151          1           0       24.576776   -4.169367   -1.647075
    152          1           0       27.114818    0.239924   -5.931510
    153          1           0       28.735542    0.145603   -5.228244
    154          1           0       28.085988    1.715720   -5.598386
    155          1           0       25.884049    4.427025   -1.919699
    156          1           0       28.254283    7.403442    0.161047
    157          1           0       28.732960    7.614780   -1.542610
    158          1           0       29.651690    6.540800   -0.566101
 ---------------------------------------------------------------------

 SCF Done:  E(RCAM-B3LYP) =  -4069.83379779     A.U. after   19 cycles

 Excitation energies and oscillator strengths:

 Excited State   1:      Singlet-A      1.7037 eV  727.75 nm  f=0.4001  <S**2>=0.000
     309 -> 315       -0.17557
     311 -> 313        0.68731
     309 <- 315       -0.10763
 This state for optimization and/or second-order correction.
 Total Energy, E(TD-HF/TD-DFT) =  -4069.77118900
 Copying the excited state density for this state as the 1-particle RhoCI density.

 Excited State   2:      Singlet-A      1.7451 eV  710.48 nm  f=0.3924  <S**2>=0.000
     310 -> 316       -0.18611
     312 -> 314        0.68383
     310 <- 316       -0.10700

 Excited State   3:      Singlet-A      2.1918 eV  565.68 nm  f=0.1388  <S**2>=0.000
     309 -> 313        0.65684
     311 -> 315        0.24836

 Excited State   4:      Singlet-A      2.2617 eV  548.19 nm  f=0.1158  <S**2>=0.000
     310 -> 314        0.64504
     312 -> 316        0.27672

 Excited State   5:      Singlet-A      3.0653 eV  404.48 nm  f=0.0000  <S**2>=0.000
     312 -> 313        0.70711

 The electronic state is 1-A.
 Alpha  occ. eigenvalues --  -46.89549 -46.88720 -19.25801 -19.25147 -19.20429
 Alpha  occ. eigenvalues --  -19.19610 -19.19446 -19.19283 -19.18849 -19.18405
 Alpha  occ. eigenvalues --  -14.42258 -14.42116 -14.41926 -14.41074 -14.39777
 Alpha  occ. eigenvalues --  -14.39235 -14.39159 -14.39152 -10.39796 -10.38798
 Alpha  occ. eigenvalues --  -10.36181 -10.35160 -10.34524 -10.34380 -10.31830
 Alpha  occ. eigenvalues --  -10.31812 -10.31533 -10.31091 -10.30780 -10.30764
 Alpha  occ. eigenvalues --  -10.30760 -10.30645 -10.30589 -10.30373 -10.30245
 Alpha  occ. eigenvalues --  -10.29975 -10.29967 -10.29664 -10.29633 -10.29631
 Alpha  occ. eigenvalues --  -10.29357 -10.29166 -10.28712 -10.28690 -10.28681
 Alpha  occ. eigenvalues --  -10.28572 -10.28408 -10.28191 -10.28035 -10.28031
 Alpha  occ. eigenvalues --  -10.28002 -10.27977 -10.27896 -10.27770 -10.27752
 Alpha  occ. eigenvalues --  -10.27657 -10.27612 -10.27519 -10.27513 -10.27438
 Alpha  occ. eigenvalues --  -10.27399 -10.27288 -10.27114 -10.27048 -10.27035
 Alpha  occ. eigenvalues --  -10.26993 -10.26973 -10.26652 -10.26558 -10.26514
 Alpha  occ. eigenvalues --  -10.26364 -10.26278 -10.26205 -10.26178 -10.26004
 Alpha  occ. eigenvalues --  -10.26003 -10.25969 -10.25961 -10.25849 -10.25613
 Alpha  occ. eigenvalues --  -10.25303 -10.25285 -10.25142 -10.25068 -10.25047
 Alpha  occ. eigenvalues --  -10.24309  -3.17951  -3.17283  -1.92834  -1.92420
 Alpha  occ. eigenvalues --   -1.92245  -1.92170  -1.91752  -1.91571  -1.16848
 Alpha  occ. eigenvalues --   -1.15694  -1.11674  -1.11073  -1.10411  -1.10314
 Alpha  occ. eigenvalues --   -1.08785  -1.07626  -1.05192  -1.04985  -1.04295
 Alpha  occ. eigenvalues --   -1.03839  -1.03796  -1.03362  -1.02455  -1.02003
 Alpha  occ. eigenvalues --   -0.93836  -0.92365  -0.89448  -0.88884  -0.88817
 Alpha  occ. eigenvalues --   -0.88578  -0.88261  -0.88224  -0.87747  -0.87498
 Alpha  occ. eigenvalues --   -0.87235  -0.86549  -0.86336  -0.86213  -0.84417
 Alpha  occ. eigenvalues --   -0.84081  -0.83639  -0.83502  -0.82512  -0.82419
 Alpha  occ. eigenvalues --   -0.81552  -0.81216  -0.80940  -0.80869  -0.80426
 Alpha  occ. eigenvalues --   -0.80172  -0.78526  -0.78384  -0.77609  -0.77426
 Alpha  occ. eigenvalues --   -0.76768  -0.76599  -0.76170  -0.76167  -0.75229
 Alpha  occ. eigenvalues --   -0.74876  -0.73109  -0.72496  -0.71814  -0.71770
 Alpha  occ. eigenvalues --   -0.70065  -0.69372  -0.69203  -0.69177  -0.68370
 Alpha  occ. eigenvalues --   -0.68083  -0.67306  -0.67019  -0.65489  -0.65386
 Alpha  occ. eigenvalues --   -0.65327  -0.65162  -0.64841  -0.64455  -0.64446
 Alpha  occ. eigenvalues --   -0.64024  -0.62504  -0.62284  -0.60418  -0.60084
 Alpha  occ. eigenvalues --   -0.59724  -0.59462  -0.59392  -0.59290  -0.58757
 Alpha  occ. eigenvalues --   -0.58649  -0.58256  -0.58131  -0.57542  -0.57364
 Alpha  occ. eigenvalues --   -0.56566  -0.55992  -0.55743  -0.55519  -0.55374
 Alpha  occ. eigenvalues --   -0.55249  -0.55228  -0.54612  -0.54583  -0.54202
 Alpha  occ. eigenvalues --   -0.54028  -0.53431  -0.53262  -0.53154  -0.52948
 Alpha  occ. eigenvalues --   -0.52703  -0.52677  -0.52560  -0.52444  -0.52133
 Alpha  occ. eigenvalues --   -0.52109  -0.51891  -0.51499  -0.51266  -0.51146
 Alpha  occ. eigenvalues --   -0.51029  -0.50769  -0.50614  -0.50298  -0.50036
 Alpha  occ. eigenvalues --   -0.49936  -0.49804  -0.49641  -0.49512  -0.49469
 Alpha  occ. eigenvalues --   -0.49388  -0.49325  -0.49233  -0.49040  -0.48988
 Alpha  occ. eigenvalues --   -0.48836  -0.48510  -0.48412  -0.48293  -0.47945
 Alpha  occ. eigenvalues --   -0.47916  -0.47581  -0.47514  -0.47475  -0.47109
 Alpha  occ. eigenvalues --   -0.47012  -0.46673  -0.46437  -0.46137  -0.46130
 Alpha  occ. eigenvalues --   -0.46104  -0.46015  -0.45902  -0.45751  -0.45600
 Alpha  occ. eigenvalues --   -0.45382  -0.45312  -0.45108  -0.45090  -0.44983
 Alpha  occ. eigenvalues --   -0.44748  -0.44523  -0.44440  -0.44222  -0.44093
 Alpha  occ. eigenvalues --   -0.44060  -0.43868  -0.43691  -0.43680  -0.43391
 Alpha  occ. eigenvalues --   -0.43351  -0.43336  -0.43258  -0.43060  -0.42916
 Alpha  occ. eigenvalues --   -0.42904  -0.42589  -0.42442  -0.42419  -0.42405
 Alpha  occ. eigenvalues --   -0.42315  -0.42077  -0.41992  -0.41861  -0.41672
 Alpha  occ. eigenvalues --   -0.41468  -0.41373  -0.40927  -0.40785  -0.40321
 Alpha  occ. eigenvalues --   -0.40268  -0.39738  -0.39624  -0.39087  -0.38855
 Alpha  occ. eigenvalues --   -0.38490  -0.38332  -0.38070  -0.37861  -0.37844
 Alpha  occ. eigenvalues --   -0.37761  -0.37341  -0.37028  -0.36728  -0.36371
 Alpha  occ. eigenvalues --   -0.36368  -0.36240  -0.34942  -0.34408  -0.34283
 Alpha  occ. eigenvalues --   -0.34087  -0.33402  -0.33176  -0.31622  -0.31455
 Alpha  occ. eigenvalues --   -0.31225  -0.31104  -0.30821  -0.30396  -0.30306
 Alpha  occ. eigenvalues --   -0.30156  -0.30065  -0.29195  -0.24182  -0.23806
 Alpha  occ. eigenvalues --   -0.21586  -0.21088
 Alpha virt. eigenvalues --   -0.09177  -0.08397  -0.01434  -0.01343   0.00422
 Alpha virt. eigenvalues --    0.00553   0.01682   0.01886   0.02506   0.02543
 Alpha virt. eigenvalues --    0.05135   0.05304   0.05531   0.05667   0.06277

 Mulliken charges:
               1
     1  Mg   0.838654
     2  C    0.003037
     3  C   -0.061080
     4  C   -0.104743
     5  C   -0.054747
     6  N   -0.218645
     7  C   -0.092770
     8  C   -0.042345
     9  C   -0.061310
    10  C    0.011013
    11  C    0.050364
    12  C    0.024643
    13  C   -0.040713
    14  H    0.041631
    15  N   -0.391186
    16  C    0.155149
    17  C   -0.142612
    18  C   -0.042373
    19  C    0.127167
    20  C    0.119220
    21  C    0.040011
    22  O   -0.203568
    23  C    0.039532
    24  N   -0.333281
    25  C    0.048213
    26  C   -0.057756
    27  C    0.015422
    28  C   -0.039427
    29  C    0.082150
    30  C    0.031335
    31  C    0.039679
    32  N   -0.320471
    33  C    0.146504
    34  C   -0.155213
    35  C   -0.024217
    36  C    0.123347
    37  C    0.118392
    38  C    0.036013
    39  O   -0.149057
    40  C   -0.004664
    41  C    0.202108
    42  O   -0.198443
    43  O   -0.329894
    44  C    0.164273
    45  H   -0.038341
    46  H   -0.000484
    47  H   -0.043700
    48  H    0.025010
    49  H    0.023766
    50  H    0.021432
    51  H    0.003555
    52  H    0.029307
    53  H    0.011285
    54  H    0.008512
    55  H    0.027371
    56  H    0.016221
    57  H    0.020647
    58  H    0.026113
    59  H    0.028298
    60  H    0.036704
    61  H    0.028230
    62  H    0.021119
    63  H    0.014660
    64  H    0.014995
    65  H    0.028222
    66  H    0.010036
    67  H    0.017436
    68  H   -0.003781
    69  H    0.009887
    70  H    0.011553
    71  H    0.012337
    72  H    0.011289
    73  H    0.009266
    74  H    0.018010
    75  H    0.040672
    76  H    0.048861
    77  H    0.031857
    78  H    0.052076
    79  H    0.038236
    80  Mg   0.813121
    81  C   -0.023631
    82  C   -0.077241
    83  C   -0.062028
    84  C   -0.064331
    85  N   -0.302475
    86  C   -0.035107
    87  C    0.006892
    88  C   -0.058623
    89  C    0.050776
    90  C    0.068879
    91  C    0.056695
    92  C   -0.088705
    93  H    0.008350
    94  N   -0.363099
    95  C    0.161202
    96  C   -0.116991
    97  C   -0.041656
    98  C    0.130656
    99  C    0.062502
   100  C   -0.022259
   101  O   -0.176342
   102  C    0.054559
   103  N   -0.263258
   104  C    0.030053
   105  C   -0.035225
   106  C   -0.014440
   107  C    0.032484
   108  C    0.066534
   109  C    0.004397
   110  C   -0.014670
   111  N   -0.320776
   112  C    0.065161
   113  C   -0.162604
   114  C   -0.035077
   115  C    0.140049
   116  C    0.116967
   117  C    0.069106
   118  O   -0.136688
   119  C    0.003809
   120  C    0.181205
   121  O   -0.201517
   122  O   -0.351205
   123  C    0.165227
   124  H   -0.034091
   125  H   -0.000972
   126  H   -0.031185
   127  H    0.018631
   128  H    0.008127
   129  H    0.008567
   130  H    0.022441
   131  H    0.009356
   132  H    0.019159
   133  H    0.009153
   134  H    0.046124
   135  H    0.015635
   136  H    0.027189
   137  H    0.003884
   138  H    0.033283
   139  H    0.021869
   140  H    0.036825
   141  H    0.022619
   142  H    0.016587
   143  H    0.012836
   144  H    0.017349
   145  H    0.035550
   146  H    0.016221
   147  H    0.020204
   148  H    0.002075
   149  H    0.023684
   150  H    0.021703
   151  H    0.021059
   152  H    0.029139
   153  H    0.019748
   154  H    0.036354
   155  H    0.033844
   156  H    0.035892
   157  H    0.044050
   158  H    0.056415
 Sum of Mulliken charges =  -0.00000

 Dipole moment (field-independent basis, Debye):
    X=             -5.6339    Y=              0.0835    Z=              4.5264  Tot=              7.2275
 Quadrupole moment (field-independent basis, Debye-Ang):
   XX=           -520.0393   YY=           -512.7427   ZZ=           -480.3774
   XY=            -13.6643   XZ=            -28.9425   YZ=             53.3633

 Normal termination of Gaussian 16 at Tue Aug 31 21:52:29 2021.
