 Gaussian 16, Revision A.03,
 Gaussian 16:  ES64L-G16RevA.03 25-Dec-2016

 -----------------------------------
 #p cam-b3lyp/Def2SVP td=(nstates=5)
 -----------------------------------

 --------------------------------
 TDDFT excited states in gaussian
 --------------------------------
 Symbolic Z-matrix:
 Charge =  0 Multiplicity = 1

                         Standard orientation:
 ---------------------------------------------------------------------
 Center     Atomic      Atomic             Coordinates (Angstroms)
 Number     Number       Type             X           Y           Z
 ---------------------------------------------------------------------
      1         12           0       23.573480   -0.617338    0.094755
      2          6           0       21.548788    1.975351    1.068594
      3          6           0       25.951558    1.671831   -0.833619
      4          6           0       25.588666   -3.219179   -0.999596
      5          6           0       20.977251   -2.851212    0.633054
      6          7           0       23.740165    1.620029    0.057726
      7          6           0       22.785527    2.428393    0.606032
      8          6           0       23.191674    3.821435    0.558568
      9          6           0       24.495027    3.837834   -0.224390
     10          6           0       24.775960    2.281426   -0.398857
     11          6           0       24.546862    4.611352   -1.587079
     12          6           0       23.306770    4.440922    1.992974
     13          6           0       22.953730    5.961038    2.143240
     14          1           0       23.180343    6.861646    0.913123
     15          7           0       25.560969   -0.727168   -0.690609
     16          6           0       26.368366    0.360051   -0.977810
     17          6           0       27.650230   -0.128771   -1.524948
     18          6           0       27.561831   -1.586656   -1.575470
     19          6           0       26.220591   -1.911915   -1.059909
     20          6           0       28.794403    0.764157   -1.976463
     21          6           0       28.654276   -2.563866   -1.942124
     22          8           0       28.427929   -3.783433   -1.853435
     23          6           0       29.996392   -2.182196   -2.444231
     24          7           0       23.309022   -2.729255   -0.228330
     25          6           0       24.292380   -3.544580   -0.619997
     26          6           0       23.849555   -5.014575   -0.532015
     27          6           0       22.422540   -4.963584    0.243716
     28          6           0       22.259081   -3.403541    0.291836
     29          6           0       23.804424   -5.680041   -1.942011
     30          6           0       22.418766   -5.562411    1.676965
     31          6           0       21.608874   -6.855199    1.856292
     32          7           0       21.605583   -0.508857    0.660338
     33          6           0       20.641485   -1.505540    0.828174
     34          6           0       19.367439   -0.909657    1.288032
     35          6           0       19.719049    0.458647    1.365079
     36          6           0       21.070209    0.647281    0.969067
     37          6           0       18.128616   -1.579400    1.629012
     38          6           0       19.221084    1.778024    1.806016
     39          8           0       18.180310    2.112819    2.306457
     40          6           0       20.383762    2.810015    1.584990
     41          6           0       19.871914    3.917880    0.762544
     42          8           0       19.633019    3.744494   -0.443440
     43          8           0       19.827281    5.125014    1.390238
     44          6           0       19.528666    6.315380    0.600293
     45          1           0       26.688045    2.426322   -1.117872
     46          1           0       26.223736   -4.020754   -1.383137
     47          1           0       20.234765   -3.602661    0.909261
     48          1           0       22.432834    4.371335    0.000841
     49          1           0       25.333207    4.136000    0.406488
     50          1           0       23.685958    5.159476   -1.971216
     51          1           0       24.840987    3.903102   -2.361271
     52          1           0       25.366303    5.327895   -1.648659
     53          1           0       24.290212    4.220673    2.408398
     54          1           0       22.734095    3.825768    2.686788
     55          1           0       23.509439    6.392181    2.976428
     56          1           0       21.890194    6.135779    2.303183
     57          1           0       28.640525    1.816374   -1.739659
     58          1           0       28.915112    0.729644   -3.059574
     59          1           0       29.686109    0.555895   -1.385474
     60          1           0       30.566455   -3.107129   -2.526190
     61          1           0       30.518299   -1.474379   -1.798924
     62          1           0       29.890588   -1.632538   -3.379686
     63          1           0       24.528247   -5.506024    0.165211
     64          1           0       21.609357   -5.381025   -0.349964
     65          1           0       24.321342   -6.638722   -1.986785
     66          1           0       24.272573   -5.038272   -2.688881
     67          1           0       22.739529   -5.746816   -2.166073
     68          1           0       22.041108   -4.872703    2.430876
     69          1           0       23.427210   -5.783914    2.027049
     70          1           0       21.581735   -7.399744    0.912381
     71          1           0       20.589026   -6.577536    2.120721
     72          1           0       22.042061   -7.376780    2.708763
     73          1           0       17.475369   -0.968150    2.251308
     74          1           0       18.278944   -2.530948    2.138593
     75          1           0       17.530420   -1.646376    0.720172
     76          1           0       20.600770    3.096769    2.614521
     77          1           0       18.518382    6.340270    0.190961
     78          1           0       20.289306    6.478463   -0.163147
     79          1           0       19.564423    7.194827    1.243062
     80         12           0      -23.582059   -0.655462    0.012863
     81          6           0      -22.647605    2.452893   -1.294642
     82          6           0      -23.809460    0.731259    3.128292
     83          6           0      -24.122673   -3.685406    1.224627
     84          6           0      -23.119921   -2.011987   -3.261689
     85          7           0      -23.208209    1.379182    0.807998
     86          6           0      -22.902870    2.531958    0.119108
     87          6           0      -23.071175    3.746272    1.013576
     88          6           0      -23.160788    3.113158    2.458226
     89          6           0      -23.505528    1.634960    2.069849
     90          6           0      -21.864570    3.216304    3.251888
     91          6           0      -24.246095    4.645876    0.482396
     92          6           0      -24.630047    5.797050    1.453014
     93          1           0      -23.520825    6.351832    2.322376
     94          7           0      -23.924495   -1.347966    1.847985
     95          6           0      -23.880443   -0.651134    3.048947
     96          6           0      -24.097723   -1.540107    4.203808
     97          6           0      -24.227510   -2.834478    3.612671
     98          6           0      -24.081167   -2.652254    2.170959
     99          6           0      -24.193719   -1.050122    5.600027
    100          6           0      -24.454040   -4.128708    4.350654
    101          8           0      -24.603172   -5.225968    3.744780
    102          6           0      -24.593524   -4.159928    5.848534
    103          7           0      -23.670350   -2.585574   -0.920131
    104          6           0      -23.915532   -3.647969   -0.152842
    105          6           0      -23.793128   -4.986714   -1.005428
    106          6           0      -23.418045   -4.436338   -2.492488
    107          6           0      -23.383677   -2.932113   -2.218902
    108          6           0      -22.686546   -5.905366   -0.342517
    109          6           0      -24.507143   -4.752552   -3.604704
    110          6           0      -24.381263   -6.137739   -4.301595
    111          7           0      -22.956520   -0.013285   -1.862462
    112          6           0      -22.920308   -0.625523   -3.143121
    113          6           0      -22.537523    0.414308   -4.195493
    114          6           0      -22.348644    1.613809   -3.516502
    115          6           0      -22.697686    1.311341   -2.104924
    116          6           0      -22.429008    0.223892   -5.675991
    117          6           0      -22.045360    3.021196   -3.630352
    118          8           0      -21.741986    3.728125   -4.596587
    119          6           0      -22.405727    3.679583   -2.207396
    120          6           0      -21.322135    4.602461   -1.698526
    121          8           0      -20.373661    4.237519   -1.057830
    122          8           0      -21.687467    5.957549   -1.864271
    123          6           0      -20.983225    6.950807   -1.039525
    124          1           0      -23.791735    1.307562    4.056054
    125          1           0      -24.286263   -4.685043    1.632952
    126          1           0      -22.860645   -2.374561   -4.258668
    127          1           0      -22.166579    4.346182    0.922479
    128          1           0      -23.979575    3.474967    3.080983
    129          1           0      -22.125993    3.736817    4.173082
    130          1           0      -21.113022    3.693788    2.623590
    131          1           0      -21.538961    2.257627    3.654939
    132          1           0      -24.960553    3.890558    0.156548
    133          1           0      -23.876323    5.078643   -0.446558
    134          1           0      -25.422635    5.353984    2.056071
    135          1           0      -25.021996    6.621641    0.857764
    136          1           0      -23.325201   -1.512608    6.068628
    137          1           0      -25.140559   -1.297756    6.079152
    138          1           0      -24.076513    0.014918    5.804222
    139          1           0      -25.483641   -3.599851    6.131776
    140          1           0      -23.634856   -3.707614    6.105478
    141          1           0      -24.605162   -5.144835    6.314536
    142          1           0      -24.821457   -5.344245   -0.939639
    143          1           0      -22.392080   -4.573765   -2.836607
    144          1           0      -22.201135   -5.470407    0.530978
    145          1           0      -21.898895   -6.116106   -1.066407
    146          1           0      -23.220733   -6.780059    0.027328
    147          1           0      -24.651409   -3.919178   -4.291698
    148          1           0      -25.459606   -4.791628   -3.077127
    149          1           0      -25.340561   -6.638324   -4.175057
    150          1           0      -23.525207   -6.661686   -3.876251
    151          1           0      -24.204855   -6.042191   -5.373237
    152          1           0      -23.295561    0.724111   -6.108936
    153          1           0      -22.408462   -0.839058   -5.919467
    154          1           0      -21.575245    0.670382   -6.185305
    155          1           0      -23.345544    4.211234   -2.353522
    156          1           0      -20.021595    7.088575   -1.533166
    157          1           0      -20.970178    6.645489    0.006954
    158          1           0      -21.593304    7.853248   -1.067580
 ---------------------------------------------------------------------

 SCF Done:  E(RCAM-B3LYP) =  -4069.86207247     A.U. after   19 cycles

 Excitation energies and oscillator strengths:

 Excited State   1:      Singlet-A      1.7141 eV  723.31 nm  f=0.3836  <S**2>=0.000
     309 -> 315       -0.19945
     312 -> 314        0.68037
     309 <- 315       -0.11163
 This state for optimization and/or second-order correction.
 Total Energy, E(TD-HF/TD-DFT) =  -4069.79908002
 Copying the excited state density for this state as the 1-particle RhoCI density.

 Excited State   2:      Singlet-A      1.7299 eV  716.72 nm  f=0.3900  <S**2>=0.000
     310 -> 316        0.18860
     311 -> 313        0.68241
     310 <- 316        0.10885

 Excited State   3:      Singlet-A      2.2550 eV  549.81 nm  f=0.0848  <S**2>=0.000
     310 -> 313        0.62548
     311 -> 316       -0.31649

 Excited State   4:      Singlet-A      2.2903 eV  541.35 nm  f=0.0346  <S**2>=0.000
     309 -> 314        0.58797
     312 -> 315        0.38617

 Excited State   5:      Singlet-A      3.0993 eV  400.04 nm  f=0.0000  <S**2>=0.000
     312 -> 313        0.70710

 The electronic state is 1-A.
 Alpha  occ. eigenvalues --  -46.88876 -46.88046 -19.25961 -19.23951 -19.20274
 Alpha  occ. eigenvalues --  -19.19288 -19.19158 -19.19033 -19.18367 -19.18357
 Alpha  occ. eigenvalues --  -14.42125 -14.41819 -14.41712 -14.41535 -14.39926
 Alpha  occ. eigenvalues --  -14.39852 -14.39481 -14.39235 -10.39548 -10.39394
 Alpha  occ. eigenvalues --  -10.35509 -10.35222 -10.34953 -10.34841 -10.32306
 Alpha  occ. eigenvalues --  -10.31733 -10.30905 -10.30891 -10.30730 -10.30638
 Alpha  occ. eigenvalues --  -10.30600 -10.30586 -10.30405 -10.30341 -10.30332
 Alpha  occ. eigenvalues --  -10.30290 -10.30096 -10.30088 -10.30007 -10.29910
 Alpha  occ. eigenvalues --  -10.29596 -10.29452 -10.29296 -10.29201 -10.29144
 Alpha  occ. eigenvalues --  -10.29080 -10.28684 -10.28516 -10.28385 -10.28273
 Alpha  occ. eigenvalues --  -10.28271 -10.28167 -10.28115 -10.27991 -10.27892
 Alpha  occ. eigenvalues --  -10.27757 -10.27713 -10.27683 -10.27588 -10.27551
 Alpha  occ. eigenvalues --  -10.27517 -10.27449 -10.27381 -10.27370 -10.27208
 Alpha  occ. eigenvalues --  -10.27137 -10.26978 -10.26880 -10.26595 -10.26475
 Alpha  occ. eigenvalues --  -10.26418 -10.26412 -10.26195 -10.26095 -10.26057
 Alpha  occ. eigenvalues --  -10.26056 -10.26007 -10.26001 -10.25961 -10.25739
 Alpha  occ. eigenvalues --  -10.25544 -10.25499 -10.25375 -10.25346 -10.25242
 Alpha  occ. eigenvalues --  -10.25126  -3.17299  -3.16728  -1.92220  -1.91738
 Alpha  occ. eigenvalues --   -1.91633  -1.91606  -1.91169  -1.91059  -1.16426
 Alpha  occ. eigenvalues --   -1.15449  -1.10937  -1.09090  -1.08911  -1.07782
 Alpha  occ. eigenvalues --   -1.07749  -1.07113  -1.05111  -1.04304  -1.04041
 Alpha  occ. eigenvalues --   -1.03443  -1.03366  -1.02773  -1.01351  -1.00947
 Alpha  occ. eigenvalues --   -0.92476  -0.91581  -0.89117  -0.88889  -0.88552
 Alpha  occ. eigenvalues --   -0.88270  -0.87804  -0.87698  -0.87539  -0.87183
 Alpha  occ. eigenvalues --   -0.86723  -0.86701  -0.86297  -0.86249  -0.84223
 Alpha  occ. eigenvalues --   -0.83935  -0.83555  -0.82913  -0.82315  -0.82167
 Alpha  occ. eigenvalues --   -0.81906  -0.81864  -0.81205  -0.80731  -0.80540
 Alpha  occ. eigenvalues --   -0.79977  -0.78939  -0.78426  -0.77545  -0.77394
 Alpha  occ. eigenvalues --   -0.77298  -0.76951  -0.76226  -0.75737  -0.74880
 Alpha  occ. eigenvalues --   -0.74519  -0.72586  -0.72042  -0.71497  -0.71444
 Alpha  occ. eigenvalues --   -0.69386  -0.69230  -0.68591  -0.68345  -0.68251
 Alpha  occ. eigenvalues --   -0.68018  -0.67040  -0.66910  -0.65826  -0.65486
 Alpha  occ. eigenvalues --   -0.65435  -0.65104  -0.65017  -0.64317  -0.63918
 Alpha  occ. eigenvalues --   -0.63739  -0.62714  -0.61239  -0.60612  -0.59839
 Alpha  occ. eigenvalues --   -0.59577  -0.59469  -0.59209  -0.58739  -0.58671
 Alpha  occ. eigenvalues --   -0.58212  -0.57770  -0.57487  -0.57277  -0.56748
 Alpha  occ. eigenvalues --   -0.56126  -0.56041  -0.55954  -0.55922  -0.55332
 Alpha  occ. eigenvalues --   -0.54709  -0.54497  -0.54213  -0.53964  -0.53928
 Alpha  occ. eigenvalues --   -0.53657  -0.53436  -0.53218  -0.52912  -0.52773
 Alpha  occ. eigenvalues --   -0.52486  -0.52404  -0.52205  -0.52184  -0.51875
 Alpha  occ. eigenvalues --   -0.51723  -0.51651  -0.51492  -0.51413  -0.51267
 Alpha  occ. eigenvalues --   -0.51156  -0.51130  -0.50806  -0.50456  -0.50196
 Alpha  occ. eigenvalues --   -0.50038  -0.49950  -0.49831  -0.49509  -0.49401
 Alpha  occ. eigenvalues --   -0.49356  -0.49295  -0.48980  -0.48979  -0.48857
 Alpha  occ. eigenvalues --   -0.48527  -0.48478  -0.48462  -0.48101  -0.48081
 Alpha  occ. eigenvalues --   -0.48028  -0.47938  -0.47459  -0.47360  -0.47186
 Alpha  occ. eigenvalues --   -0.47093  -0.46851  -0.46686  -0.46275  -0.46154
 Alpha  occ. eigenvalues --   -0.46049  -0.45857  -0.45705  -0.45693  -0.45569
 Alpha  occ. eigenvalues --   -0.45500  -0.45187  -0.45179  -0.45133  -0.44907
 Alpha  occ. eigenvalues --   -0.44830  -0.44623  -0.44517  -0.44314  -0.44151
 Alpha  occ. eigenvalues --   -0.43965  -0.43791  -0.43587  -0.43478  -0.43441
 Alpha  occ. eigenvalues --   -0.43152  -0.43096  -0.43044  -0.42998  -0.42868
 Alpha  occ. eigenvalues --   -0.42607  -0.42524  -0.42316  -0.42131  -0.42073
 Alpha  occ. eigenvalues --   -0.41829  -0.41487  -0.41475  -0.41258  -0.41142
 Alpha  occ. eigenvalues --   -0.40898  -0.40884  -0.40675  -0.40323  -0.40305
 Alpha  occ. eigenvalues --   -0.40159  -0.39980  -0.39526  -0.39199  -0.39048
 Alpha  occ. eigenvalues --   -0.38472  -0.38194  -0.38175  -0.37960  -0.37463
 Alpha  occ. eigenvalues --   -0.37207  -0.36701  -0.36624  -0.36611  -0.36246
 Alpha  occ. eigenvalues --   -0.36011  -0.35865  -0.34507  -0.34117  -0.34027
 Alpha  occ. eigenvalues --   -0.33957  -0.33149  -0.33102  -0.31287  -0.31122
 Alpha  occ. eigenvalues --   -0.30903  -0.30882  -0.30682  -0.30487  -0.30462
 Alpha  occ. eigenvalues --   -0.30051  -0.30002  -0.29493  -0.23957  -0.23870
 Alpha  occ. eigenvalues --   -0.20791  -0.20400
 Alpha virt. eigenvalues --   -0.08278  -0.07859  -0.02111  -0.01710  -0.00184
 Alpha virt. eigenvalues --    0.00557   0.02197   0.02557   0.03103   0.03286
 Alpha virt. eigenvalues --    0.04480   0.04518   0.04983   0.05248   0.05904

 Mulliken charges:
               1
     1  Mg   0.814769
     2  C   -0.017251
     3  C   -0.070450
     4  C   -0.047043
     5  C   -0.073578
     6  N   -0.243887
     7  C   -0.051332
     8  C   -0.008509
     9  C    0.010438
    10  C   -0.041604
    11  C    0.066174
    12  C    0.061584
    13  C   -0.064230
    14  H    0.001618
    15  N   -0.381019
    16  C    0.179970
    17  C   -0.151785
    18  C   -0.018615
    19  C    0.094794
    20  C    0.107330
    21  C   -0.005725
    22  O   -0.232222
    23  C    0.074377
    24  N   -0.261017
    25  C    0.046050
    26  C   -0.044096
    27  C   -0.048516
    28  C    0.017413
    29  C    0.079029
    30  C    0.027469
    31  C    0.003023
    32  N   -0.356634
    33  C    0.120865
    34  C   -0.150007
    35  C   -0.006742
    36  C    0.104755
    37  C    0.121495
    38  C    0.014253
    39  O   -0.146065
    40  C    0.025548
    41  C    0.218361
    42  O   -0.248906
    43  O   -0.321524
    44  C    0.184510
    45  H   -0.049204
    46  H    0.001131
    47  H   -0.028717
    48  H    0.022853
    49  H    0.008017
    50  H    0.027380
    51  H    0.010399
    52  H    0.004931
    53  H   -0.006438
    54  H    0.001660
    55  H    0.031389
    56  H    0.046811
    57  H    0.002017
    58  H    0.041590
    59  H    0.029942
    60  H    0.037753
    61  H    0.020613
    62  H    0.031151
    63  H    0.014336
    64  H    0.014683
    65  H    0.025702
    66  H    0.024987
    67  H    0.008102
    68  H    0.007531
    69  H    0.001689
    70  H    0.019693
    71  H    0.010874
    72  H    0.018611
    73  H    0.025109
    74  H    0.026366
    75  H    0.033653
    76  H    0.036804
    77  H    0.048287
    78  H    0.035142
    79  H    0.032084
    80  Mg   0.842059
    81  C   -0.020535
    82  C   -0.090078
    83  C   -0.079643
    84  C   -0.078367
    85  N   -0.250689
    86  C   -0.044711
    87  C   -0.012974
    88  C   -0.082152
    89  C   -0.014513
    90  C    0.091557
    91  C    0.015919
    92  C   -0.044479
    93  H    0.032174
    94  N   -0.411441
    95  C    0.200966
    96  C   -0.144020
    97  C   -0.033981
    98  C    0.153143
    99  C    0.122200
   100  C   -0.007199
   101  O   -0.241939
   102  C    0.080567
   103  N   -0.275374
   104  C    0.019543
   105  C   -0.035733
   106  C    0.002850
   107  C    0.012047
   108  C    0.060823
   109  C    0.002623
   110  C    0.023783
   111  N   -0.368238
   112  C    0.111849
   113  C   -0.177372
   114  C    0.032718
   115  C    0.112085
   116  C    0.110966
   117  C    0.072033
   118  O   -0.179431
   119  C   -0.071631
   120  C    0.225347
   121  O   -0.190664
   122  O   -0.375636
   123  C    0.183813
   124  H   -0.034864
   125  H   -0.005899
   126  H   -0.023957
   127  H    0.008545
   128  H    0.003662
   129  H    0.006436
   130  H    0.036729
   131  H    0.014657
   132  H    0.016663
   133  H    0.015046
   134  H    0.036657
   135  H    0.035913
   136  H    0.032173
   137  H    0.035675
   138  H    0.012024
   139  H    0.044580
   140  H    0.019946
   141  H    0.028093
   142  H    0.024678
   143  H    0.018554
   144  H    0.031740
   145  H    0.016272
   146  H    0.027656
   147  H    0.011355
   148  H   -0.004955
   149  H    0.019956
   150  H    0.018644
   151  H    0.014661
   152  H    0.037860
   153  H    0.005623
   154  H    0.037484
   155  H    0.062994
   156  H    0.049904
   157  H    0.033275
   158  H    0.033959
 Sum of Mulliken charges =  -0.00000

 Dipole moment (field-independent basis, Debye):
    X=              0.7996    Y=              2.3431    Z=              4.5422  Tot=              5.1731
 Quadrupole moment (field-independent basis, Debye-Ang):
   XX=           -262.9321   YY=           -488.5329   ZZ=           -499.6804
   XY=             41.2282   XZ=            -62.7036   YZ=             24.7556

 Normal termination of Gaussian 16 at Thu Sep  2 05:32:28 2021.
