 Gaussian 16, Revision A.03,
 Gaussian 16:  ES64L-G16RevA.03 25-Dec-2016

 ----------------------------------------------------------
 #p cam-b3lyp/Def2SVP td=(nstates=5) density=(transition=1)
 ----------------------------------------------------------

 --------------------------------
 TDDFT excited states in gaussian
 --------------------------------
 Symbolic Z-matrix:
 Charge =  0 Multiplicity = 1

                         Standard orientation:
 ---------------------------------------------------------------------
 Center     Atomic      Atomic             Coordinates (Angstroms)
 Number     Number       Type             X           Y           Z
 ---------------------------------------------------------------------
      1         12           0      -25.537220    0.488660    0.485354
      2          6           0      -25.720175   -1.964234   -1.858860
      3          6           0      -25.050763   -1.729585    3.082626
      4          6           0      -25.588568    3.111591    2.685573
      5          6           0      -26.477318    2.870272   -2.071016
      6          7           0      -25.613464   -1.600311    0.602131
      7          6           0      -25.440348   -2.445427   -0.544907
      8          6           0      -25.020447   -3.802408   -0.142380
      9          6           0      -25.232623   -3.740366    1.436651
     10          6           0      -25.312677   -2.269496    1.779757
     11          6           0      -26.555538   -4.514671    1.929132
     12          6           0      -23.630280   -4.246512   -0.692635
     13          6           0      -23.577624   -5.633077   -1.248633
     14          1           0      -24.389768   -6.731122   -0.455157
     15          7           0      -25.273017    0.671970    2.589912
     16          6           0      -25.104869   -0.390928    3.426773
     17          6           0      -24.949940    0.122628    4.744534
     18          6           0      -25.010149    1.569605    4.682472
     19          6           0      -25.233130    1.892884    3.233462
     20          6           0      -24.846768   -0.799019    5.979418
     21          6           0      -24.856164    2.645550    5.711538
     22          8           0      -25.028887    3.862763    5.582617
     23          6           0      -24.362207    2.153747    7.124536
     24          7           0      -26.083781    2.724278    0.360287
     25          6           0      -25.918374    3.544652    1.367826
     26          6           0      -25.979152    5.010157    0.942103
     27          6           0      -26.264167    4.910934   -0.583780
     28          6           0      -26.297966    3.398485   -0.794409
     29          6           0      -27.098079    5.866225    1.726976
     30          6           0      -25.072721    5.612145   -1.373703
     31          6           0      -23.644730    5.012799   -1.361899
     32          7           0      -26.166363    0.458975   -1.523252
     33          6           0      -26.447399    1.489685   -2.400105
     34          6           0      -26.568120    0.875720   -3.738112
     35          6           0      -26.292521   -0.455310   -3.643543
     36          6           0      -26.051176   -0.657664   -2.236255
     37          6           0      -27.074857    1.591740   -4.942404
     38          6           0      -26.161761   -1.729027   -4.350688
     39          8           0      -26.309013   -2.013515   -5.527470
     40          6           0      -25.791278   -2.748003   -3.185448
     41          6           0      -26.888365   -3.733677   -3.104772
     42          8           0      -28.101138   -3.517330   -2.936412
     43          8           0      -26.258202   -4.950390   -3.270175
     44          6           0      -27.121340   -6.117019   -3.043868
     45          1           0      -24.842685   -2.393876    3.923803
     46          1           0      -25.474531    3.910124    3.422529
     47          1           0      -26.684592    3.584162   -2.870141
     48          1           0      -25.759497   -4.459651   -0.602322
     49          1           0      -24.350189   -4.170937    1.908981
     50          1           0      -26.980826   -5.176491    1.174661
     51          1           0      -27.324145   -3.750633    2.044867
     52          1           0      -26.250014   -4.955744    2.877018
     53          1           0      -22.886776   -4.192595    0.102649
     54          1           0      -23.448698   -3.524428   -1.488578
     55          1           0      -22.574325   -6.057227   -1.242132
     56          1           0      -23.842681   -5.843318   -2.284893
     57          1           0      -23.883167   -1.285706    6.129665
     58          1           0      -25.672493   -1.492075    5.819179
     59          1           0      -24.925753   -0.257708    6.921959
     60          1           0      -25.180490    1.634192    7.623172
     61          1           0      -23.878785    2.994352    7.621982
     62          1           0      -23.506463    1.479926    7.077771
     63          1           0      -24.995914    5.454586    1.094609
     64          1           0      -27.191748    5.396266   -0.887476
     65          1           0      -26.550992    6.498554    2.427149
     66          1           0      -27.752986    5.200990    2.290632
     67          1           0      -27.733768    6.558203    1.176031
     68          1           0      -24.933654    6.670536   -1.153917
     69          1           0      -25.414013    5.496026   -2.402876
     70          1           0      -23.497358    4.738193   -2.406488
     71          1           0      -23.545551    4.175115   -0.672711
     72          1           0      -22.871521    5.718913   -1.059251
     73          1           0      -26.527650    1.109079   -5.751573
     74          1           0      -26.891901    2.665823   -4.906075
     75          1           0      -28.089032    1.238456   -5.124157
     76          1           0      -24.917340   -3.216879   -3.636876
     77          1           0      -26.469733   -6.940862   -3.336497
     78          1           0      -27.923230   -6.039911   -3.778126
     79          1           0      -27.599106   -6.171160   -2.065433
     80         12           0       25.244908    0.682063   -0.352986
     81          6           0       26.650761   -2.149851    1.327855
     82          6           0       23.996090   -1.425987   -2.759329
     83          6           0       24.287192    3.311466   -2.244240
     84          6           0       27.373674    2.698832    1.607205
     85          7           0       25.321583   -1.521657   -0.643701
     86          6           0       25.877551   -2.511985    0.181358
     87          6           0       25.542101   -3.868907   -0.382491
     88          6           0       25.179207   -3.529449   -1.889524
     89          6           0       24.854724   -2.010103   -1.786856
     90          6           0       26.446811   -3.822329   -2.768876
     91          6           0       24.474933   -4.664760    0.448839
     92          6           0       24.876650   -6.045280    0.597419
     93          1           0       24.063724   -6.873827    1.714283
     94          7           0       24.118375    0.817306   -2.160819
     95          6           0       23.675325   -0.157030   -2.964357
     96          6           0       22.875540    0.414395   -4.003889
     97          6           0       22.949488    1.787685   -3.901511
     98          6           0       23.798386    2.071395   -2.653785
     99          6           0       22.261542   -0.449765   -5.150769
    100          6           0       22.246472    2.864841   -4.752926
    101          8           0       22.467551    4.027219   -4.524974
    102          6           0       21.224873    2.480051   -5.796942
    103          7           0       25.993815    2.684803   -0.468029
    104          6           0       25.303438    3.590829   -1.265588
    105          6           0       25.656987    4.995816   -0.900295
    106          6           0       26.637433    4.809105    0.358215
    107          6           0       26.632937    3.313352    0.569150
    108          6           0       26.207115    5.778623   -2.044340
    109          6           0       26.279452    5.629359    1.716181
    110          6           0       27.264584    6.609967    2.217445
    111          7           0       26.688880    0.409028    1.199374
    112          6           0       27.449243    1.344496    1.864190
    113          6           0       28.256204    0.612714    2.934773
    114          6           0       27.889395   -0.744590    2.837762
    115          6           0       26.972690   -0.823559    1.731425
    116          6           0       29.267753    1.285143    3.872931
    117          6           0       28.229638   -2.039762    3.343958
    118          8           0       29.011014   -2.371215    4.263957
    119          6           0       27.580385   -3.025454    2.287946
    120          6           0       26.900548   -4.144551    3.132783
    121          8           0       25.671383   -4.136062    3.328554
    122          8           0       27.818976   -5.077477    3.484787
    123          6           0       27.188057   -6.029309    4.462569
    124          1           0       23.411333   -2.090416   -3.399472
    125          1           0       23.974533    4.179883   -2.828952
    126          1           0       27.988066    3.244920    2.325888
    127          1           0       26.485526   -4.413037   -0.420696
    128          1           0       24.351532   -4.137701   -2.252599
    129          1           0       27.236962   -3.080439   -2.655973
    130          1           0       26.136471   -3.920919   -3.808234
    131          1           0       26.852496   -4.793573   -2.484719
    132          1           0       23.588265   -4.732885   -0.181912
    133          1           0       24.228600   -4.163127    1.384974
    134          1           0       25.884745   -6.119689    1.005582
    135          1           0       24.763457   -6.524180   -0.375490
    136          1           0       21.202287   -0.197472   -5.102318
    137          1           0       22.353941   -1.527109   -5.014138
    138          1           0       22.744852   -0.206208   -6.096822
    139          1           0       20.897511    3.358054   -6.353870
    140          1           0       20.481858    2.090158   -5.101299
    141          1           0       21.672303    1.728016   -6.446762
    142          1           0       24.699328    5.401932   -0.574090
    143          1           0       27.621841    5.147219    0.035569
    144          1           0       25.425732    6.501084   -2.276693
    145          1           0       26.308893    5.188420   -2.954929
    146          1           0       27.165542    6.265829   -1.863575
    147          1           0       26.252122    4.831561    2.458338
    148          1           0       25.273048    6.030224    1.603129
    149          1           0       27.647475    6.319360    3.195386
    150          1           0       26.558188    7.425534    2.368404
    151          1           0       27.999894    6.904585    1.467456
    152          1           0       30.235454    1.179448    3.383817
    153          1           0       29.303057    0.815008    4.855650
    154          1           0       28.965530    2.319716    4.035649
    155          1           0       28.443023   -3.390769    1.732396
    156          1           0       27.044493   -5.628395    5.465809
    157          1           0       27.704929   -6.982410    4.569746
    158          1           0       26.232963   -6.310100    4.018208
 ---------------------------------------------------------------------

 SCF Done:  E(RCAM-B3LYP) =  -4069.77484273     A.U. after   19 cycles

 Excitation energies and oscillator strengths:

 Excited State   1:      Singlet-A      1.6991 eV  729.69 nm  f=0.3756  <S**2>=0.000
     309 -> 316        0.18621
     311 -> 313        0.68408
     309 <- 316        0.10902
 This state for optimization and/or second-order correction.
 Total Energy, E(TD-HF/TD-DFT) =  -4069.71240087
 Copying the excited state density for this state as the 1-particle RhoCI density.

 Excited State   2:      Singlet-A      1.7187 eV  721.38 nm  f=0.3604  <S**2>=0.000
     310 -> 315       -0.18765
     312 -> 314        0.68229
     310 <- 315       -0.10717

 Excited State   3:      Singlet-A      2.2666 eV  547.00 nm  f=0.0452  <S**2>=0.000
     309 -> 313        0.60927
     311 -> 316       -0.34928

 Excited State   4:      Singlet-A      2.2689 eV  546.46 nm  f=0.0059  <S**2>=0.000
     310 -> 314        0.54882
     312 -> 315        0.43684

 Excited State   5:      Singlet-A      3.0011 eV  413.13 nm  f=0.0000  <S**2>=0.000
     312 -> 313        0.70711

 The electronic state is 1-A.
 Alpha  occ. eigenvalues --  -46.89437 -46.89282 -19.26165 -19.25682 -19.20287
 Alpha  occ. eigenvalues --  -19.19763 -19.19584 -19.19529 -19.19494 -19.18753
 Alpha  occ. eigenvalues --  -14.42323 -14.42274 -14.42223 -14.41920 -14.39533
 Alpha  occ. eigenvalues --  -14.39513 -14.39372 -14.39159 -10.39726 -10.39550
 Alpha  occ. eigenvalues --  -10.35736 -10.35683 -10.35439 -10.34913 -10.32012
 Alpha  occ. eigenvalues --  -10.31863 -10.31804 -10.31540 -10.31379 -10.31313
 Alpha  occ. eigenvalues --  -10.31212 -10.30934 -10.30900 -10.30486 -10.30366
 Alpha  occ. eigenvalues --  -10.30207 -10.29925 -10.29620 -10.29266 -10.29180
 Alpha  occ. eigenvalues --  -10.29116 -10.29010 -10.28974 -10.28848 -10.28775
 Alpha  occ. eigenvalues --  -10.28668 -10.28623 -10.28365 -10.28363 -10.28161
 Alpha  occ. eigenvalues --  -10.28160 -10.28118 -10.28113 -10.28049 -10.27918
 Alpha  occ. eigenvalues --  -10.27870 -10.27812 -10.27787 -10.27615 -10.27589
 Alpha  occ. eigenvalues --  -10.27524 -10.27444 -10.27408 -10.27381 -10.27375
 Alpha  occ. eigenvalues --  -10.27357 -10.27021 -10.26941 -10.26618 -10.26522
 Alpha  occ. eigenvalues --  -10.26427 -10.26393 -10.26297 -10.26258 -10.26255
 Alpha  occ. eigenvalues --  -10.25957 -10.25884 -10.25877 -10.25871 -10.25601
 Alpha  occ. eigenvalues --  -10.25522 -10.25365 -10.25108 -10.25031 -10.24936
 Alpha  occ. eigenvalues --  -10.24762  -3.17774  -3.17685  -1.92671  -1.92589
 Alpha  occ. eigenvalues --   -1.92216  -1.92130  -1.92076  -1.91987  -1.16049
 Alpha  occ. eigenvalues --   -1.15993  -1.11744  -1.10229  -1.09636  -1.07853
 Alpha  occ. eigenvalues --   -1.07502  -1.07133  -1.05158  -1.04088  -1.03808
 Alpha  occ. eigenvalues --   -1.03037  -1.02924  -1.02707  -1.01745  -1.01439
 Alpha  occ. eigenvalues --   -0.92408  -0.91224  -0.89131  -0.88941  -0.88825
 Alpha  occ. eigenvalues --   -0.88693  -0.88194  -0.88038  -0.87509  -0.87309
 Alpha  occ. eigenvalues --   -0.87253  -0.86940  -0.86280  -0.85476  -0.84680
 Alpha  occ. eigenvalues --   -0.84414  -0.83788  -0.83405  -0.82614  -0.82519
 Alpha  occ. eigenvalues --   -0.82449  -0.81569  -0.81239  -0.80679  -0.80461
 Alpha  occ. eigenvalues --   -0.79997  -0.78219  -0.78116  -0.77545  -0.77389
 Alpha  occ. eigenvalues --   -0.77233  -0.76539  -0.75835  -0.75474  -0.75007
 Alpha  occ. eigenvalues --   -0.74927  -0.72498  -0.72209  -0.72173  -0.71441
 Alpha  occ. eigenvalues --   -0.69900  -0.69294  -0.68802  -0.68383  -0.67869
 Alpha  occ. eigenvalues --   -0.67464  -0.67417  -0.66375  -0.65266  -0.65112
 Alpha  occ. eigenvalues --   -0.65032  -0.64963  -0.64737  -0.64436  -0.64423
 Alpha  occ. eigenvalues --   -0.64300  -0.62568  -0.62041  -0.60332  -0.59923
 Alpha  occ. eigenvalues --   -0.59451  -0.59117  -0.58948  -0.58809  -0.58435
 Alpha  occ. eigenvalues --   -0.58239  -0.58005  -0.57515  -0.57421  -0.57097
 Alpha  occ. eigenvalues --   -0.55985  -0.55956  -0.55570  -0.55558  -0.55098
 Alpha  occ. eigenvalues --   -0.55061  -0.54910  -0.54453  -0.54324  -0.54010
 Alpha  occ. eigenvalues --   -0.53978  -0.53572  -0.53552  -0.53223  -0.53185
 Alpha  occ. eigenvalues --   -0.52970  -0.52745  -0.52593  -0.52456  -0.52426
 Alpha  occ. eigenvalues --   -0.52317  -0.52160  -0.51974  -0.51913  -0.51534
 Alpha  occ. eigenvalues --   -0.51256  -0.51086  -0.50921  -0.50555  -0.50420
 Alpha  occ. eigenvalues --   -0.50217  -0.50126  -0.49887  -0.49684  -0.49515
 Alpha  occ. eigenvalues --   -0.49366  -0.49118  -0.48949  -0.48935  -0.48651
 Alpha  occ. eigenvalues --   -0.48615  -0.48550  -0.48505  -0.48201  -0.48151
 Alpha  occ. eigenvalues --   -0.48001  -0.47846  -0.47729  -0.47433  -0.47414
 Alpha  occ. eigenvalues --   -0.47270  -0.46876  -0.46776  -0.46619  -0.46547
 Alpha  occ. eigenvalues --   -0.46234  -0.46170  -0.46094  -0.45907  -0.45850
 Alpha  occ. eigenvalues --   -0.45648  -0.45386  -0.45219  -0.44803  -0.44636
 Alpha  occ. eigenvalues --   -0.44565  -0.44544  -0.44352  -0.44088  -0.43940
 Alpha  occ. eigenvalues --   -0.43749  -0.43493  -0.43458  -0.43249  -0.43159
 Alpha  occ. eigenvalues --   -0.43028  -0.43018  -0.42939  -0.42843  -0.42800
 Alpha  occ. eigenvalues --   -0.42367  -0.42337  -0.42169  -0.42135  -0.42003
 Alpha  occ. eigenvalues --   -0.41967  -0.41918  -0.41719  -0.41567  -0.41467
 Alpha  occ. eigenvalues --   -0.41131  -0.40783  -0.40774  -0.40570  -0.40227
 Alpha  occ. eigenvalues --   -0.39844  -0.39823  -0.39547  -0.38846  -0.38553
 Alpha  occ. eigenvalues --   -0.37901  -0.37871  -0.37525  -0.37271  -0.37175
 Alpha  occ. eigenvalues --   -0.37087  -0.36958  -0.36753  -0.36425  -0.36291
 Alpha  occ. eigenvalues --   -0.36150  -0.34791  -0.34698  -0.34239  -0.33999
 Alpha  occ. eigenvalues --   -0.33827  -0.33509  -0.33101  -0.31737  -0.31404
 Alpha  occ. eigenvalues --   -0.31250  -0.31141  -0.31013  -0.30632  -0.30408
 Alpha  occ. eigenvalues --   -0.30082  -0.29911  -0.29337  -0.24440  -0.24257
 Alpha  occ. eigenvalues --   -0.20985  -0.20208
 Alpha virt. eigenvalues --   -0.08516  -0.07579  -0.02515  -0.02386  -0.00272
 Alpha virt. eigenvalues --    0.00001   0.01807   0.01920   0.02143   0.02394
 Alpha virt. eigenvalues --    0.04704   0.04857   0.04909   0.05411   0.05451

 Mulliken charges:
               1
     1  Mg  12.002867
     2  C    6.028354
     3  C    5.972508
     4  C    5.990198
     5  C    6.022075
     6  N    7.002848
     7  C    5.959034
     8  C    6.013551
     9  C    5.988576
    10  C    6.038553
    11  C    5.998301
    12  C    6.002544
    13  C    6.004282
    14  H    0.990854
    15  N    6.986805
    16  C    6.045231
    17  C    6.020038
    18  C    6.019216
    19  C    6.032168
    20  C    5.998784
    21  C    6.011056
    22  O    8.030518
    23  C    5.994939
    24  N    7.002471
    25  C    6.030579
    26  C    5.988981
    27  C    6.012418
    28  C    5.965674
    29  C    5.998637
    30  C    6.002665
    31  C    6.005239
    32  N    7.006680
    33  C    5.947604
    34  C    5.974477
    35  C    5.995426
    36  C    5.961667
    37  C    6.003340
    38  C    5.983524
    39  O    7.972522
    40  C    5.997142
    41  C    5.996650
    42  O    7.996283
    43  O    7.998329
    44  C    6.002086
    45  H    1.007063
    46  H    1.007054
    47  H    0.991030
    48  H    0.998316
    49  H    1.001526
    50  H    1.015098
    51  H    1.000530
    52  H    0.999363
    53  H    0.986816
    54  H    1.005422
    55  H    0.996145
    56  H    1.003334
    57  H    1.021239
    58  H    1.015573
    59  H    1.014173
    60  H    1.008939
    61  H    1.014694
    62  H    1.007895
    63  H    1.001188
    64  H    0.997384
    65  H    0.998368
    66  H    0.997078
    67  H    1.010479
    68  H    0.989559
    69  H    1.004752
    70  H    1.005903
    71  H    0.990481
    72  H    0.992700
    73  H    0.983464
    74  H    0.980361
    75  H    0.978583
    76  H    0.992654
    77  H    0.995500
    78  H    0.998672
    79  H    0.992971
    80  Mg  11.999951
    81  C    6.000229
    82  C    5.999866
    83  C    5.999722
    84  C    6.000155
    85  N    7.000156
    86  C    5.999667
    87  C    6.000064
    88  C    5.999870
    89  C    6.000315
    90  C    5.999954
    91  C    6.000047
    92  C    6.000004
    93  H    0.999971
    94  N    6.999895
    95  C    6.000319
    96  C    6.000164
    97  C    6.000086
    98  C    6.000400
    99  C    5.999974
   100  C    6.000094
   101  O    8.000213
   102  C    5.999987
   103  N    6.999935
   104  C    6.000422
   105  C    5.999864
   106  C    6.000171
   107  C    5.999691
   108  C    5.999980
   109  C    6.000008
   110  C    6.000028
   111  N    6.999981
   112  C    5.999637
   113  C    5.999688
   114  C    6.000021
   115  C    5.999691
   116  C    6.000037
   117  C    5.999882
   118  O    7.999738
   119  C    5.999991
   120  C    5.999975
   121  O    7.999904
   122  O    8.000012
   123  C    6.000037
   124  H    1.000119
   125  H    1.000046
   126  H    0.999910
   127  H    1.000032
   128  H    1.000049
   129  H    1.000085
   130  H    1.000020
   131  H    1.000122
   132  H    0.999894
   133  H    1.000017
   134  H    1.000043
   135  H    0.999967
   136  H    1.000136
   137  H    1.000159
   138  H    1.000177
   139  H    1.000146
   140  H    1.000040
   141  H    1.000067
   142  H    0.999995
   143  H    0.999952
   144  H    1.000008
   145  H    0.999984
   146  H    1.000105
   147  H    1.000040
   148  H    0.999894
   149  H    1.000012
   150  H    0.999937
   151  H    0.999974
   152  H    0.999817
   153  H    0.999818
   154  H    0.999821
   155  H    0.999940
   156  H    0.999971
   157  H    0.999954
   158  H    0.999953
 Sum of Mulliken charges = 624.00000

 Dipole moment (field-independent basis, Debye):
    X=              1.5642    Y=              1.2143    Z=             10.6146  Tot=             10.7977
 Quadrupole moment (field-independent basis, Debye-Ang):
   XX=            -86.6170   YY=             -1.0872   ZZ=             12.6714
   XY=            -29.4157   XZ=           -276.2130   YZ=              6.3522

 Normal termination of Gaussian 16 at Tue Sep 21 18:00:34 2021.
