 Gaussian 16, Revision A.03,
 Gaussian 16:  ES64L-G16RevA.03 25-Dec-2016

 -----------------------------------
 #p cam-b3lyp/Def2SVP td=(nstates=5)
 -----------------------------------

 --------------------------------
 TDDFT excited states in gaussian
 --------------------------------
 Symbolic Z-matrix:
 Charge =  0 Multiplicity = 1

                         Standard orientation:
 ---------------------------------------------------------------------
 Center     Atomic      Atomic             Coordinates (Angstroms)
 Number     Number       Type             X           Y           Z
 ---------------------------------------------------------------------
      1         12           0      -12.760220   -0.455203    0.349350
      2          6           0      -13.138420    2.551028   -1.196818
      3          6           0      -11.435628    1.070978    3.133792
      4          6           0      -12.276680   -3.526815    1.688064
      5          6           0      -13.670910   -2.006767   -2.692861
      6          7           0      -12.129849    1.579931    0.813079
      7          6           0      -12.689925    2.634962    0.163255
      8          6           0      -12.605160    3.914155    0.924830
      9          6           0      -11.799507    3.397135    2.226614
     10          6           0      -11.773340    1.911897    2.071942
     11          6           0      -10.328624    4.007865    2.324286
     12          6           0      -14.086141    4.399222    1.285728
     13          6           0      -14.284888    5.887945    1.578669
     14          1           0      -13.133300    6.886639    1.854271
     15          7           0      -12.066896   -1.179825    2.184731
     16          6           0      -11.537008   -0.366929    3.200067
     17          6           0      -11.127563   -1.244081    4.272288
     18          6           0      -11.392761   -2.572053    3.880471
     19          6           0      -11.980761   -2.438915    2.554670
     20          6           0      -10.570079   -0.678441    5.599344
     21          6           0      -11.027330   -3.929500    4.680734
     22          8           0      -11.426620   -5.044575    4.322067
     23          6           0      -10.201443   -3.974279    5.955739
     24          7           0      -13.027748   -2.513559   -0.419796
     25          6           0      -12.708902   -3.578459    0.354098
     26          6           0      -12.687635   -4.872303   -0.458089
     27          6           0      -13.474279   -4.417395   -1.818505
     28          6           0      -13.512932   -2.891543   -1.639903
     29          6           0      -11.261354   -5.568645   -0.635423
     30          6           0      -15.013786   -4.878988   -1.946630
     31          6           0      -15.499798   -5.539819   -3.223441
     32          7           0      -13.358181    0.077213   -1.579851
     33          6           0      -13.675415   -0.615119   -2.687938
     34          6           0      -14.112483    0.326444   -3.765919
     35          6           0      -13.951018    1.589737   -3.149082
     36          6           0      -13.373506    1.352268   -1.877845
     37          6           0      -14.639889    0.069282   -5.133130
     38          6           0      -14.125865    2.965088   -3.431365
     39          8           0      -14.547739    3.530192   -4.461245
     40          6           0      -13.601726    3.659310   -2.176833
     41          6           0      -12.490730    4.507658   -2.543130
     42          8           0      -11.475337    4.257976   -3.113881
     43          8           0      -12.755212    5.754316   -1.983896
     44          6           0      -11.785794    6.910786   -2.094264
     45          1           0      -11.223310    1.487479    4.120258
     46          1           0      -12.027562   -4.511362    2.090249
     47          1           0      -13.771466   -2.402706   -3.704973
     48          1           0      -12.107206    4.792046    0.513662
     49          1           0      -12.323693    3.657383    3.146160
     50          1           0       -9.971089    4.229153    3.329654
     51          1           0      -10.247201    4.851381    1.638927
     52          1           0       -9.654753    3.241016    1.940876
     53          1           0      -14.488067    3.854413    2.140199
     54          1           0      -14.690340    4.129256    0.419237
     55          1           0      -14.975736    5.928664    2.421744
     56          1           0      -14.856560    6.327033    0.761940
     57          1           0      -10.571129    0.409855    5.658817
     58          1           0       -9.562371   -1.078293    5.707278
     59          1           0      -11.171252   -1.103112    6.403632
     60          1           0      -10.840028   -3.512770    6.708036
     61          1           0       -9.385553   -3.251230    5.950844
     62          1           0       -9.770879   -4.965532    6.096152
     63          1           0      -13.331256   -5.590765    0.050920
     64          1           0      -12.947152   -4.763383   -2.707839
     65          1           0      -11.000371   -5.674394   -1.688686
     66          1           0      -11.256173   -6.540914   -0.144029
     67          1           0      -10.473305   -4.941585   -0.217758
     68          1           0      -15.701288   -4.070305   -1.699125
     69          1           0      -15.183636   -5.582525   -1.132149
     70          1           0      -16.332470   -4.937018   -3.584243
     71          1           0      -15.786721   -6.581394   -3.081574
     72          1           0      -14.728876   -5.464261   -3.991576
     73          1           0      -14.793161   -0.982102   -5.375880
     74          1           0      -13.960286    0.458783   -5.891551
     75          1           0      -15.596343    0.582148   -5.232454
     76          1           0      -14.365658    4.269152   -1.693666
     77          1           0      -10.876387    6.596126   -2.606647
     78          1           0      -11.480648    7.228018   -1.096196
     79          1           0      -12.318425    7.681423   -2.651446
     80         12           0       12.351873   -0.738969   -0.341320
     81          6           0       14.272488    2.116488   -0.201593
     82          6           0        9.601417    1.174268    0.900774
     83          6           0       10.559802   -3.476567   -0.103186
     84          6           0       15.111365   -2.595299   -1.391454
     85          7           0       12.062727    1.402036    0.246972
     86          6           0       12.970668    2.380676    0.187953
     87          6           0       12.283289    3.732074    0.569928
     88          6           0       10.813293    3.325250    1.044119
     89          6           0       10.826082    1.811543    0.756107
     90          6           0       10.502529    3.465058    2.521962
     91          6           0       12.332822    4.811951   -0.521432
     92          6           0       12.858537    6.128664    0.024998
     93          1           0       12.461541    7.467139   -0.614529
     94          7           0       10.332081   -1.068475    0.236821
     95          6           0        9.367195   -0.197520    0.653932
     96          6           0        8.141321   -0.826616    0.869293
     97          6           0        8.390580   -2.233962    0.706258
     98          6           0        9.818688   -2.321336    0.243191
     99          6           0        6.865134   -0.097409    1.263600
    100          6           0        7.462632   -3.407232    0.975884
    101          8           0        7.935458   -4.559561    0.932032
    102          6           0        6.063984   -3.215816    1.400725
    103          7           0       12.790398   -2.686993   -0.727215
    104          6           0       11.857613   -3.698119   -0.620842
    105          6           0       12.406130   -5.133649   -0.960520
    106          6           0       13.786686   -4.726538   -1.632090
    107          6           0       13.927008   -3.251201   -1.214704
    108          6           0       12.602451   -6.229346    0.160344
    109          6           0       14.020353   -5.081290   -3.170564
    110          6           0       13.337283   -4.171826   -4.157477
    111          7           0       14.301073   -0.425293   -0.598626
    112          6           0       15.340373   -1.231527   -1.022278
    113          6           0       16.554820   -0.530297   -1.119098
    114          6           0       16.154723    0.781825   -0.841138
    115          6           0       14.764676    0.821921   -0.528329
    116          6           0       17.794587   -1.168403   -1.582508
    117          6           0       16.736340    2.055303   -0.655599
    118          8           0       17.932267    2.350926   -0.697928
    119          6           0       15.528362    3.048400   -0.243863
    120          6           0       15.835103    3.663907    1.035308
    121          8           0       15.781942    3.139504    2.124239
    122          8           0       16.307168    4.891435    0.856012
    123          6           0       16.785621    5.625345    1.988385
    124          1           0        8.782446    1.755318    1.328872
    125          1           0       10.094451   -4.463662   -0.073159
    126          1           0       15.949585   -3.213823   -1.719122
    127          1           0       12.871649    4.001820    1.446372
    128          1           0       10.147976    4.032880    0.548171
    129          1           0       11.291737    3.936090    3.108716
    130          1           0       10.371328    2.481929    2.973210
    131          1           0        9.520107    3.920146    2.651401
    132          1           0       11.386372    4.996476   -1.029947
    133          1           0       12.987766    4.448274   -1.312846
    134          1           0       13.937039    6.106391   -0.135473
    135          1           0       12.576346    6.148678    1.077478
    136          1           0        6.965963    0.981924    1.149233
    137          1           0        6.709463   -0.220377    2.335622
    138          1           0        5.995714   -0.534781    0.774191
    139          1           0        5.685083   -4.107873    1.900767
    140          1           0        5.472529   -3.094960    0.492629
    141          1           0        5.985689   -2.363109    2.074727
    142          1           0       11.874361   -5.593501   -1.794113
    143          1           0       14.576654   -5.329170   -1.185624
    144          1           0       12.277083   -5.796752    1.105618
    145          1           0       13.669628   -6.347577    0.352267
    146          1           0       12.146754   -7.208877    0.012701
    147          1           0       13.563101   -6.058557   -3.323446
    148          1           0       15.067014   -5.212659   -3.442391
    149          1           0       13.968557   -4.140892   -5.044844
    150          1           0       13.052274   -3.156823   -3.883487
    151          1           0       12.377613   -4.635292   -4.386294
    152          1           0       17.725853   -1.989537   -2.295581
    153          1           0       18.530714   -1.399601   -0.813541
    154          1           0       18.276169   -0.331524   -2.087649
    155          1           0       15.456232    3.817674   -1.012461
    156          1           0       15.997484    6.205134    2.470145
    157          1           0       17.506693    6.350350    1.611312
    158          1           0       17.208152    4.939320    2.722665
 ---------------------------------------------------------------------

 SCF Done:  E(RCAM-B3LYP) =  -4069.82534631     A.U. after   19 cycles

 Excitation energies and oscillator strengths:

 Excited State   1:      Singlet-A      1.7066 eV  726.52 nm  f=0.4237  <S**2>=0.000
     309 -> 316        0.17216
     311 -> 313        0.68507
     309 <- 316        0.10510
 This state for optimization and/or second-order correction.
 Total Energy, E(TD-HF/TD-DFT) =  -4069.76263141
 Copying the excited state density for this state as the 1-particle RhoCI density.

 Excited State   2:      Singlet-A      1.7391 eV  712.93 nm  f=0.3917  <S**2>=0.000
     310 -> 315        0.19130
     312 -> 314        0.68125
     310 <- 315        0.10949

 Excited State   3:      Singlet-A      2.2215 eV  558.12 nm  f=0.1383  <S**2>=0.000
     309 -> 313        0.65139
     311 -> 316       -0.25329

 Excited State   4:      Singlet-A      2.2289 eV  556.27 nm  f=0.1209  <S**2>=0.000
     310 -> 314        0.63712
     312 -> 315       -0.29409

 Excited State   5:      Singlet-A      2.9175 eV  424.97 nm  f=0.0000  <S**2>=0.000
     312 -> 313        0.70706

 The electronic state is 1-A.
 Alpha  occ. eigenvalues --  -46.89477 -46.87690 -19.24835 -19.23765 -19.19675
 Alpha  occ. eigenvalues --  -19.19267 -19.18856 -19.18632 -19.18597 -19.18247
 Alpha  occ. eigenvalues --  -14.42556 -14.42304 -14.42170 -14.41746 -14.39719
 Alpha  occ. eigenvalues --  -14.39628 -14.39468 -14.38968 -10.38735 -10.38310
 Alpha  occ. eigenvalues --  -10.36303 -10.34874 -10.34550 -10.34516 -10.31987
 Alpha  occ. eigenvalues --  -10.31825 -10.31506 -10.31228 -10.31192 -10.31163
 Alpha  occ. eigenvalues --  -10.30754 -10.30742 -10.30720 -10.30289 -10.30159
 Alpha  occ. eigenvalues --  -10.30071 -10.29946 -10.29821 -10.29389 -10.29087
 Alpha  occ. eigenvalues --  -10.29059 -10.28993 -10.28931 -10.28851 -10.28557
 Alpha  occ. eigenvalues --  -10.28530 -10.28378 -10.28320 -10.28288 -10.28280
 Alpha  occ. eigenvalues --  -10.28273 -10.28265 -10.28264 -10.28037 -10.28034
 Alpha  occ. eigenvalues --  -10.27968 -10.27907 -10.27707 -10.27671 -10.27592
 Alpha  occ. eigenvalues --  -10.27590 -10.27536 -10.27504 -10.27478 -10.27442
 Alpha  occ. eigenvalues --  -10.27300 -10.27195 -10.26799 -10.26736 -10.26608
 Alpha  occ. eigenvalues --  -10.26512 -10.26314 -10.26282 -10.26280 -10.26261
 Alpha  occ. eigenvalues --  -10.26190 -10.26179 -10.26170 -10.26139 -10.25969
 Alpha  occ. eigenvalues --  -10.25751 -10.25573 -10.25423 -10.24977 -10.24825
 Alpha  occ. eigenvalues --  -10.24644  -3.17884  -3.16475  -1.92804  -1.92322
 Alpha  occ. eigenvalues --   -1.92196  -1.91373  -1.90946  -1.90779  -1.17941
 Alpha  occ. eigenvalues --   -1.15715  -1.09587  -1.08859  -1.08509  -1.08402
 Alpha  occ. eigenvalues --   -1.07805  -1.07285  -1.05640  -1.04599  -1.04538
 Alpha  occ. eigenvalues --   -1.03706  -1.03653  -1.03336  -1.02705  -1.02552
 Alpha  occ. eigenvalues --   -0.93571  -0.92094  -0.89371  -0.88778  -0.88685
 Alpha  occ. eigenvalues --   -0.88348  -0.88341  -0.87656  -0.87593  -0.87522
 Alpha  occ. eigenvalues --   -0.87138  -0.86979  -0.86790  -0.86299  -0.84600
 Alpha  occ. eigenvalues --   -0.84403  -0.83869  -0.83549  -0.82955  -0.82439
 Alpha  occ. eigenvalues --   -0.82406  -0.81683  -0.81265  -0.81187  -0.80600
 Alpha  occ. eigenvalues --   -0.80376  -0.78488  -0.78346  -0.77548  -0.77337
 Alpha  occ. eigenvalues --   -0.77203  -0.76900  -0.76280  -0.75987  -0.75290
 Alpha  occ. eigenvalues --   -0.75265  -0.73456  -0.72666  -0.72064  -0.71458
 Alpha  occ. eigenvalues --   -0.69654  -0.69335  -0.68844  -0.68711  -0.68298
 Alpha  occ. eigenvalues --   -0.67802  -0.67151  -0.66059  -0.65410  -0.65401
 Alpha  occ. eigenvalues --   -0.65282  -0.64925  -0.64610  -0.64592  -0.64390
 Alpha  occ. eigenvalues --   -0.64328  -0.62350  -0.61896  -0.60526  -0.60432
 Alpha  occ. eigenvalues --   -0.60009  -0.60004  -0.59260  -0.59000  -0.58873
 Alpha  occ. eigenvalues --   -0.58552  -0.58517  -0.58356  -0.57829  -0.57687
 Alpha  occ. eigenvalues --   -0.56532  -0.56211  -0.56103  -0.55578  -0.55372
 Alpha  occ. eigenvalues --   -0.55098  -0.54677  -0.54366  -0.54315  -0.53849
 Alpha  occ. eigenvalues --   -0.53542  -0.53173  -0.53121  -0.53048  -0.52837
 Alpha  occ. eigenvalues --   -0.52780  -0.52512  -0.52355  -0.52277  -0.52216
 Alpha  occ. eigenvalues --   -0.52138  -0.51761  -0.51729  -0.51707  -0.51485
 Alpha  occ. eigenvalues --   -0.51334  -0.50882  -0.50619  -0.50306  -0.50301
 Alpha  occ. eigenvalues --   -0.49968  -0.49877  -0.49781  -0.49673  -0.49478
 Alpha  occ. eigenvalues --   -0.49472  -0.49262  -0.49203  -0.49151  -0.49000
 Alpha  occ. eigenvalues --   -0.48969  -0.48400  -0.48382  -0.48220  -0.48152
 Alpha  occ. eigenvalues --   -0.48029  -0.47779  -0.47691  -0.47344  -0.47335
 Alpha  occ. eigenvalues --   -0.47002  -0.46885  -0.46672  -0.46535  -0.46507
 Alpha  occ. eigenvalues --   -0.46382  -0.46320  -0.46248  -0.46029  -0.45658
 Alpha  occ. eigenvalues --   -0.45546  -0.45429  -0.45263  -0.45156  -0.44933
 Alpha  occ. eigenvalues --   -0.44766  -0.44594  -0.44424  -0.44381  -0.44339
 Alpha  occ. eigenvalues --   -0.44053  -0.43974  -0.43904  -0.43763  -0.43639
 Alpha  occ. eigenvalues --   -0.43498  -0.43246  -0.43218  -0.42752  -0.42684
 Alpha  occ. eigenvalues --   -0.42532  -0.42401  -0.41999  -0.41824  -0.41710
 Alpha  occ. eigenvalues --   -0.41596  -0.41514  -0.41369  -0.41326  -0.41208
 Alpha  occ. eigenvalues --   -0.41128  -0.41120  -0.40993  -0.40890  -0.40492
 Alpha  occ. eigenvalues --   -0.40280  -0.39794  -0.39483  -0.39203  -0.38887
 Alpha  occ. eigenvalues --   -0.38490  -0.38205  -0.37863  -0.37743  -0.37612
 Alpha  occ. eigenvalues --   -0.37197  -0.36836  -0.36658  -0.36541  -0.36364
 Alpha  occ. eigenvalues --   -0.36189  -0.36155  -0.34573  -0.34307  -0.34240
 Alpha  occ. eigenvalues --   -0.33891  -0.33232  -0.33138  -0.31453  -0.31325
 Alpha  occ. eigenvalues --   -0.31173  -0.31097  -0.30790  -0.30540  -0.30250
 Alpha  occ. eigenvalues --   -0.30125  -0.30067  -0.29773  -0.24130  -0.23909
 Alpha  occ. eigenvalues --   -0.21486  -0.21208
 Alpha virt. eigenvalues --   -0.09105  -0.08591  -0.01778  -0.01434  -0.00078
 Alpha virt. eigenvalues --    0.00479   0.02234   0.02473   0.02721   0.03161
 Alpha virt. eigenvalues --    0.04590   0.05254   0.05631   0.05661   0.06184

 Mulliken charges:
               1
     1  Mg   0.812058
     2  C   -0.074141
     3  C   -0.059346
     4  C   -0.048911
     5  C   -0.095269
     6  N   -0.287551
     7  C   -0.007233
     8  C   -0.035707
     9  C   -0.060030
    10  C    0.073556
    11  C    0.067977
    12  C    0.021862
    13  C   -0.043658
    14  H    0.021685
    15  N   -0.352753
    16  C    0.090824
    17  C   -0.158072
    18  C   -0.044693
    19  C    0.100213
    20  C    0.108456
    21  C    0.033372
    22  O   -0.220322
    23  C    0.070348
    24  N   -0.263506
    25  C    0.011739
    26  C   -0.016196
    27  C   -0.070752
    28  C    0.089982
    29  C    0.065466
    30  C    0.016555
    31  C    0.018710
    32  N   -0.299331
    33  C    0.080593
    34  C   -0.145549
    35  C   -0.016595
    36  C    0.164933
    37  C    0.124087
    38  C    0.057622
    39  O   -0.193293
    40  C    0.017370
    41  C    0.186305
    42  O   -0.169865
    43  O   -0.386175
    44  C    0.166669
    45  H   -0.032763
    46  H   -0.011442
    47  H   -0.026847
    48  H    0.021679
    49  H    0.005804
    50  H    0.022327
    51  H    0.011831
    52  H    0.016716
    53  H    0.008790
    54  H    0.010234
    55  H    0.020154
    56  H    0.030585
    57  H    0.019180
    58  H    0.030033
    59  H    0.026579
    60  H    0.033507
    61  H    0.005259
    62  H    0.050322
    63  H    0.011063
    64  H    0.010654
    65  H    0.011996
    66  H    0.028888
    67  H    0.024005
    68  H    0.014803
    69  H   -0.003574
    70  H    0.015321
    71  H    0.026299
    72  H    0.004530
    73  H    0.001691
    74  H    0.042086
    75  H    0.041016
    76  H    0.039752
    77  H    0.049240
    78  H    0.037272
    79  H    0.051580
    80  Mg   0.849810
    81  C   -0.032480
    82  C   -0.104308
    83  C   -0.040435
    84  C   -0.102913
    85  N   -0.276996
    86  C   -0.073639
    87  C    0.020020
    88  C   -0.112938
    89  C    0.098353
    90  C    0.051595
    91  C    0.081284
    92  C   -0.091578
    93  H    0.011496
    94  N   -0.341482
    95  C    0.146763
    96  C   -0.163357
    97  C   -0.029816
    98  C    0.148910
    99  C    0.116789
   100  C   -0.008318
   101  O   -0.229856
   102  C    0.068405
   103  N   -0.320746
   104  C    0.008076
   105  C   -0.016768
   106  C   -0.037891
   107  C    0.071403
   108  C    0.076351
   109  C    0.018574
   110  C   -0.003794
   111  N   -0.375136
   112  C    0.118496
   113  C   -0.127432
   114  C    0.017205
   115  C    0.159528
   116  C    0.116722
   117  C    0.021791
   118  O   -0.183748
   119  C   -0.013663
   120  C    0.166773
   121  O   -0.220832
   122  O   -0.295135
   123  C    0.174926
   124  H   -0.024930
   125  H   -0.005961
   126  H   -0.029568
   127  H    0.009648
   128  H    0.016863
   129  H    0.020778
   130  H    0.019411
   131  H    0.013121
   132  H    0.015482
   133  H    0.005782
   134  H    0.041366
   135  H    0.035548
   136  H    0.018815
   137  H    0.033840
   138  H    0.033413
   139  H    0.029207
   140  H    0.043784
   141  H    0.024001
   142  H    0.010457
   143  H    0.001442
   144  H    0.018217
   145  H    0.006727
   146  H    0.034669
   147  H    0.004138
   148  H    0.008762
   149  H    0.014778
   150  H    0.027012
   151  H    0.007676
   152  H    0.024914
   153  H    0.030959
   154  H    0.021957
   155  H    0.035941
   156  H    0.024896
   157  H    0.037074
   158  H    0.049772
 Sum of Mulliken charges =  -0.00000

 Dipole moment (field-independent basis, Debye):
    X=             -3.9182    Y=              0.5707    Z=              2.7660  Tot=              4.8300
 Quadrupole moment (field-independent basis, Debye-Ang):
   XX=           -619.9349   YY=           -490.8720   ZZ=           -513.0163
   XY=            -18.5988   XZ=            -66.4849   YZ=             51.1847

 Normal termination of Gaussian 16 at Wed Sep 15 13:36:24 2021.
