 Gaussian 16, Revision A.03,
 Gaussian 16:  ES64L-G16RevA.03 25-Dec-2016

 ----------------------------------------------------------
 #p cam-b3lyp/Def2SVP td=(nstates=5) density=(transition=1)
 ----------------------------------------------------------

 --------------------------------
 TDDFT excited states in gaussian
 --------------------------------
 Symbolic Z-matrix:
 Charge =  0 Multiplicity = 1

                         Standard orientation:
 ---------------------------------------------------------------------
 Center     Atomic      Atomic             Coordinates (Angstroms)
 Number     Number       Type             X           Y           Z
 ---------------------------------------------------------------------
      1         12           0       -9.155811    0.220917    0.701112
      2          6           0       -8.539910   -2.214087   -1.592188
      3          6           0       -6.544495   -1.100988    2.686580
      4          6           0       -9.046469    3.134574    2.329865
      5          6           0      -11.415622    1.808864   -1.625754
      6          7           0       -7.777960   -1.453995    0.534475
      7          6           0       -7.650291   -2.310575   -0.424009
      8          6           0       -6.723487   -3.522884   -0.054585
      9          6           0       -6.326845   -3.276216    1.450739
     10          6           0       -6.938660   -1.845636    1.641488
     11          6           0       -6.680896   -4.388829    2.438452
     12          6           0       -5.470615   -3.687901   -1.103390
     13          6           0       -5.024396   -2.475029   -1.903758
     14          1           0       -3.635564   -2.432136   -2.541076
     15          7           0       -7.946104    0.910973    2.285014
     16          6           0       -6.998084    0.223245    3.003816
     17          6           0       -6.438398    1.064561    3.970423
     18          6           0       -7.112000    2.343661    3.883177
     19          6           0       -8.075254    2.194395    2.760630
     20          6           0       -5.453576    0.528579    4.993291
     21          6           0       -6.805430    3.546314    4.793923
     22          8           0       -5.915103    3.407369    5.662491
     23          6           0       -7.451113    4.825862    4.736498
     24          7           0      -10.009046    2.311550    0.295337
     25          6           0       -9.921133    3.187113    1.256020
     26          6           0      -10.834306    4.426500    1.035091
     27          6           0      -11.639918    3.986924   -0.206979
     28          6           0      -11.034660    2.576959   -0.592863
     29          6           0      -11.727237    4.747732    2.178854
     30          6           0      -11.584359    5.058623   -1.395186
     31          6           0      -12.936997    5.819407   -1.712495
     32          7           0       -9.968330   -0.122007   -1.162209
     33          6           0      -10.883001    0.549354   -1.983212
     34          6           0      -11.112064   -0.271711   -3.212749
     35          6           0      -10.180794   -1.312186   -3.086058
     36          6           0       -9.481764   -1.173718   -1.850309
     37          6           0      -12.017737   -0.032482   -4.320289
     38          6           0       -9.691939   -2.404168   -3.795181
     39          8           0       -9.982219   -2.919718   -4.884669
     40          6           0       -8.681235   -3.094556   -2.835842
     41          6           0       -9.139858   -4.557209   -2.625622
     42          8           0       -8.485309   -5.572017   -2.793775
     43          8           0      -10.446546   -4.636032   -2.194745
     44          6           0      -11.016998   -5.973429   -1.994245
     45          1           0       -5.695572   -1.554048    3.202531
     46          1           0       -9.172795    4.046410    2.916927
     47          1           0      -12.224975    2.211341   -2.238285
     48          1           0       -7.373279   -4.397305   -0.010183
     49          1           0       -5.257622   -3.098550    1.570164
     50          1           0       -7.429667   -4.028079    3.143380
     51          1           0       -5.820020   -4.706278    3.027995
     52          1           0       -7.021586   -5.324488    1.994995
     53          1           0       -5.818090   -4.520681   -1.715271
     54          1           0       -4.516500   -3.956548   -0.649456
     55          1           0       -5.116841   -1.662304   -1.183790
     56          1           0       -5.806661   -2.322988   -2.647646
     57          1           0       -5.666671    0.631021    6.057656
     58          1           0       -4.464965    0.927382    4.764698
     59          1           0       -5.336293   -0.544123    4.840700
     60          1           0       -8.524331    4.863494    4.922433
     61          1           0       -7.425998    5.217249    3.719996
     62          1           0       -6.946662    5.597245    5.317555
     63          1           0      -10.366921    5.393873    0.851597
     64          1           0      -12.676690    3.737053    0.018662
     65          1           0      -11.423985    5.609488    2.773221
     66          1           0      -11.665627    3.972816    2.943767
     67          1           0      -12.748186    4.897794    1.828169
     68          1           0      -11.366356    4.522513   -2.319850
     69          1           0      -10.899947    5.888024   -1.222140
     70          1           0      -12.739750    6.885235   -1.820337
     71          1           0      -13.572320    5.752076   -0.829265
     72          1           0      -13.257348    5.426356   -2.677549
     73          1           0      -12.859997    0.493047   -3.869661
     74          1           0      -12.363223   -0.975544   -4.745329
     75          1           0      -11.436353    0.487297   -5.081240
     76          1           0       -7.733952   -3.340904   -3.314943
     77          1           0      -12.100796   -5.900184   -2.086318
     78          1           0      -10.875983   -6.453450   -1.025983
     79          1           0      -10.608502   -6.731248   -2.663428
     80         12           0        9.076998    0.849304   -0.021895
     81          6           0        8.205683   -2.534181    0.532398
     82          6           0        5.880541    1.455381   -0.456080
     83          6           0       10.061738    3.627858   -1.519210
     84          6           0       12.435777   -0.300115   -0.182548
     85          7           0        7.254854   -0.472758    0.229934
     86          6           0        7.106134   -1.713432    0.521316
     87          6           0        5.629071   -2.032655    0.830949
     88          6           0        4.835359   -0.869643    0.044212
     89          6           0        6.070933    0.102831   -0.157849
     90          6           0        4.142581   -1.281200   -1.314783
     91          6           0        5.335773   -1.907988    2.416294
     92          6           0        4.273026   -2.827411    3.100663
     93          1           0        3.082519   -3.308831    2.191938
     94          7           0        8.105168    2.438985   -0.686268
     95          6           0        6.720390    2.505145   -0.720351
     96          6           0        6.326255    3.854321   -1.259454
     97          6           0        7.597592    4.509299   -1.539761
     98          6           0        8.706655    3.586510   -1.283081
     99          6           0        4.868891    4.231374   -1.447439
    100          6           0        7.802515    5.927094   -2.026187
    101          8           0        8.904004    6.427869   -2.292173
    102          6           0        6.625241    6.804550   -2.166115
    103          7           0       11.065468    1.629973   -0.676640
    104          6           0       11.131827    2.789755   -1.305042
    105          6           0       12.645523    3.279943   -1.388067
    106          6           0       13.407797    1.914251   -0.951133
    107          6           0       12.231105    1.032971   -0.540756
    108          6           0       13.046441    3.866061   -2.782097
    109          6           0       14.483379    2.003151    0.180798
    110          6           0       15.918768    1.778376   -0.219912
    111          7           0       10.199121   -0.988272    0.346476
    112          6           0       11.550602   -1.244674    0.227539
    113          6           0       11.798425   -2.613929    0.408908
    114          6           0       10.504035   -3.161390    0.490347
    115          6           0        9.545470   -2.178471    0.418712
    116          6           0       13.069455   -3.302163    0.413285
    117          6           0        9.862368   -4.397789    0.717844
    118          8           0       10.231940   -5.573644    0.984230
    119          6           0        8.318841   -4.075455    0.479831
    120          6           0        7.484304   -4.779870    1.485660
    121          8           0        7.478978   -4.624184    2.705028
    122          8           0        6.576145   -5.617962    0.764943
    123          6           0        5.644371   -6.431445    1.556413
    124          1           0        4.803377    1.637094   -0.453683
    125          1           0       10.374391    4.576870   -1.958286
    126          1           0       13.477544   -0.628456   -0.156077
    127          1           0        5.372141   -2.927494    0.264667
    128          1           0        3.993837   -0.556130    0.661038
    129          1           0        4.477573   -2.257875   -1.663384
    130          1           0        4.403632   -0.597113   -2.122044
    131          1           0        3.072884   -1.299635   -1.106489
    132          1           0        5.107405   -0.877542    2.689013
    133          1           0        6.279004   -2.053672    2.943158
    134          1           0        3.797026   -2.375196    3.971329
    135          1           0        4.763686   -3.784086    3.284162
    136          1           0        4.654991    5.238229   -1.087045
    137          1           0        4.180541    3.540154   -0.961086
    138          1           0        4.584291    4.059017   -2.485123
    139          1           0        5.896455    6.378120   -2.855989
    140          1           0        6.936784    7.786220   -2.523122
    141          1           0        6.091528    7.028525   -1.242486
    142          1           0       12.891772    4.014904   -0.621800
    143          1           0       13.785552    1.361440   -1.812511
    144          1           0       12.231169    3.741183   -3.494952
    145          1           0       13.981561    3.335057   -2.961245
    146          1           0       13.346714    4.899184   -2.612043
    147          1           0       14.240405    1.237144    0.917538
    148          1           0       14.398184    2.965319    0.686245
    149          1           0       15.872995    1.760582   -1.307999
    150          1           0       16.206176    0.783578    0.122458
    151          1           0       16.584664    2.586222    0.080983
    152          1           0       13.708562   -2.773765    1.120199
    153          1           0       13.682061   -3.180479   -0.480074
    154          1           0       12.927600   -4.331391    0.743456
    155          1           0        8.055063   -4.408827   -0.524363
    156          1           0        5.065141   -7.092442    0.911154
    157          1           0        4.875467   -5.775339    1.964773
    158          1           0        6.211818   -7.057434    2.244257
 ---------------------------------------------------------------------

 SCF Done:  E(RCAM-B3LYP) =  -4069.74710193     A.U. after   19 cycles

 Excitation energies and oscillator strengths:

 Excited State   1:      Singlet-A      1.7063 eV  726.61 nm  f=0.4305  <S**2>=0.000
     309 -> 316       -0.16070
     311 -> 313        0.68858
     309 <- 316       -0.10263
 This state for optimization and/or second-order correction.
 Total Energy, E(TD-HF/TD-DFT) =  -4069.68439530
 Copying the excited state density for this state as the 1-particle RhoCI density.

 Excited State   2:      Singlet-A      1.7998 eV  688.87 nm  f=0.3610  <S**2>=0.000
     310 -> 315        0.21201
     312 -> 314        0.67479
     310 <- 315        0.10948

 Excited State   3:      Singlet-A      2.2244 eV  557.39 nm  f=0.0803  <S**2>=0.000
     310 -> 314        0.62846
     312 -> 315       -0.30733

 Excited State   4:      Singlet-A      2.2510 eV  550.79 nm  f=0.1206  <S**2>=0.000
     309 -> 313        0.64124
     311 -> 316        0.27201

 Excited State   5:      Singlet-A      2.7258 eV  454.86 nm  f=0.0000  <S**2>=0.000
     312 -> 313        0.70695

 The electronic state is 1-A.
 Alpha  occ. eigenvalues --  -46.90501 -46.89318 -19.25049 -19.23887 -19.20273
 Alpha  occ. eigenvalues --  -19.20160 -19.19146 -19.18923 -19.18385 -19.17615
 Alpha  occ. eigenvalues --  -14.43391 -14.42108 -14.42077 -14.41650 -14.40725
 Alpha  occ. eigenvalues --  -14.40011 -14.39896 -14.38494 -10.39882 -10.39233
 Alpha  occ. eigenvalues --  -10.35049 -10.34893 -10.34453 -10.34421 -10.33196
 Alpha  occ. eigenvalues --  -10.31960 -10.31641 -10.31453 -10.31448 -10.31042
 Alpha  occ. eigenvalues --  -10.30933 -10.30929 -10.30892 -10.30832 -10.30675
 Alpha  occ. eigenvalues --  -10.30633 -10.30566 -10.30551 -10.30236 -10.30172
 Alpha  occ. eigenvalues --  -10.29819 -10.29490 -10.29467 -10.29278 -10.29213
 Alpha  occ. eigenvalues --  -10.28986 -10.28681 -10.28640 -10.28588 -10.28564
 Alpha  occ. eigenvalues --  -10.28497 -10.28490 -10.28315 -10.28312 -10.28243
 Alpha  occ. eigenvalues --  -10.27913 -10.27895 -10.27771 -10.27743 -10.27532
 Alpha  occ. eigenvalues --  -10.27468 -10.27418 -10.27394 -10.27342 -10.27275
 Alpha  occ. eigenvalues --  -10.27261 -10.27229 -10.27071 -10.27059 -10.26896
 Alpha  occ. eigenvalues --  -10.26895 -10.26575 -10.26310 -10.26310 -10.26293
 Alpha  occ. eigenvalues --  -10.26169 -10.26167 -10.25954 -10.25845 -10.25841
 Alpha  occ. eigenvalues --  -10.25795 -10.25752 -10.25747 -10.25352 -10.25113
 Alpha  occ. eigenvalues --  -10.24569  -3.18908  -3.17771  -1.93787  -1.93397
 Alpha  occ. eigenvalues --   -1.93175  -1.92675  -1.92237  -1.92057  -1.16296
 Alpha  occ. eigenvalues --   -1.13909  -1.09346  -1.09230  -1.07811  -1.07509
 Alpha  occ. eigenvalues --   -1.07222  -1.06668  -1.05708  -1.05222  -1.05140
 Alpha  occ. eigenvalues --   -1.04698  -1.03829  -1.03416  -1.02438  -1.01394
 Alpha  occ. eigenvalues --   -0.93183  -0.92886  -0.89857  -0.89601  -0.89428
 Alpha  occ. eigenvalues --   -0.89175  -0.88539  -0.88504  -0.88001  -0.87826
 Alpha  occ. eigenvalues --   -0.87482  -0.87302  -0.86829  -0.85492  -0.84839
 Alpha  occ. eigenvalues --   -0.84366  -0.84202  -0.83909  -0.83151  -0.82695
 Alpha  occ. eigenvalues --   -0.82653  -0.81983  -0.81636  -0.81440  -0.80602
 Alpha  occ. eigenvalues --   -0.80446  -0.78891  -0.78662  -0.77644  -0.77568
 Alpha  occ. eigenvalues --   -0.77163  -0.76900  -0.76527  -0.75819  -0.75468
 Alpha  occ. eigenvalues --   -0.75173  -0.73587  -0.73151  -0.72184  -0.72137
 Alpha  occ. eigenvalues --   -0.69748  -0.69091  -0.68858  -0.68616  -0.68536
 Alpha  occ. eigenvalues --   -0.67855  -0.67155  -0.67032  -0.66210  -0.65854
 Alpha  occ. eigenvalues --   -0.65851  -0.65592  -0.65519  -0.65064  -0.64730
 Alpha  occ. eigenvalues --   -0.64531  -0.63495  -0.61194  -0.61082  -0.60459
 Alpha  occ. eigenvalues --   -0.60143  -0.60075  -0.59215  -0.59128  -0.58708
 Alpha  occ. eigenvalues --   -0.58274  -0.58217  -0.57672  -0.57427  -0.57270
 Alpha  occ. eigenvalues --   -0.56926  -0.56517  -0.55806  -0.55776  -0.55692
 Alpha  occ. eigenvalues --   -0.55415  -0.55007  -0.54716  -0.54388  -0.54036
 Alpha  occ. eigenvalues --   -0.53722  -0.53671  -0.53458  -0.53424  -0.53161
 Alpha  occ. eigenvalues --   -0.53063  -0.52905  -0.52778  -0.52529  -0.52426
 Alpha  occ. eigenvalues --   -0.52403  -0.52164  -0.51678  -0.51483  -0.51420
 Alpha  occ. eigenvalues --   -0.51121  -0.51043  -0.50861  -0.50853  -0.50466
 Alpha  occ. eigenvalues --   -0.50443  -0.50282  -0.50082  -0.49791  -0.49755
 Alpha  occ. eigenvalues --   -0.49487  -0.49394  -0.49173  -0.49138  -0.49000
 Alpha  occ. eigenvalues --   -0.48744  -0.48718  -0.48594  -0.48477  -0.48314
 Alpha  occ. eigenvalues --   -0.47968  -0.47835  -0.47744  -0.47578  -0.47545
 Alpha  occ. eigenvalues --   -0.47361  -0.47242  -0.47014  -0.46954  -0.46925
 Alpha  occ. eigenvalues --   -0.46715  -0.46377  -0.46228  -0.46063  -0.46033
 Alpha  occ. eigenvalues --   -0.45903  -0.45520  -0.45437  -0.45272  -0.45202
 Alpha  occ. eigenvalues --   -0.45035  -0.44844  -0.44782  -0.44635  -0.44160
 Alpha  occ. eigenvalues --   -0.44022  -0.43865  -0.43843  -0.43778  -0.43488
 Alpha  occ. eigenvalues --   -0.43265  -0.42913  -0.42886  -0.42843  -0.42531
 Alpha  occ. eigenvalues --   -0.42443  -0.42238  -0.42177  -0.41862  -0.41669
 Alpha  occ. eigenvalues --   -0.41615  -0.41504  -0.41143  -0.41113  -0.41026
 Alpha  occ. eigenvalues --   -0.40993  -0.40895  -0.40695  -0.40579  -0.40226
 Alpha  occ. eigenvalues --   -0.40175  -0.40007  -0.39989  -0.39243  -0.38961
 Alpha  occ. eigenvalues --   -0.38928  -0.38423  -0.38226  -0.38027  -0.37758
 Alpha  occ. eigenvalues --   -0.37325  -0.37074  -0.36701  -0.36559  -0.36376
 Alpha  occ. eigenvalues --   -0.36051  -0.35579  -0.34975  -0.34473  -0.34410
 Alpha  occ. eigenvalues --   -0.34224  -0.33834  -0.33478  -0.31787  -0.31721
 Alpha  occ. eigenvalues --   -0.31253  -0.31220  -0.31095  -0.30430  -0.30363
 Alpha  occ. eigenvalues --   -0.30174  -0.29223  -0.29208  -0.25120  -0.24086
 Alpha  occ. eigenvalues --   -0.21849  -0.21597
 Alpha virt. eigenvalues --   -0.09704  -0.08538  -0.02575  -0.02077  -0.00206
 Alpha virt. eigenvalues --   -0.00160   0.00461   0.02029   0.02331   0.02404
 Alpha virt. eigenvalues --    0.04642   0.04816   0.05074   0.05217   0.05558

 Mulliken charges:
               1
     1  Mg  12.001897
     2  C    5.988207
     3  C    5.957733
     4  C    6.004882
     5  C    6.037662
     6  N    6.977401
     7  C    5.976820
     8  C    6.005971
     9  C    5.987273
    10  C    6.049586
    11  C    6.000876
    12  C    6.001611
    13  C    6.009034
    14  H    0.988364
    15  N    6.998233
    16  C    6.057088
    17  C    6.007847
    18  C    6.022951
    19  C    6.032191
    20  C    5.991819
    21  C    6.012894
    22  O    8.026865
    23  C    5.991111
    24  N    7.024387
    25  C    6.012886
    26  C    5.990089
    27  C    6.006731
    28  C    5.958285
    29  C    5.998124
    30  C    6.000266
    31  C    6.000387
    32  N    7.001550
    33  C    5.942784
    34  C    5.979706
    35  C    5.986860
    36  C    5.980555
    37  C    6.003043
    38  C    5.982783
    39  O    7.963913
    40  C    6.006673
    41  C    5.994686
    42  O    7.987328
    43  O    8.004617
    44  C    6.005117
    45  H    1.005427
    46  H    1.015955
    47  H    0.996071
    48  H    0.999225
    49  H    0.999755
    50  H    0.997549
    51  H    0.999951
    52  H    1.011344
    53  H    1.002850
    54  H    0.989845
    55  H    0.988285
    56  H    1.011927
    57  H    1.017733
    58  H    1.019842
    59  H    1.022225
    60  H    1.012057
    61  H    1.010359
    62  H    1.015678
    63  H    1.003784
    64  H    1.001379
    65  H    0.999087
    66  H    0.995906
    67  H    1.013159
    68  H    1.006720
    69  H    0.991704
    70  H    0.996700
    71  H    0.995687
    72  H    1.004327
    73  H    0.982441
    74  H    0.986287
    75  H    0.980315
    76  H    0.986354
    77  H    0.995896
    78  H    0.990116
    79  H    0.994976
    80  Mg  11.999808
    81  C    5.999167
    82  C    6.000203
    83  C    6.000774
    84  C    6.000060
    85  N    6.999595
    86  C    6.000874
    87  C    5.999830
    88  C    6.000290
    89  C    5.999502
    90  C    6.000165
    91  C    6.000246
    92  C    5.999936
    93  H    1.000327
    94  N    7.000445
    95  C    5.999008
    96  C    5.999067
    97  C    5.999990
    98  C    5.998968
    99  C    6.000410
   100  C    5.999753
   101  O    7.999623
   102  C    6.000222
   103  N    7.000056
   104  C    5.999191
   105  C    6.000247
   106  C    5.999791
   107  C    6.000741
   108  C    6.000077
   109  C    5.999837
   110  C    5.999964
   111  N    6.999709
   112  C    6.000723
   113  C    6.001021
   114  C    6.000048
   115  C    6.000972
   116  C    5.999818
   117  C    6.000349
   118  O    8.001077
   119  C    6.000150
   120  C    5.999994
   121  O    7.999705
   122  O    8.000333
   123  C    5.999842
   124  H    0.999044
   125  H    1.000061
   126  H    1.000504
   127  H    1.000500
   128  H    0.998402
   129  H    1.000472
   130  H    1.000650
   131  H    0.999755
   132  H    0.999268
   133  H    0.999933
   134  H    0.998419
   135  H    1.000355
   136  H    0.998784
   137  H    0.998615
   138  H    1.000135
   139  H    1.000168
   140  H    0.999841
   141  H    0.999112
   142  H    0.999838
   143  H    1.000247
   144  H    1.000300
   145  H    0.999986
   146  H    1.000055
   147  H    0.999779
   148  H    1.000191
   149  H    1.000311
   150  H    0.999997
   151  H    1.000225
   152  H    1.000470
   153  H    1.000960
   154  H    1.000514
   155  H    1.000660
   156  H    1.000849
   157  H    0.999641
   158  H    1.000048
 Sum of Mulliken charges = 624.00000

 Dipole moment (field-independent basis, Debye):
    X=              4.3267    Y=              4.6212    Z=              9.6427  Tot=             11.5351
 Quadrupole moment (field-independent basis, Debye-Ang):
   XX=            -68.0024   YY=              2.1763   ZZ=              7.8565
   XY=            -42.1192   XZ=            -80.8739   YZ=              5.0051

 Normal termination of Gaussian 16 at Wed Sep 22 00:50:18 2021.
