 Gaussian 16, Revision A.03,
 Gaussian 16:  ES64L-G16RevA.03 25-Dec-2016

 -----------------------------------
 #p cam-b3lyp/Def2SVP td=(nstates=5)
 -----------------------------------

 --------------------------------
 TDDFT excited states in gaussian
 --------------------------------
 Symbolic Z-matrix:
 Charge =  0 Multiplicity = 1

                         Standard orientation:
 ---------------------------------------------------------------------
 Center     Atomic      Atomic             Coordinates (Angstroms)
 Number     Number       Type             X           Y           Z
 ---------------------------------------------------------------------
      1         12           0      -12.957471   -0.530897    0.414153
      2          6           0      -13.152567    2.715706   -0.889285
      3          6           0      -10.794885    0.719759    2.923151
      4          6           0      -12.469879   -3.713343    1.492937
      5          6           0      -14.446901   -1.705258   -2.470895
      6          7           0      -12.251496    1.486381    1.000759
      7          6           0      -12.637963    2.679223    0.382885
      8          6           0      -12.329894    3.881246    1.346680
      9          6           0      -11.519576    3.213153    2.463539
     10          6           0      -11.470041    1.690843    2.088616
     11          6           0      -10.098761    3.833307    2.546762
     12          6           0      -13.648482    4.523565    1.759897
     13          6           0      -13.642291    6.000424    2.119115
     14          1           0      -12.279530    6.690108    2.354937
     15          7           0      -11.820494   -1.423252    1.984003
     16          6           0      -10.977276   -0.740336    2.881042
     17          6           0      -10.328976   -1.674563    3.784551
     18          6           0      -10.828418   -2.998996    3.468222
     19          6           0      -11.729863   -2.750151    2.262614
     20          6           0       -9.450278   -1.260935    4.972003
     21          6           0      -10.563861   -4.342351    4.120636
     22          8           0      -11.112367   -5.352120    3.699672
     23          6           0       -9.808187   -4.376282    5.393258
     24          7           0      -13.476805   -2.439688   -0.381430
     25          6           0      -13.241602   -3.591967    0.305842
     26          6           0      -13.940193   -4.778801   -0.407898
     27          6           0      -14.643795   -4.134344   -1.664707
     28          6           0      -14.280843   -2.638634   -1.476112
     29          6           0      -12.914311   -5.871017   -0.759677
     30          6           0      -16.186123   -4.300267   -1.707244
     31          6           0      -16.543314   -5.416123   -2.684277
     32          7           0      -13.593970    0.242591   -1.422755
     33          6           0      -14.112631   -0.322038   -2.539968
     34          6           0      -14.160484    0.728963   -3.585374
     35          6           0      -13.907243    1.924760   -2.979659
     36          6           0      -13.521143    1.559968   -1.664572
     37          6           0      -14.638940    0.424882   -4.995108
     38          6           0      -13.857394    3.385733   -3.124634
     39          8           0      -14.065430    4.072525   -4.117549
     40          6           0      -13.457759    3.910983   -1.759286
     41          6           0      -12.334993    4.829772   -2.004944
     42          8           0      -11.141646    4.591952   -2.235379
     43          8           0      -12.845431    6.111722   -2.015391
     44          6           0      -11.915521    7.179863   -2.311141
     45          1           0      -10.198809    1.155070    3.727640
     46          1           0      -12.347892   -4.689336    1.967362
     47          1           0      -14.830046   -2.165290   -3.384227
     48          1           0      -11.720088    4.504598    0.691597
     49          1           0      -11.991642    3.520667    3.396596
     50          1           0       -9.289353    3.170491    2.240292
     51          1           0       -9.865741    3.907969    3.608565
     52          1           0      -10.010191    4.742115    1.951827
     53          1           0      -14.011857    3.887754    2.567813
     54          1           0      -14.383178    4.352884    0.973892
     55          1           0      -14.283899    6.148919    2.986619
     56          1           0      -14.156498    6.427085    1.257206
     57          1           0       -9.214322   -0.196936    4.998343
     58          1           0       -8.504621   -1.803691    4.939845
     59          1           0       -9.923262   -1.607774    5.889989
     60          1           0      -10.394461   -3.866148    6.157960
     61          1           0       -8.773243   -4.068842    5.243543
     62          1           0       -9.726895   -5.388762    5.788825
     63          1           0      -14.634866   -5.225178    0.303267
     64          1           0      -14.105258   -4.533627   -2.525150
     65          1           0      -12.840362   -6.151218   -1.810049
     66          1           0      -13.363717   -6.705679   -0.222075
     67          1           0      -11.882430   -5.620612   -0.515069
     68          1           0      -16.642179   -3.452584   -2.218970
     69          1           0      -16.633510   -4.504156   -0.734241
     70          1           0      -17.263503   -6.019012   -2.131358
     71          1           0      -15.737148   -6.125984   -2.867875
     72          1           0      -16.965321   -5.089527   -3.635131
     73          1           0      -14.717253   -0.634026   -5.242806
     74          1           0      -14.018185    0.892369   -5.758469
     75          1           0      -15.684587    0.725428   -5.070198
     76          1           0      -14.321875    4.422623   -1.336706
     77          1           0      -11.387978    6.912110   -3.226982
     78          1           0      -11.180412    7.348083   -1.523804
     79          1           0      -12.538587    7.983468   -2.702237
     80         12           0       12.310320   -0.737192   -0.320318
     81          6           0       14.475608    1.925966   -0.082152
     82          6           0        9.722594    1.410774    0.653590
     83          6           0       10.134280   -3.315056   -0.438009
     84          6           0       14.917045   -2.833626   -0.892334
     85          7           0       12.200950    1.395146    0.482880
     86          6           0       13.210150    2.335874    0.242447
     87          6           0       12.695933    3.783147    0.373566
     88          6           0       11.183427    3.523423    0.719281
     89          6           0       10.959272    2.033248    0.577437
     90          6           0       10.788215    4.039004    2.097297
     91          6           0       12.867046    4.778105   -0.828449
     92          6           0       13.880544    6.029121   -0.615224
     93          1           0       13.153806    7.366954   -0.784205
     94          7           0       10.284401   -0.962311    0.142184
     95          6           0        9.371602    0.073864    0.397294
     96          6           0        7.987441   -0.407420    0.338575
     97          6           0        8.048090   -1.882863    0.085918
     98          6           0        9.525304   -2.133351   -0.153948
     99          6           0        6.789438    0.490200    0.556819
    100          6           0        7.002285   -2.892741    0.011543
    101          8           0        7.308799   -4.087536   -0.114119
    102          6           0        5.525218   -2.567978    0.149796
    103          7           0       12.540923   -2.718066   -0.532558
    104          6           0       11.479427   -3.628373   -0.689911
    105          6           0       11.908458   -5.086868   -1.127832
    106          6           0       13.504612   -4.861583   -1.228152
    107          6           0       13.657678   -3.364367   -0.876919
    108          6           0       11.487966   -6.245475   -0.095330
    109          6           0       14.053174   -5.223739   -2.651102
    110          6           0       15.389102   -5.892731   -2.738893
    111          7           0       14.342814   -0.500501   -0.356293
    112          6           0       15.305370   -1.466084   -0.664620
    113          6           0       16.589041   -0.872509   -0.822323
    114          6           0       16.282233    0.532130   -0.688717
    115          6           0       14.931941    0.650488   -0.335916
    116          6           0       17.893177   -1.456244   -1.172318
    117          6           0       16.881580    1.827567   -0.611788
    118          8           0       18.018928    2.277156   -0.790425
    119          6           0       15.723420    2.776715   -0.059737
    120          6           0       16.126217    3.295997    1.274062
    121          8           0       15.801377    2.920019    2.331051
    122          8           0       16.901688    4.443938    1.128750
    123          6           0       16.871106    5.351313    2.256967
    124          1           0        8.908044    2.104915    0.870828
    125          1           0        9.529372   -4.213808   -0.574595
    126          1           0       15.735001   -3.476730   -1.223609
    127          1           0       13.163897    4.239050    1.245406
    128          1           0       10.517244    4.083376    0.062375
    129          1           0       10.532466    3.188311    2.728409
    130          1           0        9.897521    4.628495    1.883269
    131          1           0       11.502614    4.707289    2.577591
    132          1           0       11.881565    5.173646   -1.075638
    133          1           0       13.266692    4.271667   -1.707140
    134          1           0       14.561942    5.914291   -1.458387
    135          1           0       14.357005    5.970327    0.363107
    136          1           0        6.758341    0.712072    1.624264
    137          1           0        5.898028   -0.064081    0.267169
    138          1           0        6.885625    1.466668    0.081609
    139          1           0        5.040098   -3.517057    0.378770
    140          1           0        5.092703   -2.098043   -0.734107
    141          1           0        5.218340   -1.997587    1.026260
    142          1           0       11.564269   -5.283236   -2.142732
    143          1           0       14.100131   -5.490926   -0.566408
    144          1           0       12.301751   -6.968977   -0.042079
    145          1           0       10.657381   -6.886089   -0.389207
    146          1           0       11.262123   -5.866851    0.901733
    147          1           0       14.062847   -4.385646   -3.347766
    148          1           0       13.440177   -5.969797   -3.156439
    149          1           0       16.033565   -5.152836   -3.213307
    150          1           0       15.548203   -6.722692   -3.427343
    151          1           0       15.749412   -6.129025   -1.737138
    152          1           0       17.718320   -2.357771   -1.760137
    153          1           0       18.321666   -1.737600   -0.210450
    154          1           0       18.527592   -0.670079   -1.582101
    155          1           0       15.579559    3.620693   -0.733888
    156          1           0       17.520137    4.874841    2.990911
    157          1           0       15.838585    5.348676    2.605877
    158          1           0       17.269258    6.331892    1.994551
 ---------------------------------------------------------------------

 SCF Done:  E(RCAM-B3LYP) =  -4069.79362107     A.U. after   19 cycles

 Excitation energies and oscillator strengths:

 Excited State   1:      Singlet-A      1.6712 eV  741.90 nm  f=0.4900  <S**2>=0.000
     309 -> 315        0.14711
     311 -> 313        0.64495
     312 -> 314        0.24078
 This state for optimization and/or second-order correction.
 Total Energy, E(TD-HF/TD-DFT) =  -4069.73220693
 Copying the excited state density for this state as the 1-particle RhoCI density.

 Excited State   2:      Singlet-A      1.6790 eV  738.42 nm  f=0.3185  <S**2>=0.000
     310 -> 316       -0.16224
     311 -> 313       -0.24100
     312 -> 314        0.64356

 Excited State   3:      Singlet-A      2.1913 eV  565.80 nm  f=0.1010  <S**2>=0.000
     309 -> 313        0.64223
     311 -> 315       -0.25635

 Excited State   4:      Singlet-A      2.1969 eV  564.37 nm  f=0.1435  <S**2>=0.000
     310 -> 314        0.64191
     312 -> 316        0.27264

 Excited State   5:      Singlet-A      2.8119 eV  440.92 nm  f=0.0000  <S**2>=0.000
     312 -> 313        0.70703

 The electronic state is 1-A.
 Alpha  occ. eigenvalues --  -46.89198 -46.87926 -19.24544 -19.22173 -19.19884
 Alpha  occ. eigenvalues --  -19.19589 -19.19378 -19.19281 -19.18851 -19.17951
 Alpha  occ. eigenvalues --  -14.42558 -14.42271 -14.41994 -14.41820 -14.40268
 Alpha  occ. eigenvalues --  -14.40200 -14.39283 -14.38581 -10.39451 -10.38110
 Alpha  occ. eigenvalues --  -10.35555 -10.35485 -10.35327 -10.34203 -10.32076
 Alpha  occ. eigenvalues --  -10.31827 -10.31286 -10.31282 -10.31237 -10.31070
 Alpha  occ. eigenvalues --  -10.31060 -10.31047 -10.31030 -10.30758 -10.30733
 Alpha  occ. eigenvalues --  -10.30624 -10.30465 -10.30277 -10.30162 -10.29618
 Alpha  occ. eigenvalues --  -10.29527 -10.29426 -10.29285 -10.29235 -10.29136
 Alpha  occ. eigenvalues --  -10.28675 -10.28555 -10.28487 -10.28254 -10.28252
 Alpha  occ. eigenvalues --  -10.28248 -10.28126 -10.27858 -10.27857 -10.27855
 Alpha  occ. eigenvalues --  -10.27751 -10.27749 -10.27710 -10.27700 -10.27667
 Alpha  occ. eigenvalues --  -10.27634 -10.27610 -10.27484 -10.27466 -10.27308
 Alpha  occ. eigenvalues --  -10.27161 -10.26875 -10.26606 -10.26569 -10.26536
 Alpha  occ. eigenvalues --  -10.26488 -10.26481 -10.26449 -10.26356 -10.26307
 Alpha  occ. eigenvalues --  -10.26182 -10.25980 -10.25883 -10.25821 -10.25627
 Alpha  occ. eigenvalues --  -10.25583 -10.25331 -10.25321 -10.25067 -10.24855
 Alpha  occ. eigenvalues --  -10.24486  -3.17595  -3.16687  -1.92509  -1.92010
 Alpha  occ. eigenvalues --   -1.91927  -1.91556  -1.91152  -1.91005  -1.16780
 Alpha  occ. eigenvalues --   -1.15882  -1.10534  -1.10091  -1.09557  -1.08116
 Alpha  occ. eigenvalues --   -1.07721  -1.06955  -1.04632  -1.04402  -1.03432
 Alpha  occ. eigenvalues --   -1.02866  -1.02720  -1.02064  -1.01707  -1.00625
 Alpha  occ. eigenvalues --   -0.93452  -0.92589  -0.89353  -0.89185  -0.88852
 Alpha  occ. eigenvalues --   -0.88618  -0.88500  -0.88044  -0.87349  -0.87201
 Alpha  occ. eigenvalues --   -0.87188  -0.86936  -0.86674  -0.85679  -0.84392
 Alpha  occ. eigenvalues --   -0.84224  -0.83957  -0.83463  -0.82807  -0.82460
 Alpha  occ. eigenvalues --   -0.82406  -0.81889  -0.80976  -0.80868  -0.80226
 Alpha  occ. eigenvalues --   -0.80101  -0.78775  -0.78180  -0.77404  -0.77340
 Alpha  occ. eigenvalues --   -0.76898  -0.76694  -0.76037  -0.75263  -0.75235
 Alpha  occ. eigenvalues --   -0.74616  -0.73067  -0.72616  -0.71690  -0.71088
 Alpha  occ. eigenvalues --   -0.69328  -0.69145  -0.68690  -0.68560  -0.68003
 Alpha  occ. eigenvalues --   -0.67945  -0.67550  -0.67151  -0.65671  -0.65497
 Alpha  occ. eigenvalues --   -0.65304  -0.65002  -0.64997  -0.64714  -0.63978
 Alpha  occ. eigenvalues --   -0.63888  -0.62213  -0.60861  -0.60202  -0.60186
 Alpha  occ. eigenvalues --   -0.59729  -0.59403  -0.59177  -0.59000  -0.58877
 Alpha  occ. eigenvalues --   -0.58461  -0.58430  -0.58296  -0.57717  -0.57696
 Alpha  occ. eigenvalues --   -0.56505  -0.55968  -0.55848  -0.55576  -0.55286
 Alpha  occ. eigenvalues --   -0.55172  -0.54856  -0.53928  -0.53704  -0.53673
 Alpha  occ. eigenvalues --   -0.53631  -0.53492  -0.53396  -0.53264  -0.52996
 Alpha  occ. eigenvalues --   -0.52995  -0.52899  -0.52674  -0.52275  -0.52153
 Alpha  occ. eigenvalues --   -0.51975  -0.51802  -0.51603  -0.51456  -0.51365
 Alpha  occ. eigenvalues --   -0.51188  -0.50851  -0.50755  -0.50559  -0.50409
 Alpha  occ. eigenvalues --   -0.50124  -0.50004  -0.49910  -0.49791  -0.49700
 Alpha  occ. eigenvalues --   -0.49622  -0.49377  -0.49335  -0.49106  -0.48965
 Alpha  occ. eigenvalues --   -0.48732  -0.48588  -0.48537  -0.48239  -0.48079
 Alpha  occ. eigenvalues --   -0.48020  -0.47942  -0.47481  -0.47279  -0.47210
 Alpha  occ. eigenvalues --   -0.46950  -0.46832  -0.46812  -0.46491  -0.46477
 Alpha  occ. eigenvalues --   -0.46142  -0.46114  -0.45994  -0.45966  -0.45402
 Alpha  occ. eigenvalues --   -0.45314  -0.45275  -0.45075  -0.44977  -0.44814
 Alpha  occ. eigenvalues --   -0.44635  -0.44529  -0.44464  -0.44296  -0.44160
 Alpha  occ. eigenvalues --   -0.43668  -0.43662  -0.43513  -0.43477  -0.43333
 Alpha  occ. eigenvalues --   -0.43256  -0.43120  -0.43058  -0.42910  -0.42885
 Alpha  occ. eigenvalues --   -0.42698  -0.42507  -0.42444  -0.41981  -0.41946
 Alpha  occ. eigenvalues --   -0.41651  -0.41608  -0.41417  -0.41322  -0.41175
 Alpha  occ. eigenvalues --   -0.41159  -0.41024  -0.40639  -0.40514  -0.40131
 Alpha  occ. eigenvalues --   -0.40057  -0.39890  -0.39063  -0.39012  -0.38710
 Alpha  occ. eigenvalues --   -0.38536  -0.38093  -0.38042  -0.37838  -0.37818
 Alpha  occ. eigenvalues --   -0.37684  -0.37072  -0.36529  -0.36399  -0.36118
 Alpha  occ. eigenvalues --   -0.35925  -0.34924  -0.34456  -0.34453  -0.34169
 Alpha  occ. eigenvalues --   -0.34087  -0.33183  -0.32699  -0.31651  -0.31542
 Alpha  occ. eigenvalues --   -0.31540  -0.31432  -0.31356  -0.30356  -0.30065
 Alpha  occ. eigenvalues --   -0.30029  -0.29776  -0.29273  -0.24377  -0.23884
 Alpha  occ. eigenvalues --   -0.21463  -0.21017
 Alpha virt. eigenvalues --   -0.09282  -0.08750  -0.02171  -0.01543  -0.00235
 Alpha virt. eigenvalues --    0.00103   0.01744   0.01944   0.02418   0.02434
 Alpha virt. eigenvalues --    0.05051   0.05117   0.05122   0.05354   0.05787

 Mulliken charges:
               1
     1  Mg   0.819595
     2  C   -0.001650
     3  C   -0.062611
     4  C   -0.049376
     5  C   -0.063012
     6  N   -0.299524
     7  C   -0.121843
     8  C    0.023367
     9  C   -0.072055
    10  C    0.088101
    11  C    0.047654
    12  C    0.044000
    13  C   -0.030741
    14  H    0.030108
    15  N   -0.363601
    16  C    0.139404
    17  C   -0.155131
    18  C   -0.043539
    19  C    0.067623
    20  C    0.127951
    21  C    0.011795
    22  O   -0.199221
    23  C    0.049132
    24  N   -0.300413
    25  C    0.068882
    26  C   -0.058267
    27  C   -0.010028
    28  C    0.028483
    29  C    0.054626
    30  C    0.057233
    31  C   -0.011277
    32  N   -0.319260
    33  C    0.103442
    34  C   -0.191886
    35  C    0.027777
    36  C    0.105660
    37  C    0.107755
    38  C    0.039849
    39  O   -0.159238
    40  C    0.037434
    41  C    0.197743
    42  O   -0.232226
    43  O   -0.337791
    44  C    0.191758
    45  H   -0.027798
    46  H   -0.004917
    47  H   -0.030730
    48  H    0.010534
    49  H    0.014945
    50  H    0.011460
    51  H    0.006930
    52  H    0.029265
    53  H   -0.005381
    54  H    0.003446
    55  H    0.027505
    56  H    0.033867
    57  H    0.020792
    58  H    0.019025
    59  H    0.029010
    60  H    0.047563
    61  H    0.036894
    62  H    0.017776
    63  H    0.015872
    64  H    0.017510
    65  H    0.007171
    66  H    0.020921
    67  H    0.033763
    68  H    0.010974
    69  H    0.016173
    70  H    0.002522
    71  H    0.006578
    72  H    0.025423
    73  H   -0.003192
    74  H    0.037491
    75  H    0.027531
    76  H    0.052302
    77  H    0.027249
    78  H    0.040594
    79  H    0.034248
    80  Mg   0.826014
    81  C    0.028275
    82  C   -0.094167
    83  C   -0.058300
    84  C   -0.101696
    85  N   -0.299897
    86  C   -0.077934
    87  C    0.037495
    88  C   -0.089661
    89  C    0.070713
    90  C    0.065653
    91  C    0.032583
    92  C   -0.092757
    93  H    0.019566
    94  N   -0.403897
    95  C    0.188345
    96  C   -0.166090
    97  C    0.011985
    98  C    0.173275
    99  C    0.129736
   100  C   -0.020928
   101  O   -0.222339
   102  C    0.027981
   103  N   -0.333197
   104  C    0.018334
   105  C    0.006458
   106  C   -0.041522
   107  C    0.114586
   108  C    0.047018
   109  C    0.002756
   110  C   -0.000922
   111  N   -0.324975
   112  C    0.108884
   113  C   -0.169647
   114  C    0.001155
   115  C    0.102001
   116  C    0.151119
   117  C    0.020487
   118  O   -0.181773
   119  C   -0.047733
   120  C    0.190026
   121  O   -0.156610
   122  O   -0.359244
   123  C    0.189267
   124  H   -0.036604
   125  H   -0.001634
   126  H   -0.045785
   127  H    0.009200
   128  H    0.007030
   129  H    0.028578
   130  H    0.005728
   131  H    0.023975
   132  H    0.019560
   133  H    0.016508
   134  H    0.052543
   135  H    0.038899
   136  H    0.034121
   137  H    0.013103
   138  H    0.031591
   139  H    0.024641
   140  H    0.051045
   141  H    0.032132
   142  H    0.025137
   143  H    0.015841
   144  H    0.012275
   145  H    0.024181
   146  H    0.035786
   147  H    0.008844
   148  H    0.005493
   149  H    0.005641
   150  H    0.015007
   151  H    0.015253
   152  H    0.020610
   153  H    0.030182
   154  H    0.042921
   155  H    0.023869
   156  H    0.031464
   157  H    0.021500
   158  H    0.040943
 Sum of Mulliken charges =  -0.00000

 Dipole moment (field-independent basis, Debye):
    X=             -6.2367    Y=             -0.3803    Z=              3.0348  Tot=              6.9463
 Quadrupole moment (field-independent basis, Debye-Ang):
   XX=           -622.5163   YY=           -492.4464   ZZ=           -505.7527
   XY=            -17.4309   XZ=            -72.1636   YZ=             36.7913

 Normal termination of Gaussian 16 at Wed Sep 15 22:41:49 2021.
