 Gaussian 16, Revision A.03,
 Gaussian 16:  ES64L-G16RevA.03 25-Dec-2016

 -----------------------------------
 #p cam-b3lyp/Def2SVP td=(nstates=5)
 -----------------------------------

 --------------------------------
 TDDFT excited states in gaussian
 --------------------------------
 Symbolic Z-matrix:
 Charge =  0 Multiplicity = 1

                         Standard orientation:
 ---------------------------------------------------------------------
 Center     Atomic      Atomic             Coordinates (Angstroms)
 Number     Number       Type             X           Y           Z
 ---------------------------------------------------------------------
      1         12           0       27.834281   -0.624221    0.197320
      2          6           0       25.666263    1.747042    1.414128
      3          6           0       29.596413    1.988446   -1.454494
      4          6           0       29.715845   -2.859788   -1.503158
      5          6           0       25.979067   -3.106958    1.479832
      6          7           0       27.638600    1.620985    0.005208
      7          6           0       26.639503    2.340356    0.604100
      8          6           0       26.836204    3.842194    0.385619
      9          6           0       28.000771    3.832972   -0.708940
     10          6           0       28.446534    2.400177   -0.732507
     11          6           0       27.580455    4.429726   -2.102109
     12          6           0       27.251021    4.633781    1.708909
     13          6           0       26.648946    5.966879    2.082734
     14          1           0       26.550740    7.017930    1.034781
     15          7           0       29.491745   -0.488213   -1.255365
     16          6           0       30.153260    0.625098   -1.640894
     17          6           0       31.326724    0.303754   -2.381955
     18          6           0       31.411820   -1.124306   -2.388812
     19          6           0       30.125976   -1.536304   -1.750690
     20          6           0       32.125308    1.418231   -2.977120
     21          6           0       32.422795   -2.013766   -3.092176
     22          8           0       32.236492   -3.223067   -3.259399
     23          6           0       33.710643   -1.423791   -3.639540
     24          7           0       27.761240   -2.729130   -0.118925
     25          6           0       28.735527   -3.423945   -0.763142
     26          6           0       28.557504   -4.926394   -0.551047
     27          6           0       27.445807   -4.974189    0.565028
     28          6           0       27.033382   -3.518691    0.662953
     29          6           0       28.314382   -5.888533   -1.751203
     30          6           0       27.845810   -5.650367    1.942413
     31          6           0       28.382499   -4.810241    3.081930
     32          7           0       26.130136   -0.716894    1.140637
     33          6           0       25.504902   -1.768569    1.761072
     34          6           0       24.307520   -1.400467    2.424399
     35          6           0       24.346105   -0.011054    2.361836
     36          6           0       25.481721    0.352788    1.593341
     37          6           0       23.242825   -2.193117    3.171441
     38          6           0       23.695601    1.175907    2.708392
     39          8           0       22.641804    1.310843    3.302576
     40          6           0       24.502921    2.450381    2.089778
     41          6           0       23.601876    3.153037    1.184658
     42          8           0       23.134360    2.700876    0.120721
     43          8           0       23.244877    4.387718    1.627339
     44          6           0       22.112615    5.069087    0.989785
     45          1           0       30.102761    2.875556   -1.839668
     46          1           0       30.467693   -3.593203   -1.801266
     47          1           0       25.578514   -3.825727    2.196712
     48          1           0       25.882191    4.271881    0.077463
     49          1           0       28.831136    4.473446   -0.411160
     50          1           0       28.236179    5.274435   -2.310480
     51          1           0       26.518068    4.649671   -1.995532
     52          1           0       27.769554    3.785664   -2.961439
     53          1           0       28.321474    4.762817    1.548004
     54          1           0       27.272807    3.968092    2.571098
     55          1           0       27.124360    6.350037    2.985631
     56          1           0       25.601340    5.759197    2.297646
     57          1           0       33.161045    1.169520   -2.748729
     58          1           0       31.916282    2.359309   -2.467810
     59          1           0       32.005288    1.579866   -4.048910
     60          1           0       34.187552   -0.704028   -2.973601
     61          1           0       33.561864   -1.118266   -4.676121
     62          1           0       34.395859   -2.271358   -3.673077
     63          1           0       29.546056   -5.243835   -0.218547
     64          1           0       26.616262   -5.631031    0.305983
     65          1           0       27.289735   -6.259687   -1.735841
     66          1           0       28.995254   -6.727731   -1.609846
     67          1           0       28.539110   -5.306734   -2.644456
     68          1           0       28.598062   -6.402271    1.707866
     69          1           0       26.982564   -6.166752    2.362846
     70          1           0       29.323623   -5.203111    3.467412
     71          1           0       27.688457   -4.713639    3.917898
     72          1           0       28.538010   -3.822495    2.647986
     73          1           0       23.528653   -3.245550    3.187503
     74          1           0       22.280565   -2.051726    2.678694
     75          1           0       23.177532   -1.808942    4.189015
     76          1           0       24.638952    3.045303    2.993384
     77          1           0       21.634023    5.819480    1.619190
     78          1           0       21.377555    4.418210    0.517295
     79          1           0       22.564739    5.707246    0.230391
     80         12           0      -27.758989   -0.669727   -0.031688
     81          6           0      -26.064645    2.338314   -1.156352
     82          6           0      -28.579285    1.104147    2.715197
     83          6           0      -29.191740   -3.344777    0.965366
     84          6           0      -26.468689   -2.361242   -2.862019
     85          7           0      -27.351095    1.595915    0.678266
     86          6           0      -26.743268    2.597162    0.018793
     87          6           0      -26.930424    3.925339    0.776746
     88          6           0      -27.333984    3.299017    2.192158
     89          6           0      -27.834519    1.960002    1.845653
     90          6           0      -26.370174    3.463676    3.355311
     91          6           0      -28.005823    4.757773    0.057380
     92          6           0      -27.851484    6.287682    0.302723
     93          1           0      -26.550758    6.940537    0.963635
     94          7           0      -28.821192   -1.091617    1.629761
     95          6           0      -28.997633   -0.265358    2.723061
     96          6           0      -29.725410   -1.017191    3.740862
     97          6           0      -29.981486   -2.305468    3.209848
     98          6           0      -29.309247   -2.275697    1.879997
     99          6           0      -30.091045   -0.486724    5.055345
    100          6           0      -30.822625   -3.538821    3.832253
    101          8           0      -31.094244   -4.507735    3.177402
    102          6           0      -31.568242   -3.408554    5.172526
    103          7           0      -27.579238   -2.649201   -0.722893
    104          6           0      -28.417942   -3.540826   -0.201289
    105          6           0      -28.455258   -4.858346   -0.927940
    106          6           0      -27.924681   -4.391080   -2.305340
    107          6           0      -27.142264   -3.103651   -1.872313
    108          6           0      -27.523366   -5.989816   -0.288038
    109          6           0      -29.016163   -4.154123   -3.431745
    110          6           0      -30.335344   -4.980051   -3.420445
    111          7           0      -26.451306   -0.208839   -1.609801
    112          6           0      -26.062071   -0.920460   -2.696468
    113          6           0      -25.372447   -0.131719   -3.613754
    114          6           0      -25.320402    1.096948   -3.019837
    115          6           0      -25.993520    1.052946   -1.814916
    116          6           0      -24.875570   -0.576076   -4.986715
    117          6           0      -24.824316    2.459003   -3.267709
    118          8           0      -24.060478    2.930427   -4.096775
    119          6           0      -25.390816    3.320099   -2.055806
    120          6           0      -24.273025    4.043854   -1.475892
    121          8           0      -23.410012    3.593408   -0.715747
    122          8           0      -24.193688    5.225355   -2.122876
    123          6           0      -22.916781    5.886085   -1.920322
    124          1           0      -28.682405    1.621549    3.671371
    125          1           0      -29.658685   -4.250473    1.356542
    126          1           0      -26.175474   -2.900820   -3.764776
    127          1           0      -25.982659    4.445944    0.914482
    128          1           0      -28.201676    3.866793    2.525292
    129          1           0      -26.770737    4.115927    4.130749
    130          1           0      -25.423373    3.873858    3.004507
    131          1           0      -26.071109    2.524827    3.821437
    132          1           0      -28.964735    4.507667    0.511839
    133          1           0      -28.101917    4.536745   -1.005481
    134          1           0      -28.728410    6.707733    0.796373
    135          1           0      -28.059392    6.690532   -0.688434
    136          1           0      -30.147863    0.601579    5.050780
    137          1           0      -29.310008   -0.839038    5.729327
    138          1           0      -31.061354   -0.826627    5.418040
    139          1           0      -32.388671   -2.691247    5.152230
    140          1           0      -30.779192   -3.245921    5.907054
    141          1           0      -31.960442   -4.380559    5.472812
    142          1           0      -29.505667   -5.140197   -0.859141
    143          1           0      -27.203940   -5.081751   -2.742388
    144          1           0      -28.193675   -6.849036   -0.290085
    145          1           0      -27.203320   -5.785367    0.734266
    146          1           0      -26.639520   -6.258384   -0.865388
    147          1           0      -28.536096   -4.249023   -4.404687
    148          1           0      -29.339424   -3.143134   -3.183103
    149          1           0      -31.080800   -4.496167   -2.789838
    150          1           0      -30.004843   -5.972933   -3.113404
    151          1           0      -30.743318   -5.118615   -4.421075
    152          1           0      -25.576826   -1.353437   -5.291039
    153          1           0      -23.895657   -1.051566   -4.956264
    154          1           0      -24.898425    0.286303   -5.652716
    155          1           0      -26.122086    4.006861   -2.483926
    156          1           0      -22.829025    6.831247   -2.455349
    157          1           0      -22.025336    5.265570   -2.013383
    158          1           0      -22.824793    6.224114   -0.887576
 ---------------------------------------------------------------------

 SCF Done:  E(RCAM-B3LYP) =  -4069.80869314     A.U. after   18 cycles

 Excitation energies and oscillator strengths:

 Excited State   1:      Singlet-A      1.7199 eV  720.87 nm  f=0.4173  <S**2>=0.000
     309 -> 315        0.17811
     311 -> 313        0.68656
     309 <- 315        0.10694
 This state for optimization and/or second-order correction.
 Total Energy, E(TD-HF/TD-DFT) =  -4069.74548683
 Copying the excited state density for this state as the 1-particle RhoCI density.

 Excited State   2:      Singlet-A      1.8346 eV  675.82 nm  f=0.3715  <S**2>=0.000
     310 -> 316        0.18806
     312 -> 314        0.68158
     310 <- 316        0.10395

 Excited State   3:      Singlet-A      2.1905 eV  566.02 nm  f=0.1746  <S**2>=0.000
     309 -> 313        0.66247
     311 -> 315       -0.23743

 Excited State   4:      Singlet-A      2.2402 eV  553.46 nm  f=0.1575  <S**2>=0.000
     310 -> 314        0.65519
     312 -> 316       -0.25326

 Excited State   5:      Singlet-A      3.1682 eV  391.34 nm  f=0.0000  <S**2>=0.000
     312 -> 313        0.70710

 The electronic state is 1-A.
 Alpha  occ. eigenvalues --  -46.89343 -46.89098 -19.25069 -19.24870 -19.20508
 Alpha  occ. eigenvalues --  -19.18865 -19.18839 -19.18742 -19.18589 -19.18523
 Alpha  occ. eigenvalues --  -14.42125 -14.41533 -14.41462 -14.41110 -14.39934
 Alpha  occ. eigenvalues --  -14.39570 -14.39493 -14.38624 -10.38934 -10.38192
 Alpha  occ. eigenvalues --  -10.36960 -10.35354 -10.34796 -10.34517 -10.31616
 Alpha  occ. eigenvalues --  -10.31229 -10.31065 -10.30867 -10.30776 -10.30714
 Alpha  occ. eigenvalues --  -10.30602 -10.30506 -10.30419 -10.30119 -10.30065
 Alpha  occ. eigenvalues --  -10.30043 -10.29873 -10.29583 -10.29567 -10.29408
 Alpha  occ. eigenvalues --  -10.29185 -10.29001 -10.28571 -10.28481 -10.28447
 Alpha  occ. eigenvalues --  -10.28390 -10.28349 -10.28265 -10.27997 -10.27992
 Alpha  occ. eigenvalues --  -10.27966 -10.27947 -10.27817 -10.27687 -10.27673
 Alpha  occ. eigenvalues --  -10.27506 -10.27491 -10.27487 -10.27463 -10.27449
 Alpha  occ. eigenvalues --  -10.27349 -10.27306 -10.27277 -10.27243 -10.27108
 Alpha  occ. eigenvalues --  -10.27104 -10.26904 -10.26858 -10.26597 -10.26481
 Alpha  occ. eigenvalues --  -10.26409 -10.26223 -10.26195 -10.26170 -10.26064
 Alpha  occ. eigenvalues --  -10.26057 -10.25970 -10.25703 -10.25522 -10.25449
 Alpha  occ. eigenvalues --  -10.25349 -10.25203 -10.25198 -10.25032 -10.24612
 Alpha  occ. eigenvalues --  -10.23699  -3.17843  -3.17707  -1.92744  -1.92590
 Alpha  occ. eigenvalues --   -1.92317  -1.92128  -1.92123  -1.92056  -1.16462
 Alpha  occ. eigenvalues --   -1.15853  -1.12590  -1.09882  -1.09450  -1.09431
 Alpha  occ. eigenvalues --   -1.06612  -1.05847  -1.05764  -1.05366  -1.05182
 Alpha  occ. eigenvalues --   -1.04633  -1.04616  -1.04146  -1.03472  -1.03392
 Alpha  occ. eigenvalues --   -0.92606  -0.92324  -0.89150  -0.89014  -0.88726
 Alpha  occ. eigenvalues --   -0.88249  -0.88193  -0.88087  -0.87774  -0.87502
 Alpha  occ. eigenvalues --   -0.87411  -0.86883  -0.86414  -0.85568  -0.84350
 Alpha  occ. eigenvalues --   -0.84277  -0.83759  -0.83083  -0.82676  -0.82361
 Alpha  occ. eigenvalues --   -0.81921  -0.81834  -0.81159  -0.80709  -0.80316
 Alpha  occ. eigenvalues --   -0.80073  -0.78585  -0.78382  -0.77471  -0.77092
 Alpha  occ. eigenvalues --   -0.76817  -0.76615  -0.76245  -0.75690  -0.75486
 Alpha  occ. eigenvalues --   -0.75241  -0.73535  -0.72734  -0.71640  -0.71539
 Alpha  occ. eigenvalues --   -0.69641  -0.69627  -0.69207  -0.68741  -0.68123
 Alpha  occ. eigenvalues --   -0.67557  -0.67122  -0.66748  -0.65628  -0.65422
 Alpha  occ. eigenvalues --   -0.65115  -0.65050  -0.64762  -0.64646  -0.64203
 Alpha  occ. eigenvalues --   -0.63662  -0.62237  -0.61783  -0.60793  -0.60173
 Alpha  occ. eigenvalues --   -0.59828  -0.59484  -0.59220  -0.59061  -0.58385
 Alpha  occ. eigenvalues --   -0.58288  -0.57905  -0.57895  -0.57456  -0.57286
 Alpha  occ. eigenvalues --   -0.56517  -0.56236  -0.55455  -0.55399  -0.55166
 Alpha  occ. eigenvalues --   -0.54975  -0.54872  -0.54605  -0.54067  -0.54021
 Alpha  occ. eigenvalues --   -0.53765  -0.53586  -0.53296  -0.53123  -0.52937
 Alpha  occ. eigenvalues --   -0.52850  -0.52783  -0.52589  -0.52251  -0.52216
 Alpha  occ. eigenvalues --   -0.52077  -0.51654  -0.51429  -0.51270  -0.51137
 Alpha  occ. eigenvalues --   -0.50750  -0.50635  -0.50559  -0.50441  -0.50265
 Alpha  occ. eigenvalues --   -0.50015  -0.49836  -0.49689  -0.49532  -0.49224
 Alpha  occ. eigenvalues --   -0.49086  -0.49063  -0.48897  -0.48790  -0.48754
 Alpha  occ. eigenvalues --   -0.48746  -0.48590  -0.48556  -0.48274  -0.48206
 Alpha  occ. eigenvalues --   -0.47883  -0.47817  -0.47540  -0.47482  -0.47371
 Alpha  occ. eigenvalues --   -0.47138  -0.47026  -0.46849  -0.46712  -0.46514
 Alpha  occ. eigenvalues --   -0.46187  -0.46160  -0.45952  -0.45881  -0.45737
 Alpha  occ. eigenvalues --   -0.45415  -0.45309  -0.44983  -0.44913  -0.44625
 Alpha  occ. eigenvalues --   -0.44479  -0.44355  -0.44304  -0.44040  -0.43935
 Alpha  occ. eigenvalues --   -0.43919  -0.43878  -0.43783  -0.43619  -0.43365
 Alpha  occ. eigenvalues --   -0.43286  -0.43232  -0.43206  -0.42957  -0.42942
 Alpha  occ. eigenvalues --   -0.42636  -0.42456  -0.42235  -0.42221  -0.42054
 Alpha  occ. eigenvalues --   -0.41874  -0.41819  -0.41512  -0.41393  -0.41333
 Alpha  occ. eigenvalues --   -0.41312  -0.41106  -0.40616  -0.40383  -0.39983
 Alpha  occ. eigenvalues --   -0.39829  -0.39714  -0.39516  -0.39313  -0.38583
 Alpha  occ. eigenvalues --   -0.38505  -0.38232  -0.38227  -0.38062  -0.37428
 Alpha  occ. eigenvalues --   -0.37335  -0.36602  -0.36580  -0.36022  -0.35900
 Alpha  occ. eigenvalues --   -0.35663  -0.35628  -0.34548  -0.34151  -0.33701
 Alpha  occ. eigenvalues --   -0.33432  -0.32875  -0.32459  -0.31910  -0.31503
 Alpha  occ. eigenvalues --   -0.31328  -0.31213  -0.30882  -0.30587  -0.30410
 Alpha  occ. eigenvalues --   -0.30345  -0.30086  -0.29457  -0.23827  -0.23354
 Alpha  occ. eigenvalues --   -0.21459  -0.21345
 Alpha virt. eigenvalues --   -0.09078  -0.08235  -0.01184  -0.01058   0.00234
 Alpha virt. eigenvalues --    0.00586   0.01851   0.02442   0.02482   0.02763
 Alpha virt. eigenvalues --    0.04222   0.04767   0.05740   0.05904   0.06158

 Mulliken charges:
               1
     1  Mg   0.838545
     2  C    0.011617
     3  C   -0.053542
     4  C   -0.054124
     5  C   -0.074709
     6  N   -0.259015
     7  C   -0.044618
     8  C   -0.039945
     9  C   -0.067781
    10  C    0.025087
    11  C    0.071341
    12  C    0.050795
    13  C   -0.046905
    14  H    0.016641
    15  N   -0.276118
    16  C    0.108828
    17  C   -0.140183
    18  C   -0.038882
    19  C    0.073795
    20  C    0.126620
    21  C   -0.001527
    22  O   -0.216474
    23  C    0.046162
    24  N   -0.278501
    25  C    0.028276
    26  C   -0.031827
    27  C    0.005455
    28  C    0.043859
    29  C    0.083013
    30  C   -0.011473
    31  C    0.012523
    32  N   -0.385129
    33  C    0.091416
    34  C   -0.180233
    35  C    0.092699
    36  C    0.102455
    37  C    0.138696
    38  C   -0.042508
    39  O   -0.171675
    40  C    0.016074
    41  C    0.193097
    42  O   -0.252890
    43  O   -0.327426
    44  C    0.186363
    45  H   -0.035448
    46  H   -0.008350
    47  H   -0.023981
    48  H    0.024597
    49  H    0.018090
    50  H    0.010035
    51  H    0.028627
    52  H    0.019053
    53  H   -0.011575
    54  H    0.007802
    55  H    0.032230
    56  H    0.033351
    57  H    0.009154
    58  H    0.014677
    59  H    0.039616
    60  H    0.033206
    61  H    0.047636
    62  H    0.024832
    63  H    0.009808
    64  H    0.009939
    65  H    0.015182
    66  H    0.018525
    67  H    0.029853
    68  H    0.004403
    69  H    0.004802
    70  H    0.014791
    71  H    0.015387
    72  H    0.016067
    73  H    0.004400
    74  H    0.043852
    75  H    0.038556
    76  H    0.030560
    77  H    0.035070
    78  H    0.058285
    79  H    0.019098
    80  Mg   0.824260
    81  C    0.010043
    82  C   -0.058327
    83  C   -0.077499
    84  C   -0.071155
    85  N   -0.187791
    86  C   -0.104807
    87  C   -0.021611
    88  C   -0.036013
    89  C   -0.028533
    90  C    0.088090
    91  C    0.049005
    92  C   -0.037972
    93  H    0.035315
    94  N   -0.382889
    95  C    0.143312
    96  C   -0.138003
    97  C   -0.053156
    98  C    0.096483
    99  C    0.105622
   100  C    0.029686
   101  O   -0.167276
   102  C    0.040806
   103  N   -0.248098
   104  C    0.043867
   105  C   -0.049677
   106  C   -0.064501
   107  C    0.033784
   108  C    0.074638
   109  C    0.034636
   110  C    0.005250
   111  N   -0.317541
   112  C    0.075674
   113  C   -0.206295
   114  C    0.001061
   115  C    0.122227
   116  C    0.136339
   117  C    0.060783
   118  O   -0.161540
   119  C   -0.025064
   120  C    0.186357
   121  O   -0.243509
   122  O   -0.299425
   123  C    0.194940
   124  H   -0.035362
   125  H   -0.014033
   126  H   -0.022068
   127  H    0.018019
   128  H   -0.009363
   129  H    0.017774
   130  H    0.020707
   131  H    0.014770
   132  H    0.007782
   133  H    0.024748
   134  H    0.015694
   135  H    0.014650
   136  H    0.021417
   137  H    0.041750
   138  H    0.018422
   139  H    0.065177
   140  H    0.023189
   141  H    0.023993
   142  H    0.019495
   143  H   -0.009330
   144  H    0.020085
   145  H    0.023948
   146  H    0.021317
   147  H    0.012425
   148  H    0.003377
   149  H    0.029265
   150  H    0.014355
   151  H    0.015684
   152  H    0.005768
   153  H    0.029864
   154  H    0.032436
   155  H    0.043028
   156  H    0.030131
   157  H    0.042744
   158  H    0.006642
 Sum of Mulliken charges =  -0.00000

 Dipole moment (field-independent basis, Debye):
    X=             -0.7101    Y=              1.9514    Z=              4.8409  Tot=              5.2675
 Quadrupole moment (field-independent basis, Debye-Ang):
   XX=            -58.9112   YY=           -472.5010   ZZ=           -503.9322
   XY=             38.5312   XZ=            -69.6168   YZ=              1.1549

 Normal termination of Gaussian 16 at Fri Sep  3 05:10:46 2021.
