 Gaussian 16, Revision A.03,
 Gaussian 16:  ES64L-G16RevA.03 25-Dec-2016

 ----------------------------------------------------------
 #p cam-b3lyp/Def2SVP td=(nstates=5) density=(transition=1)
 ----------------------------------------------------------

 --------------------------------
 TDDFT excited states in gaussian
 --------------------------------
 Symbolic Z-matrix:
 Charge =  0 Multiplicity = 1

                         Standard orientation:
 ---------------------------------------------------------------------
 Center     Atomic      Atomic             Coordinates (Angstroms)
 Number     Number       Type             X           Y           Z
 ---------------------------------------------------------------------
      1         12           0      -25.157822   -0.649880   -0.385420
      2          6           0      -25.463296    2.107730    1.714933
      3          6           0      -25.051827    1.384644   -3.068870
      4          6           0      -25.320964   -3.392900   -2.353846
      5          6           0      -25.762827   -2.661144    2.349278
      6          7           0      -25.270572    1.551520   -0.614517
      7          6           0      -25.182007    2.471977    0.398631
      8          6           0      -25.061243    3.840234   -0.156344
      9          6           0      -24.981412    3.686626   -1.679629
     10          6           0      -25.085317    2.111480   -1.864185
     11          6           0      -25.942122    4.480312   -2.551413
     12          6           0      -23.798509    4.641074    0.499596
     13          6           0      -24.102312    5.927369    1.302971
     14          1           0      -23.205868    7.136445    1.196090
     15          7           0      -25.061599   -0.971018   -2.413682
     16          6           0      -25.035514    0.013187   -3.390361
     17          6           0      -25.045975   -0.589963   -4.673304
     18          6           0      -25.129470   -1.997841   -4.497491
     19          6           0      -25.153979   -2.174297   -3.041850
     20          6           0      -24.848600    0.335201   -5.937248
     21          6           0      -25.250459   -3.021791   -5.624769
     22          8           0      -25.401778   -4.243341   -5.472023
     23          6           0      -25.104189   -2.587123   -7.016601
     24          7           0      -25.735809   -2.738210   -0.131326
     25          6           0      -25.614963   -3.678755   -1.045229
     26          6           0      -26.057290   -5.051147   -0.489339
     27          6           0      -25.683800   -4.792404    1.023402
     28          6           0      -25.699543   -3.269252    1.104730
     29          6           0      -27.552031   -5.526302   -0.616791
     30          6           0      -24.294596   -5.400715    1.544456
     31          6           0      -23.052599   -4.967988    0.879431
     32          7           0      -25.600337   -0.418250    1.704087
     33          6           0      -25.814900   -1.362541    2.727157
     34          6           0      -26.036356   -0.679865    3.961938
     35          6           0      -25.979708    0.659420    3.631279
     36          6           0      -25.602726    0.764048    2.252314
     37          6           0      -26.514880   -1.268114    5.197927
     38          6           0      -25.918143    1.933326    4.176066
     39          8           0      -26.066653    2.340898    5.332728
     40          6           0      -25.682158    2.964541    2.980293
     41          6           0      -26.965931    3.714679    2.845108
     42          8           0      -28.097823    3.345018    2.612921
     43          8           0      -26.645476    4.989304    3.074687
     44          6           0      -27.767459    5.978696    2.969088
     45          1           0      -24.801527    2.134776   -3.821901
     46          1           0      -25.212505   -4.253356   -3.016344
     47          1           0      -25.887318   -3.313449    3.215901
     48          1           0      -25.986371    4.337992    0.131643
     49          1           0      -23.975620    3.948115   -2.007682
     50          1           0      -26.690437    3.694374   -2.646486
     51          1           0      -25.527128    4.868894   -3.481575
     52          1           0      -26.445171    5.356363   -2.142955
     53          1           0      -23.082439    4.867985   -0.289695
     54          1           0      -23.272457    4.073907    1.267922
     55          1           0      -24.007827    5.651798    2.353719
     56          1           0      -25.141757    6.236829    1.202352
     57          1           0      -25.654993    0.131383   -6.641472
     58          1           0      -23.933397   -0.134845   -6.297399
     59          1           0      -24.896769    1.415736   -5.801882
     60          1           0      -25.833407   -1.817265   -7.265078
     61          1           0      -25.490467   -3.408700   -7.619378
     62          1           0      -24.086558   -2.346264   -7.325103
     63          1           0      -25.320024   -5.794095   -0.793912
     64          1           0      -26.484444   -5.289723    1.570372
     65          1           0      -28.308079   -4.758099   -0.458951
     66          1           0      -27.605077   -6.320955    0.128265
     67          1           0      -27.742139   -5.939111   -1.607876
     68          1           0      -24.246302   -6.487608    1.473507
     69          1           0      -24.046086   -5.021481    2.535638
     70          1           0      -22.842191   -4.009957    1.352763
     71          1           0      -23.057520   -4.788732   -0.196149
     72          1           0      -22.151390   -5.563055    1.023445
     73          1           0      -27.594144   -1.324978    5.051372
     74          1           0      -26.309035   -0.694571    6.101224
     75          1           0      -26.043584   -2.222524    5.435164
     76          1           0      -24.801294    3.591907    3.117068
     77          1           0      -27.580749    6.496089    2.027788
     78          1           0      -27.758880    6.637392    3.837209
     79          1           0      -28.779406    5.582230    2.881500
     80         12           0       25.048251   -0.683170    0.372328
     81          6           0       25.822279    1.996446   -1.907877
     82          6           0       23.961079    1.565232    2.590107
     83          6           0       25.206063   -3.106966    2.681236
     84          6           0       26.660410   -2.827410   -1.887635
     85          7           0       24.969048    1.490495    0.345514
     86          6           0       25.143883    2.377680   -0.730230
     87          6           0       24.610964    3.818840   -0.378642
     88          6           0       24.092730    3.638002    1.080226
     89          6           0       24.298233    2.123587    1.349874
     90          6           0       24.724084    4.492347    2.150034
     91          6           0       23.519444    4.362553   -1.447375
     92          6           0       23.818846    5.744123   -2.042165
     93          1           0       22.683899    6.806311   -1.795164
     94          7           0       24.503854   -0.790601    2.341588
     95          6           0       24.084950    0.226754    3.100991
     96          6           0       23.823077   -0.199751    4.476714
     97          6           0       24.287937   -1.559893    4.506059
     98          6           0       24.713644   -1.886072    3.140971
     99          6           0       23.257976    0.683835    5.504412
    100          6           0       24.388532   -2.414148    5.808729
    101          8           0       24.726126   -3.585969    5.788556
    102          6           0       24.056762   -1.869855    7.161522
    103          7           0       25.800059   -2.614810    0.371815
    104          6           0       25.626515   -3.482064    1.445099
    105          6           0       26.133829   -4.918918    1.092588
    106          6           0       26.260495   -4.867492   -0.475736
    107          6           0       26.185315   -3.358688   -0.708591
    108          6           0       27.361339   -5.474835    1.885423
    109          6           0       25.126944   -5.614544   -1.230488
    110          6           0       25.477676   -6.403229   -2.466886
    111          7           0       26.090956   -0.486845   -1.490223
    112          6           0       26.679417   -1.443778   -2.267371
    113          6           0       27.107030   -0.803476   -3.587215
    114          6           0       26.745195    0.519479   -3.506019
    115          6           0       26.196145    0.681544   -2.187860
    116          6           0       27.692337   -1.600930   -4.730424
    117          6           0       26.734811    1.817878   -4.156059
    118          8           0       27.175405    2.028341   -5.305443
    119          6           0       26.192072    2.917208   -3.062061
    120          6           0       27.226261    3.927072   -2.610204
    121          8           0       28.324744    3.555261   -2.152006
    122          8           0       26.873030    5.237132   -2.936370
    123          6           0       28.014094    6.144235   -2.895223
    124          1           0       23.491817    2.227945    3.319930
    125          1           0       25.162180   -3.852382    3.477612
    126          1           0       27.037636   -3.575969   -2.588170
    127          1           0       25.513029    4.425641   -0.454721
    128          1           0       23.080399    4.044039    1.062546
    129          1           0       25.528132    5.125767    1.775113
    130          1           0       25.232790    3.713958    2.717733
    131          1           0       24.011853    5.141414    2.660375
    132          1           0       22.595762    4.353807   -0.869394
    133          1           0       23.369341    3.604714   -2.215843
    134          1           0       24.043072    5.585728   -3.097026
    135          1           0       24.716393    6.148360   -1.572338
    136          1           0       23.788134    0.840836    6.443246
    137          1           0       22.412269    0.124859    5.903325
    138          1           0       22.783420    1.592486    5.133290
    139          1           0       23.006170   -1.583518    7.099827
    140          1           0       24.632653   -0.950991    7.275203
    141          1           0       24.304181   -2.663178    7.865764
    142          1           0       25.287433   -5.557312    1.346014
    143          1           0       27.245788   -5.167206   -0.831988
    144          1           0       27.536130   -4.729015    2.660527
    145          1           0       28.234067   -5.688002    1.268826
    146          1           0       27.101523   -6.348146    2.484970
    147          1           0       24.519702   -4.743148   -1.474739
    148          1           0       24.511540   -6.263087   -0.606639
    149          1           0       24.913949   -7.332937   -2.388840
    150          1           0       26.532827   -6.673801   -2.517760
    151          1           0       25.018129   -5.870081   -3.299521
    152          1           0       27.766873   -2.634983   -4.394344
    153          1           0       28.716341   -1.263189   -4.888375
    154          1           0       27.098097   -1.440712   -5.629814
    155          1           0       25.301472    3.394294   -3.471120
    156          1           0       28.343734    6.522559   -3.861859
    157          1           0       28.889828    5.736343   -2.390229
    158          1           0       27.697255    6.999619   -2.299092
 ---------------------------------------------------------------------

 SCF Done:  E(RCAM-B3LYP) =  -4069.77501811     A.U. after   19 cycles

 Excitation energies and oscillator strengths:

 Excited State   1:      Singlet-A      1.6980 eV  730.19 nm  f=0.3877  <S**2>=0.000
     309 -> 316        0.17295
     312 -> 314        0.68791
     309 <- 316        0.10777
 This state for optimization and/or second-order correction.
 Total Energy, E(TD-HF/TD-DFT) =  -4069.71261883
 Copying the excited state density for this state as the 1-particle RhoCI density.

 Excited State   2:      Singlet-A      1.7047 eV  727.32 nm  f=0.4025  <S**2>=0.000
     310 -> 315       -0.17508
     311 -> 313        0.68556
     310 <- 315       -0.10607

 Excited State   3:      Singlet-A      2.1770 eV  569.53 nm  f=0.1385  <S**2>=0.000
     310 -> 313        0.65148
     311 -> 315        0.26310

 Excited State   4:      Singlet-A      2.2865 eV  542.24 nm  f=0.0918  <S**2>=0.000
     309 -> 314        0.63011
     312 -> 316       -0.31285

 Excited State   5:      Singlet-A      3.0203 eV  410.50 nm  f=0.0000  <S**2>=0.000
     312 -> 313        0.70711

 The electronic state is 1-A.
 Alpha  occ. eigenvalues --  -46.89379 -46.88395 -19.26713 -19.25082 -19.20866
 Alpha  occ. eigenvalues --  -19.19941 -19.19110 -19.18706 -19.18561 -19.18248
 Alpha  occ. eigenvalues --  -14.42580 -14.42038 -14.41866 -14.41664 -14.39740
 Alpha  occ. eigenvalues --  -14.39697 -14.39381 -14.39025 -10.40849 -10.38650
 Alpha  occ. eigenvalues --  -10.36518 -10.35112 -10.34940 -10.34193 -10.31757
 Alpha  occ. eigenvalues --  -10.31737 -10.31606 -10.31462 -10.31245 -10.30974
 Alpha  occ. eigenvalues --  -10.30663 -10.30662 -10.30349 -10.30321 -10.30142
 Alpha  occ. eigenvalues --  -10.30134 -10.29968 -10.29829 -10.29795 -10.29516
 Alpha  occ. eigenvalues --  -10.29149 -10.29143 -10.29024 -10.29018 -10.28877
 Alpha  occ. eigenvalues --  -10.28709 -10.28589 -10.28578 -10.28576 -10.28321
 Alpha  occ. eigenvalues --  -10.28251 -10.28193 -10.28061 -10.27923 -10.27903
 Alpha  occ. eigenvalues --  -10.27835 -10.27731 -10.27562 -10.27544 -10.27519
 Alpha  occ. eigenvalues --  -10.27510 -10.27479 -10.27376 -10.27305 -10.27235
 Alpha  occ. eigenvalues --  -10.27195 -10.27092 -10.26957 -10.26537 -10.26520
 Alpha  occ. eigenvalues --  -10.26500 -10.26416 -10.26301 -10.26160 -10.26155
 Alpha  occ. eigenvalues --  -10.26073 -10.25933 -10.25844 -10.25734 -10.25620
 Alpha  occ. eigenvalues --  -10.25544 -10.25512 -10.25442 -10.25231 -10.24770
 Alpha  occ. eigenvalues --  -10.24695  -3.17788  -3.17047  -1.92691  -1.92222
 Alpha  occ. eigenvalues --   -1.92105  -1.91928  -1.91486  -1.91374  -1.17044
 Alpha  occ. eigenvalues --   -1.16357  -1.10124  -1.09163  -1.09056  -1.08599
 Alpha  occ. eigenvalues --   -1.07973  -1.07396  -1.05461  -1.04297  -1.03933
 Alpha  occ. eigenvalues --   -1.03423  -1.03311  -1.02668  -1.02658  -1.01897
 Alpha  occ. eigenvalues --   -0.92648  -0.92251  -0.89259  -0.89130  -0.88787
 Alpha  occ. eigenvalues --   -0.88759  -0.88409  -0.88047  -0.88003  -0.87638
 Alpha  occ. eigenvalues --   -0.87343  -0.87243  -0.86902  -0.86136  -0.84676
 Alpha  occ. eigenvalues --   -0.84326  -0.84302  -0.83676  -0.83111  -0.82733
 Alpha  occ. eigenvalues --   -0.82047  -0.81949  -0.81602  -0.81220  -0.80779
 Alpha  occ. eigenvalues --   -0.80246  -0.78791  -0.78446  -0.77704  -0.77623
 Alpha  occ. eigenvalues --   -0.77420  -0.76944  -0.76238  -0.75987  -0.75405
 Alpha  occ. eigenvalues --   -0.74720  -0.73520  -0.72464  -0.71717  -0.70986
 Alpha  occ. eigenvalues --   -0.69427  -0.69131  -0.69016  -0.68419  -0.67928
 Alpha  occ. eigenvalues --   -0.67814  -0.67251  -0.66732  -0.65797  -0.65430
 Alpha  occ. eigenvalues --   -0.65354  -0.65007  -0.64911  -0.64856  -0.64368
 Alpha  occ. eigenvalues --   -0.64009  -0.62608  -0.62099  -0.60476  -0.60304
 Alpha  occ. eigenvalues --   -0.59963  -0.59788  -0.59348  -0.58933  -0.58656
 Alpha  occ. eigenvalues --   -0.58539  -0.58348  -0.58300  -0.57964  -0.57334
 Alpha  occ. eigenvalues --   -0.56477  -0.56272  -0.55816  -0.55520  -0.55444
 Alpha  occ. eigenvalues --   -0.55132  -0.55095  -0.54939  -0.54870  -0.54743
 Alpha  occ. eigenvalues --   -0.53786  -0.53531  -0.53428  -0.53292  -0.53149
 Alpha  occ. eigenvalues --   -0.53030  -0.52731  -0.52616  -0.52472  -0.52227
 Alpha  occ. eigenvalues --   -0.51944  -0.51847  -0.51633  -0.51502  -0.51289
 Alpha  occ. eigenvalues --   -0.51206  -0.51149  -0.51129  -0.50841  -0.50408
 Alpha  occ. eigenvalues --   -0.50264  -0.49840  -0.49767  -0.49624  -0.49493
 Alpha  occ. eigenvalues --   -0.49388  -0.49239  -0.49172  -0.49030  -0.48806
 Alpha  occ. eigenvalues --   -0.48640  -0.48543  -0.48392  -0.48336  -0.48160
 Alpha  occ. eigenvalues --   -0.48113  -0.47969  -0.47409  -0.47252  -0.47152
 Alpha  occ. eigenvalues --   -0.47038  -0.46876  -0.46770  -0.46708  -0.46499
 Alpha  occ. eigenvalues --   -0.46278  -0.46036  -0.46033  -0.45962  -0.45853
 Alpha  occ. eigenvalues --   -0.45690  -0.45384  -0.45289  -0.44675  -0.44585
 Alpha  occ. eigenvalues --   -0.44513  -0.44343  -0.44157  -0.44151  -0.44096
 Alpha  occ. eigenvalues --   -0.44048  -0.43830  -0.43762  -0.43629  -0.43402
 Alpha  occ. eigenvalues --   -0.43231  -0.43214  -0.43012  -0.42983  -0.42865
 Alpha  occ. eigenvalues --   -0.42684  -0.42545  -0.42258  -0.42150  -0.41868
 Alpha  occ. eigenvalues --   -0.41740  -0.41721  -0.41644  -0.41137  -0.41109
 Alpha  occ. eigenvalues --   -0.41008  -0.40801  -0.40752  -0.40574  -0.40202
 Alpha  occ. eigenvalues --   -0.40192  -0.39563  -0.39516  -0.39148  -0.38978
 Alpha  occ. eigenvalues --   -0.38308  -0.38102  -0.38065  -0.37825  -0.37732
 Alpha  occ. eigenvalues --   -0.37442  -0.37430  -0.37055  -0.36433  -0.36409
 Alpha  occ. eigenvalues --   -0.36161  -0.36123  -0.35168  -0.34515  -0.34451
 Alpha  occ. eigenvalues --   -0.34343  -0.33519  -0.32900  -0.31566  -0.31518
 Alpha  occ. eigenvalues --   -0.31404  -0.31076  -0.30710  -0.30569  -0.30495
 Alpha  occ. eigenvalues --   -0.30403  -0.30024  -0.29795  -0.24184  -0.24055
 Alpha  occ. eigenvalues --   -0.21479  -0.20791
 Alpha virt. eigenvalues --   -0.09018  -0.08440  -0.01656  -0.01331  -0.00058
 Alpha virt. eigenvalues --    0.00242   0.01772   0.01975   0.02314   0.02424
 Alpha virt. eigenvalues --    0.02790   0.04520   0.05303   0.05529   0.06062

 Mulliken charges:
               1
     1  Mg  11.999864
     2  C    5.998588
     3  C    6.000283
     4  C    6.001381
     5  C    6.000295
     6  N    6.999225
     7  C    6.001568
     8  C    5.999526
     9  C    6.000208
    10  C    5.999035
    11  C    6.000093
    12  C    5.999905
    13  C    5.999985
    14  H    1.000153
    15  N    7.000401
    16  C    5.998422
    17  C    5.999321
    18  C    5.999449
    19  C    5.998423
    20  C    6.000019
    21  C    5.999514
    22  O    7.998908
    23  C    6.000347
    24  N    7.000861
    25  C    5.998332
    26  C    6.000426
    27  C    5.999623
    28  C    6.000821
    29  C    5.999953
    30  C    5.999610
    31  C    6.000018
    32  N    6.999727
    33  C    6.001312
    34  C    6.001089
    35  C    6.000277
    36  C    6.001296
    37  C    5.999839
    38  C    6.000407
    39  O    8.001335
    40  C    6.000117
    41  C    6.000149
    42  O    8.000081
    43  O    8.000048
    44  C    5.999915
    45  H    0.999421
    46  H    0.999968
    47  H    1.000623
    48  H    0.999980
    49  H    0.999867
    50  H    1.000030
    51  H    0.999914
    52  H    0.999457
    53  H    1.000291
    54  H    0.999833
    55  H    0.999801
    56  H    0.999999
    57  H    0.999271
    58  H    0.999385
    59  H    0.999368
    60  H    0.999792
    61  H    0.999424
    62  H    0.999641
    63  H    1.000057
    64  H    1.000225
    65  H    0.999830
    66  H    0.999724
    67  H    1.000226
    68  H    1.000436
    69  H    0.999894
    70  H    0.999738
    71  H    1.000643
    72  H    1.000208
    73  H    1.000792
    74  H    1.000671
    75  H    1.000672
    76  H    1.000280
    77  H    1.000246
    78  H    1.000072
    79  H    1.000069
    80  Mg  11.996948
    81  C    5.971203
    82  C    6.021940
    83  C    6.019046
    84  C    5.975073
    85  N    6.993362
    86  C    6.040820
    87  C    5.989343
    88  C    6.013615
    89  C    5.965513
    90  C    6.000798
    91  C    5.995226
    92  C    5.996956
    93  H    1.010583
    94  N    7.007957
    95  C    5.954848
    96  C    5.976214
    97  C    5.988032
    98  C    5.956074
    99  C    6.008388
   100  C    5.987009
   101  O    7.976183
   102  C    6.002318
   103  N    6.999344
   104  C    5.968597
   105  C    6.008368
   106  C    5.990053
   107  C    6.033606
   108  C    5.998163
   109  C    5.998416
   110  C    5.997727
   111  N    6.997569
   112  C    6.048158
   113  C    6.031068
   114  C    6.002472
   115  C    6.038936
   116  C    5.995138
   117  C    6.016475
   118  O    8.029208
   119  C    6.006379
   120  C    6.005467
   121  O    8.003495
   122  O    8.002905
   123  C    5.996234
   124  H    0.991838
   125  H    0.991919
   126  H    1.009188
   127  H    1.001835
   128  H    0.994153
   129  H    0.987240
   130  H    1.006917
   131  H    0.997707
   132  H    1.011864
   133  H    0.995609
   134  H    0.996265
   135  H    1.001945
   136  H    0.975635
   137  H    0.979364
   138  H    0.979584
   139  H    0.994426
   140  H    0.994831
   141  H    0.985045
   142  H    0.999941
   143  H    0.999346
   144  H    1.005597
   145  H    0.987725
   146  H    0.998186
   147  H    0.999202
   148  H    1.012773
   149  H    1.005270
   150  H    1.001182
   151  H    0.995904
   152  H    1.020471
   153  H    1.021322
   154  H    1.020028
   155  H    1.008909
   156  H    1.003030
   157  H    1.003434
   158  H    1.007089
 Sum of Mulliken charges = 624.00000

 Dipole moment (field-independent basis, Debye):
    X=              3.5262    Y=              1.4345    Z=            -10.2923  Tot=             10.9738
 Quadrupole moment (field-independent basis, Debye-Ang):
   XX=            183.9623   YY=              2.8091   ZZ=            -11.7252
   XY=             36.3613   XZ=           -281.6188   YZ=              5.1175

 Normal termination of Gaussian 16 at Wed Sep 22 00:24:15 2021.
