 Gaussian 16, Revision A.03,
 Gaussian 16:  ES64L-G16RevA.03 25-Dec-2016

 -----------------------------------
 #p cam-b3lyp/Def2SVP td=(nstates=5)
 -----------------------------------

 --------------------------------
 TDDFT excited states in gaussian
 --------------------------------
 Symbolic Z-matrix:
 Charge =  0 Multiplicity = 1

                         Standard orientation:
 ---------------------------------------------------------------------
 Center     Atomic      Atomic             Coordinates (Angstroms)
 Number     Number       Type             X           Y           Z
 ---------------------------------------------------------------------
      1         12           0      -21.045903    0.067678    0.078899
      2          6           0      -17.950744    1.316059   -0.975999
      3          6           0      -21.308620   -1.310787   -3.082032
      4          6           0      -23.836692   -1.455489    1.095493
      5          6           0      -20.192459    0.807987    3.387065
      6          7           0      -19.557545   -0.123412   -1.827982
      7          6           0      -18.426473    0.580640   -2.025112
      8          6           0      -17.807737    0.361503   -3.384807
      9          6           0      -19.092797   -0.238189   -4.072935
     10          6           0      -20.058141   -0.647147   -2.965145
     11          6           0      -19.779665    0.844787   -4.947104
     12          6           0      -16.523306   -0.471291   -3.286473
     13          6           0      -16.453621   -1.662100   -2.307903
     14          1           0      -15.924567   -2.969506   -2.885551
     15          7           0      -22.378418   -1.179866   -0.844568
     16          6           0      -22.357637   -1.515870   -2.172269
     17          6           0      -23.694985   -1.977591   -2.566524
     18          6           0      -24.437289   -2.190217   -1.336632
     19          6           0      -23.544282   -1.580355   -0.304626
     20          6           0      -24.025207   -2.498023   -4.017663
     21          6           0      -25.799384   -2.873300   -1.191146
     22          8           0      -26.435320   -3.180240   -2.160749
     23          6           0      -26.372792   -3.122511    0.173981
     24          7           0      -21.766908   -0.447588    2.063894
     25          6           0      -23.045425   -1.003799    2.254595
     26          6           0      -23.460213   -1.092944    3.784070
     27          6           0      -22.264165   -0.283589    4.479057
     28          6           0      -21.350711    0.096517    3.225242
     29          6           0      -24.923582   -0.619147    4.259337
     30          6           0      -21.464324   -1.014261    5.651812
     31          6           0      -20.983624    0.050375    6.757020
     32          7           0      -19.436420    0.947012    1.080793
     33          6           0      -19.279042    1.259037    2.415883
     34          6           0      -18.044719    2.015501    2.587584
     35          6           0      -17.472754    2.152604    1.296456
     36          6           0      -18.330416    1.406311    0.410114
     37          6           0      -17.571559    2.686520    3.850412
     38          6           0      -16.324628    2.621933    0.454222
     39          8           0      -15.278436    3.139451    0.776340
     40          6           0      -16.662239    2.130255   -1.017231
     41          6           0      -16.782687    3.366507   -1.865309
     42          8           0      -15.800952    4.029433   -2.284267
     43          8           0      -18.109474    3.558135   -2.222632
     44          6           0      -18.340070    4.557747   -3.211377
     45          1           0      -21.436708   -1.669099   -4.105669
     46          1           0      -24.807022   -1.735058    1.511679
     47          1           0      -20.038278    1.205667    4.392445
     48          1           0      -17.619913    1.303636   -3.899447
     49          1           0      -18.968251   -1.108986   -4.715171
     50          1           0      -20.848595    0.637799   -4.890214
     51          1           0      -19.352197    0.855996   -5.948728
     52          1           0      -19.780142    1.880874   -4.607086
     53          1           0      -15.761261    0.211391   -2.911795
     54          1           0      -16.262157   -0.808496   -4.289638
     55          1           0      -17.460020   -1.888173   -1.956418
     56          1           0      -15.771443   -1.396026   -1.500989
     57          1           0      -23.665141   -3.502560   -4.241491
     58          1           0      -23.621172   -1.803169   -4.753969
     59          1           0      -25.076602   -2.486426   -4.302641
     60          1           0      -27.265239   -3.747885    0.133831
     61          1           0      -26.626305   -2.205944    0.707026
     62          1           0      -25.602729   -3.748491    0.625596
     63          1           0      -23.349263   -2.166251    3.933709
     64          1           0      -22.618073    0.663566    4.885157
     65          1           0      -25.574845   -1.490621    4.203366
     66          1           0      -25.304421    0.189102    3.635613
     67          1           0      -24.846992   -0.236022    5.277114
     68          1           0      -20.519920   -1.419226    5.288385
     69          1           0      -22.050232   -1.828248    6.079420
     70          1           0      -19.896444    0.069431    6.834104
     71          1           0      -21.393775   -0.226294    7.727832
     72          1           0      -21.176544    1.109592    6.590425
     73          1           0      -17.460129    1.925440    4.621967
     74          1           0      -18.316986    3.410157    4.180943
     75          1           0      -16.596805    3.158820    3.729503
     76          1           0      -15.747130    1.635517   -1.341909
     77          1           0      -19.395195    4.555430   -3.483925
     78          1           0      -17.645848    4.456008   -4.045706
     79          1           0      -18.226107    5.564565   -2.809683
     80         12           0       20.151771   -0.917990    0.050770
     81          6           0       21.489888    2.216047   -0.212265
     82          6           0       17.260938    0.321649    1.150174
     83          6           0       19.141628   -3.991446    0.445767
     84          6           0       23.447754   -2.135235   -0.547026
     85          7           0       19.488821    1.074035    0.600687
     86          6           0       20.117955    2.187659    0.148971
     87          6           0       19.200365    3.379331    0.124062
     88          6           0       17.923939    2.785989    0.844807
     89          6           0       18.251960    1.313059    0.959071
     90          6           0       17.557285    3.475573    2.180846
     91          6           0       18.977370    4.034572   -1.372040
     92          6           0       19.089259    5.558622   -1.530147
     93          1           0       18.829650    6.422107   -0.255825
     94          7           0       18.455349   -1.689238    0.518178
     95          6           0       17.333436   -1.064986    0.962386
     96          6           0       16.295900   -1.980728    1.370018
     97          6           0       16.744398   -3.207393    0.983123
     98          6           0       18.206436   -3.003125    0.741140
     99          6           0       15.094031   -1.392614    2.086399
    100          6           0       16.005262   -4.559979    1.011557
    101          8           0       16.509743   -5.614416    0.702716
    102          6           0       14.589231   -4.468221    1.498401
    103          7           0       21.236339   -2.781908    0.121396
    104          6           0       20.502042   -3.907439    0.180987
    105          6           0       21.379518   -5.144836   -0.032636
    106          6           0       22.682163   -4.544533   -0.662336
    107          6           0       22.475145   -3.053294   -0.326777
    108          6           0       21.665219   -6.092076    1.209475
    109          6           0       22.848789   -4.713331   -2.219535
    110          6           0       21.846748   -4.180978   -3.209866
    111          7           0       22.106919   -0.206903   -0.399829
    112          6           0       23.373965   -0.784624   -0.530126
    113          6           0       24.408841    0.229417   -0.769142
    114          6           0       23.705387    1.438468   -0.661504
    115          6           0       22.336785    1.083509   -0.444397
    116          6           0       25.861779    0.020869   -1.111197
    117          6           0       23.805030    2.825714   -0.690736
    118          8           0       24.747606    3.592562   -0.811541
    119          6           0       22.361007    3.388593   -0.640539
    120          6           0       22.472905    4.464837    0.370536
    121          8           0       22.474762    4.300598    1.592930
    122          8           0       22.691738    5.675527   -0.220268
    123          6           0       23.125379    6.810604    0.600503
    124          1           0       16.277343    0.765908    1.317741
    125          1           0       18.861769   -5.044614    0.504860
    126          1           0       24.389825   -2.647473   -0.756970
    127          1           0       19.561901    4.156626    0.797354
    128          1           0       17.077546    2.840100    0.160468
    129          1           0       17.870133    2.834924    3.005252
    130          1           0       16.473753    3.585200    2.226302
    131          1           0       18.092648    4.425000    2.195652
    132          1           0       17.976219    3.717145   -1.663906
    133          1           0       19.716260    3.646175   -2.072247
    134          1           0       18.320589    5.923486   -2.210892
    135          1           0       20.036186    5.811123   -2.007149
    136          1           0       15.315677   -0.890366    3.028187
    137          1           0       14.337421   -2.044258    2.523030
    138          1           0       14.669299   -0.772563    1.296918
    139          1           0       14.021521   -3.756998    0.898894
    140          1           0       14.732743   -4.235192    2.553282
    141          1           0       13.948373   -5.345666    1.419559
    142          1           0       20.770807   -5.726186   -0.726086
    143          1           0       23.539753   -4.891209   -0.085320
    144          1           0       21.151199   -5.702533    2.087862
    145          1           0       22.714466   -6.043662    1.498314
    146          1           0       21.430864   -7.149672    1.079109
    147          1           0       22.921981   -5.799834   -2.273480
    148          1           0       23.783153   -4.285953   -2.582021
    149          1           0       20.959999   -3.832148   -2.679015
    150          1           0       21.515828   -4.972909   -3.881586
    151          1           0       22.153736   -3.312929   -3.792919
    152          1           0       26.523724    0.271057   -0.283326
    153          1           0       26.123330    0.616888   -1.985692
    154          1           0       25.927370   -1.059249   -1.244511
    155          1           0       22.015733    3.711314   -1.622921
    156          1           0       23.682556    7.548255    0.021779
    157          1           0       23.596105    6.487407    1.527717
    158          1           0       22.287783    7.360527    1.029203
 ---------------------------------------------------------------------

 SCF Done:  E(RCAM-B3LYP) =  -4069.79675585     A.U. after   18 cycles

 Excitation energies and oscillator strengths:

 Excited State   1:      Singlet-A      1.7469 eV  709.74 nm  f=0.3730  <S**2>=0.000
     309 -> 315       -0.19404
     311 -> 313        0.68044
     309 <- 315       -0.10943
 This state for optimization and/or second-order correction.
 Total Energy, E(TD-HF/TD-DFT) =  -4069.73255838
 Copying the excited state density for this state as the 1-particle RhoCI density.

 Excited State   2:      Singlet-A      1.7685 eV  701.05 nm  f=0.3627  <S**2>=0.000
     310 -> 316        0.19158
     312 -> 314        0.68157
     310 <- 316        0.10595

 Excited State   3:      Singlet-A      2.2375 eV  554.13 nm  f=0.1043  <S**2>=0.000
     309 -> 313        0.63523
     311 -> 315        0.29910

 Excited State   4:      Singlet-A      2.2757 eV  544.81 nm  f=0.0578  <S**2>=0.000
     310 -> 314        0.61595
     312 -> 316       -0.33782

 Excited State   5:      Singlet-A      3.0116 eV  411.69 nm  f=0.0000  <S**2>=0.000
     312 -> 313        0.70710

 The electronic state is 1-A.
 Alpha  occ. eigenvalues --  -46.90439 -46.87923 -19.26086 -19.23878 -19.20060
 Alpha  occ. eigenvalues --  -19.19899 -19.19592 -19.19079 -19.18305 -19.17617
 Alpha  occ. eigenvalues --  -14.42302 -14.41856 -14.41674 -14.41027 -14.40566
 Alpha  occ. eigenvalues --  -14.39967 -14.39518 -14.38716 -10.40022 -10.38220
 Alpha  occ. eigenvalues --  -10.35928 -10.35834 -10.35345 -10.33512 -10.32874
 Alpha  occ. eigenvalues --  -10.32025 -10.31874 -10.31173 -10.30893 -10.30795
 Alpha  occ. eigenvalues --  -10.30629 -10.30624 -10.30549 -10.30416 -10.30254
 Alpha  occ. eigenvalues --  -10.30211 -10.30101 -10.29926 -10.29624 -10.29591
 Alpha  occ. eigenvalues --  -10.29308 -10.28997 -10.28993 -10.28932 -10.28892
 Alpha  occ. eigenvalues --  -10.28683 -10.28587 -10.28571 -10.28488 -10.28437
 Alpha  occ. eigenvalues --  -10.28110 -10.28036 -10.28029 -10.27953 -10.27836
 Alpha  occ. eigenvalues --  -10.27828 -10.27816 -10.27790 -10.27785 -10.27777
 Alpha  occ. eigenvalues --  -10.27764 -10.27725 -10.27707 -10.27562 -10.27528
 Alpha  occ. eigenvalues --  -10.27451 -10.27293 -10.27205 -10.26923 -10.26482
 Alpha  occ. eigenvalues --  -10.26473 -10.26459 -10.26334 -10.26301 -10.26258
 Alpha  occ. eigenvalues --  -10.26233 -10.26219 -10.26011 -10.25998 -10.25991
 Alpha  occ. eigenvalues --  -10.25931 -10.25869 -10.25530 -10.25185 -10.25022
 Alpha  occ. eigenvalues --  -10.24026  -3.18801  -3.16778  -1.93664  -1.93276
 Alpha  occ. eigenvalues --   -1.93091  -1.91643  -1.91247  -1.91111  -1.16503
 Alpha  occ. eigenvalues --   -1.14808  -1.11544  -1.11492  -1.10704  -1.08968
 Alpha  occ. eigenvalues --   -1.07097  -1.05887  -1.05553  -1.04830  -1.04664
 Alpha  occ. eigenvalues --   -1.04079  -1.03930  -1.03006  -1.02962  -1.01940
 Alpha  occ. eigenvalues --   -0.92558  -0.92306  -0.89594  -0.89065  -0.88387
 Alpha  occ. eigenvalues --   -0.88380  -0.87987  -0.87926  -0.87781  -0.87433
 Alpha  occ. eigenvalues --   -0.87389  -0.86524  -0.86093  -0.85707  -0.84895
 Alpha  occ. eigenvalues --   -0.84337  -0.83552  -0.83393  -0.82756  -0.82674
 Alpha  occ. eigenvalues --   -0.82567  -0.81923  -0.81029  -0.80851  -0.80491
 Alpha  occ. eigenvalues --   -0.80412  -0.78987  -0.77580  -0.77431  -0.77333
 Alpha  occ. eigenvalues --   -0.76947  -0.76750  -0.76463  -0.75666  -0.75366
 Alpha  occ. eigenvalues --   -0.75177  -0.72858  -0.72607  -0.72103  -0.71652
 Alpha  occ. eigenvalues --   -0.69976  -0.69611  -0.69448  -0.68993  -0.68265
 Alpha  occ. eigenvalues --   -0.68115  -0.67280  -0.67202  -0.65940  -0.65378
 Alpha  occ. eigenvalues --   -0.64941  -0.64941  -0.64882  -0.64711  -0.64674
 Alpha  occ. eigenvalues --   -0.63763  -0.63727  -0.61679  -0.61081  -0.60074
 Alpha  occ. eigenvalues --   -0.59318  -0.59282  -0.59250  -0.59002  -0.58222
 Alpha  occ. eigenvalues --   -0.57894  -0.57842  -0.57767  -0.57517  -0.57392
 Alpha  occ. eigenvalues --   -0.56338  -0.56269  -0.56136  -0.55535  -0.55282
 Alpha  occ. eigenvalues --   -0.55110  -0.55083  -0.54639  -0.54381  -0.54346
 Alpha  occ. eigenvalues --   -0.53711  -0.53599  -0.53259  -0.53173  -0.53103
 Alpha  occ. eigenvalues --   -0.52831  -0.52589  -0.52583  -0.52400  -0.52265
 Alpha  occ. eigenvalues --   -0.51976  -0.51680  -0.51595  -0.51484  -0.51224
 Alpha  occ. eigenvalues --   -0.51132  -0.50743  -0.50596  -0.50577  -0.50426
 Alpha  occ. eigenvalues --   -0.50198  -0.50091  -0.49983  -0.49763  -0.49595
 Alpha  occ. eigenvalues --   -0.49464  -0.49298  -0.49059  -0.48981  -0.48743
 Alpha  occ. eigenvalues --   -0.48733  -0.48540  -0.48421  -0.48029  -0.47979
 Alpha  occ. eigenvalues --   -0.47749  -0.47616  -0.47358  -0.47281  -0.47135
 Alpha  occ. eigenvalues --   -0.46993  -0.46764  -0.46715  -0.46620  -0.46479
 Alpha  occ. eigenvalues --   -0.46361  -0.46128  -0.45734  -0.45674  -0.45604
 Alpha  occ. eigenvalues --   -0.45449  -0.45370  -0.45249  -0.45217  -0.44929
 Alpha  occ. eigenvalues --   -0.44794  -0.44475  -0.44295  -0.44082  -0.43998
 Alpha  occ. eigenvalues --   -0.43904  -0.43876  -0.43797  -0.43684  -0.43428
 Alpha  occ. eigenvalues --   -0.43428  -0.43309  -0.43141  -0.43029  -0.42873
 Alpha  occ. eigenvalues --   -0.42831  -0.42811  -0.42401  -0.42270  -0.42258
 Alpha  occ. eigenvalues --   -0.42105  -0.42047  -0.41810  -0.41778  -0.41538
 Alpha  occ. eigenvalues --   -0.41278  -0.41216  -0.41028  -0.40712  -0.40486
 Alpha  occ. eigenvalues --   -0.40423  -0.39963  -0.39553  -0.39173  -0.39141
 Alpha  occ. eigenvalues --   -0.38993  -0.38436  -0.38166  -0.38162  -0.37325
 Alpha  occ. eigenvalues --   -0.37237  -0.36965  -0.36831  -0.36413  -0.36365
 Alpha  occ. eigenvalues --   -0.36239  -0.35118  -0.34735  -0.34440  -0.34324
 Alpha  occ. eigenvalues --   -0.33244  -0.33202  -0.32906  -0.32459  -0.31417
 Alpha  occ. eigenvalues --   -0.31326  -0.31248  -0.30951  -0.30682  -0.30652
 Alpha  occ. eigenvalues --   -0.30057  -0.29777  -0.29677  -0.24079  -0.23778
 Alpha  occ. eigenvalues --   -0.21439  -0.20573
 Alpha virt. eigenvalues --   -0.08680  -0.07793  -0.02123  -0.01717   0.00049
 Alpha virt. eigenvalues --    0.00258   0.00722   0.01962   0.02312   0.03059
 Alpha virt. eigenvalues --    0.04387   0.05061   0.05444   0.05863   0.06146

 Mulliken charges:
               1
     1  Mg   0.821366
     2  C    0.141398
     3  C   -0.072404
     4  C   -0.088169
     5  C   -0.079409
     6  N   -0.220245
     7  C   -0.143107
     8  C    0.066441
     9  C   -0.054786
    10  C   -0.010681
    11  C    0.063589
    12  C    0.064067
    13  C   -0.078540
    14  H    0.015436
    15  N   -0.372584
    16  C    0.163229
    17  C   -0.137156
    18  C   -0.058504
    19  C    0.190614
    20  C    0.093532
    21  C   -0.010317
    22  O   -0.168245
    23  C    0.051828
    24  N   -0.300587
    25  C   -0.021017
    26  C   -0.011938
    27  C   -0.040258
    28  C    0.044994
    29  C    0.055019
    30  C    0.036443
    31  C   -0.036874
    32  N   -0.352634
    33  C    0.125102
    34  C   -0.196553
    35  C    0.022480
    36  C    0.045474
    37  C    0.117944
    38  C    0.063982
    39  O   -0.137508
    40  C   -0.139042
    41  C    0.228315
    42  O   -0.237548
    43  O   -0.322893
    44  C    0.183473
    45  H   -0.018127
    46  H   -0.048389
    47  H   -0.045692
    48  H    0.002295
    49  H   -0.000453
    50  H    0.003866
    51  H    0.026691
    52  H    0.004887
    53  H    0.013052
    54  H    0.020320
    55  H    0.050723
    56  H    0.037429
    57  H    0.040199
    58  H    0.005495
    59  H    0.031901
    60  H    0.019395
    61  H    0.059896
    62  H    0.032461
    63  H    0.026048
    64  H    0.015666
    65  H    0.028280
    66  H    0.025978
    67  H    0.028369
    68  H    0.025521
    69  H    0.019025
    70  H    0.017192
    71  H    0.020713
    72  H    0.021753
    73  H    0.015691
    74  H    0.029820
    75  H    0.034139
    76  H    0.055755
    77  H    0.031273
    78  H    0.037678
    79  H    0.027422
    80  Mg   0.850572
    81  C    0.012127
    82  C   -0.109431
    83  C   -0.070349
    84  C   -0.108784
    85  N   -0.257974
    86  C   -0.051804
    87  C   -0.000889
    88  C   -0.101382
    89  C    0.045282
    90  C    0.094719
    91  C    0.048929
    92  C   -0.072562
    93  H    0.013018
    94  N   -0.419478
    95  C    0.163744
    96  C   -0.108872
    97  C   -0.091228
    98  C    0.161845
    99  C    0.094023
   100  C    0.026221
   101  O   -0.168474
   102  C    0.036197
   103  N   -0.251353
   104  C    0.003047
   105  C   -0.036958
   106  C    0.001970
   107  C   -0.034635
   108  C    0.070321
   109  C    0.035407
   110  C    0.008533
   111  N   -0.312656
   112  C    0.155303
   113  C   -0.183128
   114  C    0.078787
   115  C    0.062740
   116  C    0.144281
   117  C   -0.022497
   118  O   -0.177601
   119  C    0.001702
   120  C    0.195352
   121  O   -0.239451
   122  O   -0.323702
   123  C    0.190523
   124  H   -0.032969
   125  H   -0.010567
   126  H   -0.035091
   127  H    0.022028
   128  H    0.005939
   129  H    0.023411
   130  H    0.016627
   131  H    0.024995
   132  H    0.008996
   133  H    0.018115
   134  H    0.025985
   135  H    0.040033
   136  H    0.037387
   137  H    0.007499
   138  H    0.045301
   139  H    0.040772
   140  H    0.049173
   141  H    0.021313
   142  H    0.008507
   143  H    0.002500
   144  H    0.016674
   145  H    0.005027
   146  H    0.028184
   147  H    0.006531
   148  H    0.007613
   149  H    0.009894
   150  H    0.017890
   151  H    0.021344
   152  H    0.036262
   153  H    0.041546
   154  H   -0.001590
   155  H    0.044062
   156  H    0.042872
   157  H    0.040255
   158  H    0.012047
 Sum of Mulliken charges =  -0.00000

 Dipole moment (field-independent basis, Debye):
    X=            -10.0987    Y=             -1.8151    Z=              0.6774  Tot=             10.2829
 Quadrupole moment (field-independent basis, Debye-Ang):
   XX=           -557.1819   YY=           -525.6651   ZZ=           -477.3896
   XY=            -69.3906   XZ=            -83.7967   YZ=            -12.0222

 Normal termination of Gaussian 16 at Wed Sep  1 23:10:29 2021.
