 Gaussian 16, Revision A.03,
 Gaussian 16:  ES64L-G16RevA.03 25-Dec-2016

 ----------------------------------------------------------
 #p cam-b3lyp/Def2SVP td=(nstates=5) density=(transition=1)
 ----------------------------------------------------------

 --------------------------------
 TDDFT excited states in gaussian
 --------------------------------
 Symbolic Z-matrix:
 Charge =  0 Multiplicity = 1

                         Standard orientation:
 ---------------------------------------------------------------------
 Center     Atomic      Atomic             Coordinates (Angstroms)
 Number     Number       Type             X           Y           Z
 ---------------------------------------------------------------------
      1         12           0        8.526741    0.542102   -0.231229
      2          6           0        6.215192   -1.914771   -1.058004
      3          6           0        6.232527    2.984814   -1.383749
      4          6           0       10.126280    2.885541    1.533402
      5          6           0       10.362738   -1.938012    1.473710
      6          7           0        6.245551    0.531325   -0.821269
      7          6           0        5.684311   -0.623530   -1.310813
      8          6           0        4.369774   -0.356568   -1.974363
      9          6           0        4.492358    1.200434   -2.310669
     10          6           0        5.715789    1.657067   -1.439760
     11          6           0        4.681256    1.573060   -3.866993
     12          6           0        3.149078   -0.843623   -1.036217
     13          6           0        1.938284   -1.183997   -1.746384
     14          1           0        0.695799   -0.410293   -1.256771
     15          7           0        8.357011    2.646188   -0.090116
     16          6           0        7.341300    3.471893   -0.648296
     17          6           0        7.668669    4.849265   -0.320627
     18          6           0        8.813394    4.864945    0.512885
     19          6           0        9.208015    3.420109    0.619833
     20          6           0        6.781598    5.978372   -0.692559
     21          6           0        9.420739    6.172887    1.173004
     22          8           0        8.858549    7.236776    0.917915
     23          6           0       10.800664    6.185398    1.821636
     24          7           0        9.939924    0.425817    1.337215
     25          6           0       10.513299    1.570754    1.786905
     26          6           0       11.605767    1.305473    2.998339
     27          6           0       11.832547   -0.271498    2.815773
     28          6           0       10.697551   -0.666926    1.818982
     29          6           0       12.971287    2.081725    2.874192
     30          6           0       11.722807   -1.050567    4.127807
     31          6           0       12.903675   -1.908208    4.642431
     32          7           0        8.498354   -1.518663   -0.103637
     33          6           0        9.316484   -2.368710    0.582275
     34          6           0        8.962394   -3.723689    0.260568
     35          6           0        7.668138   -3.557369   -0.361621
     36          6           0        7.444137   -2.177469   -0.505260
     37          6           0        9.636441   -4.967100    0.764394
     38          6           0        6.508125   -4.287343   -0.828884
     39          8           0        6.362704   -5.456567   -1.019038
     40          6           0        5.465550   -3.242988   -1.388916
     41          6           0        5.217067   -3.330968   -2.910872
     42          8           0        6.090426   -3.357679   -3.751167
     43          8           0        3.836109   -3.476475   -3.156516
     44          6           0        3.446337   -3.746655   -4.507459
     45          1           0        5.516143    3.682821   -1.820178
     46          1           0       10.515357    3.562067    2.296975
     47          1           0       10.972520   -2.672834    2.002539
     48          1           0        4.324763   -0.762384   -2.985531
     49          1           0        3.592282    1.695096   -1.943823
     50          1           0        3.825956    2.201897   -4.113900
     51          1           0        4.725904    0.695351   -4.511026
     52          1           0        5.600817    2.155597   -3.930209
     53          1           0        2.955941    0.025390   -0.407460
     54          1           0        3.639600   -1.617604   -0.445310
     55          1           0        1.793093   -2.253220   -1.596901
     56          1           0        2.041981   -0.935829   -2.802644
     57          1           0        6.035920    5.678502   -1.428649
     58          1           0        7.358144    6.752587   -1.199421
     59          1           0        6.242749    6.361082    0.174521
     60          1           0       10.865146    5.584631    2.729389
     61          1           0       11.052853    7.225531    2.030689
     62          1           0       11.510628    5.827972    1.075695
     63          1           0       11.027814    1.505721    3.900126
     64          1           0       12.734035   -0.545585    2.267345
     65          1           0       13.051970    2.813647    3.677332
     66          1           0       13.006211    2.603632    1.917148
     67          1           0       13.761602    1.334159    2.950375
     68          1           0       10.819575   -1.659487    4.159003
     69          1           0       11.465092   -0.445114    4.996629
     70          1           0       12.782540   -2.991721    4.629513
     71          1           0       13.001189   -1.644146    5.695733
     72          1           0       13.819092   -1.693090    4.089905
     73          1           0        9.333419   -5.781398    0.105752
     74          1           0        9.199886   -5.396839    1.665424
     75          1           0       10.711246   -4.878568    0.920479
     76          1           0        4.545971   -3.520040   -0.872677
     77          1           0        2.441072   -3.324059   -4.504259
     78          1           0        3.285199   -4.810383   -4.681557
     79          1           0        4.171570   -3.339567   -5.210890
     80         12           0       -8.594025    0.242919    0.026702
     81          6           0       -6.170822   -2.383919   -0.223558
     82          6           0       -6.477466    2.091073   -2.105919
     83          6           0      -10.291926    2.958417    0.695561
     84          6           0      -10.277700   -1.592571    2.341585
     85          7           0       -6.592516   -0.159249   -1.062169
     86          6           0       -5.923347   -1.337132   -1.052100
     87          6           0       -4.797977   -1.264494   -2.070974
     88          6           0       -4.846763    0.137431   -2.741338
     89          6           0       -6.043579    0.727049   -1.970518
     90          6           0       -3.452599    0.974881   -2.610865
     91          6           0       -4.901521   -2.394209   -3.183112
     92          6           0       -3.622638   -3.175828   -3.485561
     93          1           0       -2.203406   -2.484689   -3.390958
     94          7           0       -8.374322    2.279856   -0.583499
     95          6           0       -7.505410    2.778022   -1.437423
     96          6           0       -7.770107    4.184953   -1.546636
     97          6           0       -8.973740    4.504319   -0.868483
     98          6           0       -9.234738    3.259553   -0.194264
     99          6           0       -7.031562    5.089922   -2.531392
    100          6           0       -9.890216    5.717507   -0.843310
    101          8           0      -10.862883    5.798215   -0.115696
    102          6           0       -9.566835    6.810729   -1.824244
    103          7           0       -9.836916    0.699296    1.589977
    104          6           0      -10.590922    1.872088    1.518356
    105          6           0      -11.859528    1.836100    2.413256
    106          6           0      -11.870194    0.301950    2.770503
    107          6           0      -10.569610   -0.257194    2.193818
    108          6           0      -11.720243    2.801570    3.599186
    109          6           0      -13.076975   -0.504865    2.093740
    110          6           0      -14.221448   -0.926189    2.953200
    111          7           0       -8.386384   -1.609118    0.801409
    112          6           0       -9.149211   -2.214011    1.776879
    113          6           0       -8.609681   -3.503869    2.199288
    114          6           0       -7.405597   -3.629244    1.418492
    115          6           0       -7.259377   -2.420010    0.698594
    116          6           0       -9.336494   -4.472310    3.060567
    117          6           0       -6.316248   -4.518260    1.044986
    118          8           0       -6.120592   -5.678071    1.451660
    119          6           0       -5.412568   -3.715745   -0.053528
    120          6           0       -4.104489   -3.581736    0.567854
    121          8           0       -3.921583   -3.060157    1.646022
    122          8           0       -3.139308   -4.093722   -0.204977
    123          6           0       -1.707217   -4.135556    0.227595
    124          1           0       -5.899792    2.681914   -2.819698
    125          1           0      -11.138152    3.648853    0.664546
    126          1           0      -10.897385   -2.176856    3.024605
    127          1           0       -3.862330   -1.349670   -1.518311
    128          1           0       -4.966146    0.068660   -3.822729
    129          1           0       -2.610489    0.303056   -2.444444
    130          1           0       -3.615704    1.655813   -1.775102
    131          1           0       -3.292552    1.563595   -3.513991
    132          1           0       -5.320322   -2.069301   -4.134568
    133          1           0       -5.601570   -3.160146   -2.849606
    134          1           0       -3.658130   -3.637603   -4.472501
    135          1           0       -3.686015   -4.012739   -2.790093
    136          1           0       -7.557194    5.247867   -3.473274
    137          1           0       -5.997419    4.773413   -2.670609
    138          1           0       -6.929508    6.053840   -2.033361
    139          1           0       -9.267249    6.471504   -2.816305
    140          1           0       -8.780554    7.493460   -1.505197
    141          1           0      -10.489786    7.322445   -2.097153
    142          1           0      -12.701346    2.141231    1.792294
    143          1           0      -11.938984    0.213022    3.854769
    144          1           0      -10.868352    3.478232    3.533464
    145          1           0      -11.580724    2.267260    4.538290
    146          1           0      -12.632692    3.391906    3.689268
    147          1           0      -12.788771   -1.437521    1.608808
    148          1           0      -13.508453    0.022372    1.243686
    149          1           0      -15.136351   -0.430345    2.631390
    150          1           0      -13.916458   -0.592535    3.945219
    151          1           0      -14.372119   -2.003664    2.887206
    152          1           0       -9.123022   -5.500317    2.769740
    153          1           0      -10.384374   -4.173779    3.036327
    154          1           0       -8.967817   -4.321640    4.076120
    155          1           0       -5.310829   -4.277616   -0.981019
    156          1           0       -1.644162   -4.568430    1.226138
    157          1           0       -1.251016   -3.146001    0.264558
    158          1           0       -1.047722   -4.627132   -0.487078
 ---------------------------------------------------------------------

 SCF Done:  E(RCAM-B3LYP) =  -4069.77671025     A.U. after   18 cycles

 Excitation energies and oscillator strengths:

 Excited State   1:      Singlet-A      1.6771 eV  739.30 nm  f=0.0412  <S**2>=0.000
     309 -> 315        0.11198
     310 -> 316       -0.13010
     311 -> 313       -0.44818
     312 -> 314        0.52170
 This state for optimization and/or second-order correction.
 Total Energy, E(TD-HF/TD-DFT) =  -4069.71507961
 Copying the excited state density for this state as the 1-particle RhoCI density.

 Excited State   2:      Singlet-A      1.6919 eV  732.80 nm  f=0.7223  <S**2>=0.000
     309 -> 315       -0.13344
     310 -> 316       -0.11384
     311 -> 313        0.52214
     312 -> 314        0.44697

 Excited State   3:      Singlet-A      2.1989 eV  563.83 nm  f=0.1479  <S**2>=0.000
     310 -> 314        0.64909
     312 -> 316        0.26199

 Excited State   4:      Singlet-A      2.2453 eV  552.20 nm  f=0.1060  <S**2>=0.000
     309 -> 313        0.63548
     311 -> 315        0.29157

 Excited State   5:      Singlet-A      2.7104 eV  457.43 nm  f=0.0000  <S**2>=0.000
     312 -> 313        0.70695

 The electronic state is 1-A.
 Alpha  occ. eigenvalues --  -46.89919 -46.88603 -19.25373 -19.25142 -19.20946
 Alpha  occ. eigenvalues --  -19.19788 -19.19519 -19.18972 -19.18425 -19.18396
 Alpha  occ. eigenvalues --  -14.42448 -14.42124 -14.41863 -14.41697 -14.40313
 Alpha  occ. eigenvalues --  -14.39355 -14.39200 -14.39072 -10.40287 -10.38410
 Alpha  occ. eigenvalues --  -10.36471 -10.35778 -10.35418 -10.34163 -10.32353
 Alpha  occ. eigenvalues --  -10.31958 -10.31726 -10.31706 -10.31316 -10.31302
 Alpha  occ. eigenvalues --  -10.31096 -10.30723 -10.30710 -10.30575 -10.30507
 Alpha  occ. eigenvalues --  -10.30253 -10.29763 -10.29629 -10.29572 -10.29359
 Alpha  occ. eigenvalues --  -10.29160 -10.29007 -10.28739 -10.28724 -10.28693
 Alpha  occ. eigenvalues --  -10.28681 -10.28672 -10.28621 -10.28514 -10.28365
 Alpha  occ. eigenvalues --  -10.28262 -10.28244 -10.28210 -10.28165 -10.28002
 Alpha  occ. eigenvalues --  -10.27923 -10.27921 -10.27857 -10.27782 -10.27763
 Alpha  occ. eigenvalues --  -10.27702 -10.27599 -10.27117 -10.27076 -10.26999
 Alpha  occ. eigenvalues --  -10.26933 -10.26900 -10.26666 -10.26599 -10.26556
 Alpha  occ. eigenvalues --  -10.26550 -10.26500 -10.26483 -10.26445 -10.26211
 Alpha  occ. eigenvalues --  -10.26056 -10.26042 -10.25898 -10.25794 -10.25778
 Alpha  occ. eigenvalues --  -10.25566 -10.25561 -10.25547 -10.25449 -10.25008
 Alpha  occ. eigenvalues --  -10.24752  -3.18337  -3.17232  -1.93186  -1.92846
 Alpha  occ. eigenvalues --   -1.92604  -1.92098  -1.91693  -1.91543  -1.16450
 Alpha  occ. eigenvalues --   -1.16303  -1.10937  -1.10835  -1.10382  -1.08954
 Alpha  occ. eigenvalues --   -1.08390  -1.07272  -1.05032  -1.04632  -1.03493
 Alpha  occ. eigenvalues --   -1.03129  -1.03037  -1.02520  -1.01868  -1.01710
 Alpha  occ. eigenvalues --   -0.92392  -0.92130  -0.89304  -0.88621  -0.88615
 Alpha  occ. eigenvalues --   -0.88318  -0.88249  -0.88086  -0.87094  -0.87011
 Alpha  occ. eigenvalues --   -0.86994  -0.86552  -0.86388  -0.85924  -0.84280
 Alpha  occ. eigenvalues --   -0.84203  -0.84088  -0.83469  -0.82880  -0.82628
 Alpha  occ. eigenvalues --   -0.82349  -0.81828  -0.81297  -0.81253  -0.80665
 Alpha  occ. eigenvalues --   -0.80408  -0.78255  -0.77941  -0.77614  -0.77450
 Alpha  occ. eigenvalues --   -0.76950  -0.76847  -0.76282  -0.76254  -0.75077
 Alpha  occ. eigenvalues --   -0.74833  -0.72783  -0.72467  -0.71478  -0.71399
 Alpha  occ. eigenvalues --   -0.69310  -0.68734  -0.68599  -0.67779  -0.67693
 Alpha  occ. eigenvalues --   -0.67633  -0.66966  -0.66696  -0.66012  -0.65538
 Alpha  occ. eigenvalues --   -0.65150  -0.64947  -0.64687  -0.64588  -0.64468
 Alpha  occ. eigenvalues --   -0.64233  -0.63022  -0.62343  -0.60490  -0.59771
 Alpha  occ. eigenvalues --   -0.59618  -0.59204  -0.59142  -0.58792  -0.58738
 Alpha  occ. eigenvalues --   -0.58473  -0.58150  -0.57998  -0.57589  -0.57439
 Alpha  occ. eigenvalues --   -0.56444  -0.56071  -0.55676  -0.55510  -0.55141
 Alpha  occ. eigenvalues --   -0.55129  -0.55031  -0.54305  -0.54118  -0.53462
 Alpha  occ. eigenvalues --   -0.53423  -0.53297  -0.52979  -0.52896  -0.52884
 Alpha  occ. eigenvalues --   -0.52853  -0.52604  -0.52587  -0.52330  -0.52232
 Alpha  occ. eigenvalues --   -0.52069  -0.51888  -0.51802  -0.51275  -0.51152
 Alpha  occ. eigenvalues --   -0.51127  -0.50943  -0.50572  -0.50494  -0.50294
 Alpha  occ. eigenvalues --   -0.50183  -0.50055  -0.49964  -0.49885  -0.49733
 Alpha  occ. eigenvalues --   -0.49356  -0.49242  -0.49197  -0.48999  -0.48892
 Alpha  occ. eigenvalues --   -0.48738  -0.48649  -0.48525  -0.48367  -0.48162
 Alpha  occ. eigenvalues --   -0.48137  -0.47981  -0.47702  -0.47466  -0.47423
 Alpha  occ. eigenvalues --   -0.47148  -0.47072  -0.46732  -0.46616  -0.46587
 Alpha  occ. eigenvalues --   -0.46367  -0.46166  -0.46078  -0.46067  -0.45875
 Alpha  occ. eigenvalues --   -0.45787  -0.45467  -0.45270  -0.45109  -0.45082
 Alpha  occ. eigenvalues --   -0.44885  -0.44647  -0.44471  -0.44218  -0.44206
 Alpha  occ. eigenvalues --   -0.44093  -0.43803  -0.43652  -0.43577  -0.43502
 Alpha  occ. eigenvalues --   -0.43281  -0.43236  -0.43009  -0.42860  -0.42808
 Alpha  occ. eigenvalues --   -0.42745  -0.42653  -0.42580  -0.42458  -0.42331
 Alpha  occ. eigenvalues --   -0.41767  -0.41522  -0.41496  -0.41398  -0.41273
 Alpha  occ. eigenvalues --   -0.41240  -0.41147  -0.40996  -0.40665  -0.40533
 Alpha  occ. eigenvalues --   -0.40274  -0.39889  -0.39706  -0.39311  -0.38776
 Alpha  occ. eigenvalues --   -0.38390  -0.38379  -0.37921  -0.37904  -0.37240
 Alpha  occ. eigenvalues --   -0.36960  -0.36934  -0.36475  -0.36432  -0.36198
 Alpha  occ. eigenvalues --   -0.36128  -0.35820  -0.34987  -0.34439  -0.34392
 Alpha  occ. eigenvalues --   -0.33678  -0.33400  -0.32990  -0.31684  -0.31678
 Alpha  occ. eigenvalues --   -0.31384  -0.31217  -0.30703  -0.30337  -0.30109
 Alpha  occ. eigenvalues --   -0.30071  -0.29371  -0.29289  -0.24436  -0.23815
 Alpha  occ. eigenvalues --   -0.21297  -0.20946
 Alpha virt. eigenvalues --   -0.08902  -0.08701  -0.01776  -0.01104   0.00133
 Alpha virt. eigenvalues --    0.00273   0.01215   0.01789   0.02030   0.02100
 Alpha virt. eigenvalues --    0.03531   0.04395   0.04820   0.05511   0.05779

 Mulliken charges:
               1
     1  Mg  12.000808
     2  C    5.991904
     3  C    6.018492
     4  C    6.008832
     5  C    5.981726
     6  N    7.006039
     7  C    6.018701
     8  C    5.990895
     9  C    6.008240
    10  C    5.972019
    11  C    6.001190
    12  C    5.999207
    13  C    5.997978
    14  H    1.006065
    15  N    7.006731
    16  C    5.961869
    17  C    5.994227
    18  C    5.985338
    19  C    5.977154
    20  C    6.004923
    21  C    5.991847
    22  O    7.985992
    23  C    6.002594
    24  N    6.990480
    25  C    5.983258
    26  C    6.005795
    27  C    5.994401
    28  C    6.025296
    29  C    6.000893
    30  C    5.998331
    31  C    5.999355
    32  N    6.998063
    33  C    6.031967
    34  C    6.013222
    35  C    6.007910
    36  C    6.018184
    37  C    5.998139
    38  C    6.011661
    39  O    8.020971
    40  C    6.001403
    41  C    6.003496
    42  O    8.003050
    43  O    8.002407
    44  C    5.997797
    45  H    0.993527
    46  H    0.994795
    47  H    1.004676
    48  H    1.001781
    49  H    0.996375
    50  H    0.996621
    51  H    0.990885
    52  H    1.002750
    53  H    1.007539
    54  H    0.994750
    55  H    0.999959
    56  H    1.001674
    57  H    0.986822
    58  H    0.988819
    59  H    0.987190
    60  H    0.992284
    61  H    0.991212
    62  H    0.994607
    63  H    0.998460
    64  H    1.000576
    65  H    1.000021
    66  H    1.002485
    67  H    0.992997
    68  H    0.996917
    69  H    1.005939
    70  H    0.997838
    71  H    1.002821
    72  H    1.002103
    73  H    1.009227
    74  H    1.015471
    75  H    1.012182
    76  H    1.007919
    77  H    1.004457
    78  H    1.002639
    79  H    1.002722
    80  Mg  11.998285
    81  C    6.018348
    82  C    5.988144
    83  C    5.976309
    84  C    6.008901
    85  N    7.006116
    86  C    5.979016
    87  C    6.008227
    88  C    5.988277
    89  C    6.025749
    90  C    5.999683
    91  C    6.001048
    92  C    6.001321
    93  H    0.992626
    94  N    6.993477
    95  C    6.031451
    96  C    6.019564
    97  C    6.009780
    98  C    6.030775
    99  C    5.996449
   100  C    6.010802
   101  O    8.020658
   102  C    5.993568
   103  N    6.993232
   104  C    6.035975
   105  C    5.991186
   106  C    6.006981
   107  C    5.978481
   108  C    5.996935
   109  C    6.006554
   110  C    6.000329
   111  N    7.000219
   112  C    5.972823
   113  C    5.970918
   114  C    5.999468
   115  C    5.971367
   116  C    6.003713
   117  C    5.989094
   118  O    7.977669
   119  C    5.994110
   120  C    5.995995
   121  O    7.998619
   122  O    7.998486
   123  C    6.002622
   124  H    1.008243
   125  H    1.004323
   126  H    0.990832
   127  H    0.999269
   128  H    1.004657
   129  H    1.009454
   130  H    0.999329
   131  H    1.000990
   132  H    0.993382
   133  H    1.006306
   134  H    0.998056
   135  H    1.004363
   136  H    1.017503
   137  H    1.014886
   138  H    1.014289
   139  H    1.003863
   140  H    1.008033
   141  H    1.011558
   142  H    1.000336
   143  H    0.997601
   144  H    0.996747
   145  H    1.009817
   146  H    1.002644
   147  H    1.004245
   148  H    0.989418
   149  H    0.994567
   150  H    0.998040
   151  H    1.001566
   152  H    0.985189
   153  H    0.985341
   154  H    0.981167
   155  H    0.992510
   156  H    0.999339
   157  H    0.994501
   158  H    0.994396
 Sum of Mulliken charges = 624.00000

 Dipole moment (field-independent basis, Debye):
    X=             -0.6485    Y=              0.7242    Z=             -3.4654  Tot=              3.5992
 Quadrupole moment (field-independent basis, Debye-Ang):
   XX=             -4.6632   YY=             -2.0239   ZZ=             -1.0756
   XY=           -124.9585   XZ=             25.1469   YZ=              1.3035

 Normal termination of Gaussian 16 at Wed Sep 22 05:51:30 2021.
