 Gaussian 16, Revision A.03,
 Gaussian 16:  ES64L-G16RevA.03 25-Dec-2016

 ----------------------------------------------------------
 #p cam-b3lyp/Def2SVP td=(nstates=5) density=(transition=1)
 ----------------------------------------------------------

 --------------------------------
 TDDFT excited states in gaussian
 --------------------------------
 Symbolic Z-matrix:
 Charge =  0 Multiplicity = 1

                         Standard orientation:
 ---------------------------------------------------------------------
 Center     Atomic      Atomic             Coordinates (Angstroms)
 Number     Number       Type             X           Y           Z
 ---------------------------------------------------------------------
      1         12           0       -9.131220    0.308658    0.219500
      2          6           0       -7.538863   -2.588554   -1.256622
      3          6           0      -11.179604   -1.779222    1.591456
      4          6           0      -10.599043    3.078619    1.237024
      5          6           0       -7.267322    2.471315   -2.029599
      6          7           0       -9.232905   -1.986267    0.247172
      7          6           0       -8.529091   -2.980120   -0.400709
      8          6           0       -9.094665   -4.313910   -0.069038
      9          6           0      -10.524699   -3.986678    0.432507
     10          6           0      -10.343465   -2.482830    0.746495
     11          6           0      -11.634026   -4.198667   -0.620940
     12          6           0       -8.278611   -4.956212    1.093903
     13          6           0       -7.918819   -6.484679    0.939167
     14          1           0       -6.735428   -7.107645    1.781501
     15          7           0      -10.735157    0.579757    1.370102
     16          6           0      -11.403398   -0.382540    1.948139
     17          6           0      -12.390238    0.216380    2.826844
     18          6           0      -12.100985    1.600700    2.785916
     19          6           0      -11.125196    1.792464    1.747496
     20          6           0      -13.322601   -0.659355    3.683462
     21          6           0      -12.746137    2.671226    3.621235
     22          8           0      -12.438426    3.816119    3.473257
     23          6           0      -13.696931    2.277152    4.704093
     24          7           0       -9.109343    2.498143   -0.580747
     25          6           0       -9.729716    3.381051    0.199155
     26          6           0       -9.307126    4.772869   -0.087826
     27          6           0       -8.359056    4.541657   -1.306888
     28          6           0       -8.201588    3.044857   -1.357053
     29          6           0      -10.427567    5.856392   -0.284901
     30          6           0       -7.004719    5.333844   -1.133375
     31          6           0       -6.746844    6.612988   -1.977608
     32          7           0       -7.759104    0.099171   -1.270670
     33          6           0       -7.019035    1.015215   -2.051190
     34          6           0       -6.065352    0.275501   -2.903460
     35          6           0       -6.242722   -1.066947   -2.596527
     36          6           0       -7.269039   -1.161145   -1.671919
     37          6           0       -5.188901    0.903135   -4.014314
     38          6           0       -5.724797   -2.428041   -2.948872
     39          8           0       -4.844108   -2.827625   -3.673359
     40          6           0       -6.675218   -3.497567   -2.210256
     41          6           0       -5.927406   -4.543598   -1.615272
     42          8           0       -5.550919   -4.494413   -0.435916
     43          8           0       -5.594213   -5.619520   -2.432202
     44          6           0       -4.983608   -6.836162   -1.813812
     45          1           0      -11.907094   -2.372291    2.148445
     46          1           0      -11.041111    4.000077    1.621412
     47          1           0       -6.692931    3.107609   -2.704627
     48          1           0       -9.209992   -4.904604   -0.978194
     49          1           0      -10.872738   -4.539879    1.304607
     50          1           0      -12.353582   -4.940739   -0.273732
     51          1           0      -11.144447   -4.548629   -1.529276
     52          1           0      -12.173057   -3.293671   -0.902573
     53          1           0       -8.913637   -4.840493    1.972418
     54          1           0       -7.396141   -4.328813    1.217626
     55          1           0       -7.751684   -6.676656   -0.120350
     56          1           0       -8.849387   -6.968407    1.238447
     57          1           0      -13.073562   -0.500910    4.733539
     58          1           0      -13.332362   -1.722243    3.444514
     59          1           0      -14.341554   -0.275840    3.639488
     60          1           0      -13.223223    1.668205    5.473637
     61          1           0      -14.518715    1.619433    4.421154
     62          1           0      -14.035989    3.178258    5.215731
     63          1           0       -8.698997    5.110223    0.751513
     64          1           0       -8.888629    4.792163   -2.226328
     65          1           0      -11.370582    5.364106   -0.049534
     66          1           0      -10.446040    6.390990   -1.235275
     67          1           0      -10.250691    6.664022    0.425615
     68          1           0       -6.175271    4.672146   -1.384406
     69          1           0       -6.866330    5.404695   -0.054526
     70          1           0       -6.355976    7.404983   -1.339016
     71          1           0       -7.673506    6.920951   -2.462219
     72          1           0       -5.992397    6.423337   -2.742058
     73          1           0       -4.925679    1.911789   -3.697069
     74          1           0       -5.792586    1.034005   -4.912689
     75          1           0       -4.292362    0.314854   -4.211245
     76          1           0       -7.346497   -3.918636   -2.958136
     77          1           0       -5.671410   -7.305248   -1.108840
     78          1           0       -3.959276   -6.650693   -1.492867
     79          1           0       -4.987234   -7.606966   -2.584390
     80         12           0        8.436506    0.954394    0.246048
     81          6           0       10.673389   -1.571048    0.939164
     82          6           0        5.859932   -1.515376    0.073469
     83          6           0        6.315995    3.242724   -0.768671
     84          6           0       11.016110    3.301517    0.260142
     85          7           0        8.368766   -1.269154    0.500681
     86          6           0        9.389839   -2.073365    0.810889
     87          6           0        8.846303   -3.525081    1.015243
     88          6           0        7.309749   -3.452414    0.585162
     89          6           0        7.159312   -1.944325    0.306846
     90          6           0        6.920446   -4.153966   -0.701853
     91          6           0        9.098007   -4.117637    2.409939
     92          6           0        9.740912   -5.491472    2.320802
     93          1           0        9.551408   -6.529105    3.436832
     94          7           0        6.357776    0.868952   -0.194363
     95          6           0        5.479183   -0.175467   -0.165841
     96          6           0        4.174886    0.219741   -0.461694
     97          6           0        4.263164    1.604068   -0.842718
     98          6           0        5.697983    1.980950   -0.596117
     99          6           0        2.972402   -0.712407   -0.429982
    100          6           0        3.184826    2.508977   -1.416019
    101          8           0        3.517322    3.632981   -1.839588
    102          6           0        1.794258    2.052494   -1.592909
    103          7           0        8.661975    2.937837   -0.142716
    104          6           0        7.609231    3.752471   -0.505871
    105          6           0        8.002281    5.254264   -0.764961
    106          6           0        9.463414    5.246263   -0.142299
    107          6           0        9.752277    3.739410   -0.013947
    108          6           0        7.990226    5.872148   -2.218750
    109          6           0        9.754505    6.162314    1.131854
    110          6           0        9.253102    5.624676    2.446102
    111          7           0       10.422063    0.929996    0.390785
    112          6           0       11.382589    1.923462    0.383701
    113          6           0       12.676366    1.416791    0.596782
    114          6           0       12.419573    0.064975    0.853016
    115          6           0       11.026757   -0.209414    0.724703
    116          6           0       13.858344    2.286919    0.665738
    117          6           0       13.136655   -1.130879    1.077020
    118          8           0       14.359623   -1.283921    1.095776
    119          6           0       12.032346   -2.307670    1.180181
    120          6           0       12.325175   -3.322003    0.182886
    121          8           0       12.136924   -3.242900   -1.009549
    122          8           0       12.952488   -4.350422    0.740244
    123          6           0       13.439420   -5.405132   -0.096591
    124          1           0        5.090228   -2.282769   -0.027843
    125          1           0        5.734214    4.104277   -1.101939
    126          1           0       11.793684    4.068247    0.252832
    127          1           0        9.403235   -4.046250    0.237236
    128          1           0        6.768961   -3.982749    1.369793
    129          1           0        7.719828   -4.736968   -1.160217
    130          1           0        6.642090   -3.422082   -1.459642
    131          1           0        5.993550   -4.709013   -0.554208
    132          1           0        8.216608   -4.183924    3.048020
    133          1           0        9.755589   -3.431825    2.943603
    134          1           0       10.817155   -5.317076    2.347293
    135          1           0        9.393788   -5.922820    1.382086
    136          1           0        3.209844   -1.660197    0.053259
    137          1           0        2.732079   -1.007548   -1.451609
    138          1           0        2.091147   -0.203484   -0.041275
    139          1           0        1.278276    2.660379   -2.336961
    140          1           0        1.283398    2.223602   -0.644855
    141          1           0        1.774537    1.008020   -1.903073
    142          1           0        7.475660    5.940519   -0.101001
    143          1           0       10.143602    5.708613   -0.856527
    144          1           0        7.657147    5.094744   -2.905223
    145          1           0        9.020251    6.004414   -2.552269
    146          1           0        7.430740    6.793059   -2.385595
    147          1           0        9.194099    7.082925    0.970845
    148          1           0       10.793482    6.475932    1.225756
    149          1           0        9.941139    5.978621    3.213051
    150          1           0        9.074790    4.559372    2.587043
    151          1           0        8.261975    6.053743    2.593386
    152          1           0       13.738835    3.303684    1.039053
    153          1           0       14.508471    2.281912   -0.208308
    154          1           0       14.469726    1.740983    1.383807
    155          1           0       12.104669   -2.742479    2.176896
    156          1           0       12.696535   -6.188441   -0.251376
    157          1           0       14.266023   -5.873753    0.437155
    158          1           0       13.726475   -5.003967   -1.068700
 ---------------------------------------------------------------------

 SCF Done:  E(RCAM-B3LYP) =  -4069.79736518     A.U. after   19 cycles

 Excitation energies and oscillator strengths:

 Excited State   1:      Singlet-A      1.7039 eV  727.65 nm  f=0.5855  <S**2>=0.000
     309 -> 315        0.16333
     311 -> 313       -0.21328
     312 -> 314        0.65343
     309 <- 315        0.10007
 This state for optimization and/or second-order correction.
 Total Energy, E(TD-HF/TD-DFT) =  -4069.73474840
 Copying the excited state density for this state as the 1-particle RhoCI density.

 Excited State   2:      Singlet-A      1.7428 eV  711.41 nm  f=0.2392  <S**2>=0.000
     310 -> 316        0.15652
     311 -> 313        0.65512
     312 -> 314        0.21141

 Excited State   3:      Singlet-A      2.1720 eV  570.84 nm  f=0.1996  <S**2>=0.000
     310 -> 313        0.67360
     311 -> 316       -0.20157

 Excited State   4:      Singlet-A      2.2227 eV  557.82 nm  f=0.1730  <S**2>=0.000
     309 -> 314        0.65213
     312 -> 315       -0.25435

 Excited State   5:      Singlet-A      2.7506 eV  450.75 nm  f=0.0000  <S**2>=0.000
     312 -> 313        0.70694

 The electronic state is 1-A.
 Alpha  occ. eigenvalues --  -46.89620 -46.87481 -19.24665 -19.24214 -19.19863
 Alpha  occ. eigenvalues --  -19.19412 -19.18773 -19.18452 -19.18398 -19.17992
 Alpha  occ. eigenvalues --  -14.42094 -14.41966 -14.41938 -14.40344 -14.40009
 Alpha  occ. eigenvalues --  -14.39948 -14.39499 -14.38760 -10.38757 -10.38130
 Alpha  occ. eigenvalues --  -10.36177 -10.35284 -10.34610 -10.34319 -10.31869
 Alpha  occ. eigenvalues --  -10.31320 -10.31318 -10.31207 -10.31071 -10.30986
 Alpha  occ. eigenvalues --  -10.30944 -10.30782 -10.30536 -10.30218 -10.30199
 Alpha  occ. eigenvalues --  -10.30013 -10.29950 -10.29557 -10.29491 -10.29175
 Alpha  occ. eigenvalues --  -10.29143 -10.28895 -10.28840 -10.28771 -10.28454
 Alpha  occ. eigenvalues --  -10.28388 -10.28361 -10.28354 -10.28261 -10.28166
 Alpha  occ. eigenvalues --  -10.28089 -10.28083 -10.28071 -10.28046 -10.27760
 Alpha  occ. eigenvalues --  -10.27486 -10.27447 -10.27418 -10.27336 -10.27314
 Alpha  occ. eigenvalues --  -10.27296 -10.27265 -10.27080 -10.26971 -10.26952
 Alpha  occ. eigenvalues --  -10.26666 -10.26647 -10.26493 -10.26456 -10.26451
 Alpha  occ. eigenvalues --  -10.26418 -10.26243 -10.26073 -10.26054 -10.26010
 Alpha  occ. eigenvalues --  -10.25985 -10.25974 -10.25932 -10.25839 -10.25634
 Alpha  occ. eigenvalues --  -10.25610 -10.25573 -10.25330 -10.25295 -10.24835
 Alpha  occ. eigenvalues --  -10.24430  -3.18143  -3.16265  -1.93030  -1.92606
 Alpha  occ. eigenvalues --   -1.92443  -1.91163  -1.90737  -1.90569  -1.17768
 Alpha  occ. eigenvalues --   -1.14427  -1.12320  -1.11076  -1.08664  -1.08253
 Alpha  occ. eigenvalues --   -1.07627  -1.06588  -1.05898  -1.05128  -1.05060
 Alpha  occ. eigenvalues --   -1.04387  -1.03490  -1.03132  -1.02342  -1.01170
 Alpha  occ. eigenvalues --   -0.91889  -0.91450  -0.89437  -0.89154  -0.89041
 Alpha  occ. eigenvalues --   -0.88574  -0.88163  -0.88139  -0.87960  -0.87815
 Alpha  occ. eigenvalues --   -0.87432  -0.87317  -0.86558  -0.85380  -0.84533
 Alpha  occ. eigenvalues --   -0.84383  -0.83690  -0.83225  -0.82777  -0.82302
 Alpha  occ. eigenvalues --   -0.82163  -0.82110  -0.81144  -0.80987  -0.80581
 Alpha  occ. eigenvalues --   -0.80385  -0.78939  -0.78066  -0.77328  -0.77142
 Alpha  occ. eigenvalues --   -0.76864  -0.76697  -0.76401  -0.75799  -0.75572
 Alpha  occ. eigenvalues --   -0.75083  -0.73244  -0.72960  -0.71271  -0.71255
 Alpha  occ. eigenvalues --   -0.69481  -0.69375  -0.68932  -0.68632  -0.68114
 Alpha  occ. eigenvalues --   -0.67595  -0.67527  -0.66935  -0.66289  -0.65779
 Alpha  occ. eigenvalues --   -0.65190  -0.65154  -0.64706  -0.64417  -0.64404
 Alpha  occ. eigenvalues --   -0.64203  -0.62171  -0.61610  -0.61250  -0.60286
 Alpha  occ. eigenvalues --   -0.60200  -0.59790  -0.59245  -0.58783  -0.58318
 Alpha  occ. eigenvalues --   -0.58238  -0.58161  -0.57762  -0.57478  -0.57369
 Alpha  occ. eigenvalues --   -0.56709  -0.56313  -0.56018  -0.55947  -0.55684
 Alpha  occ. eigenvalues --   -0.54845  -0.54505  -0.54197  -0.54188  -0.54045
 Alpha  occ. eigenvalues --   -0.53578  -0.53330  -0.53206  -0.52947  -0.52821
 Alpha  occ. eigenvalues --   -0.52641  -0.52561  -0.52252  -0.52173  -0.52162
 Alpha  occ. eigenvalues --   -0.52038  -0.51939  -0.51501  -0.51461  -0.51133
 Alpha  occ. eigenvalues --   -0.50705  -0.50403  -0.50240  -0.50110  -0.50053
 Alpha  occ. eigenvalues --   -0.50003  -0.49891  -0.49726  -0.49695  -0.49463
 Alpha  occ. eigenvalues --   -0.49413  -0.49242  -0.49076  -0.49010  -0.48922
 Alpha  occ. eigenvalues --   -0.48910  -0.48762  -0.48487  -0.48192  -0.48112
 Alpha  occ. eigenvalues --   -0.47971  -0.47940  -0.47728  -0.47583  -0.47561
 Alpha  occ. eigenvalues --   -0.47094  -0.46655  -0.46600  -0.46407  -0.46288
 Alpha  occ. eigenvalues --   -0.46193  -0.45957  -0.45831  -0.45702  -0.45596
 Alpha  occ. eigenvalues --   -0.45349  -0.45198  -0.45096  -0.44966  -0.44951
 Alpha  occ. eigenvalues --   -0.44732  -0.44722  -0.44632  -0.44406  -0.44238
 Alpha  occ. eigenvalues --   -0.44187  -0.43704  -0.43614  -0.43507  -0.43399
 Alpha  occ. eigenvalues --   -0.43281  -0.43176  -0.43034  -0.42923  -0.42815
 Alpha  occ. eigenvalues --   -0.42459  -0.42387  -0.42342  -0.42039  -0.41815
 Alpha  occ. eigenvalues --   -0.41461  -0.41424  -0.41328  -0.41202  -0.41082
 Alpha  occ. eigenvalues --   -0.40913  -0.40864  -0.40788  -0.40530  -0.40366
 Alpha  occ. eigenvalues --   -0.40284  -0.40067  -0.40008  -0.39010  -0.38712
 Alpha  occ. eigenvalues --   -0.38500  -0.38006  -0.37809  -0.37543  -0.37226
 Alpha  occ. eigenvalues --   -0.37007  -0.36696  -0.36341  -0.36244  -0.36184
 Alpha  occ. eigenvalues --   -0.36004  -0.35964  -0.34034  -0.33760  -0.33708
 Alpha  occ. eigenvalues --   -0.33289  -0.32926  -0.32787  -0.32007  -0.31699
 Alpha  occ. eigenvalues --   -0.31280  -0.31239  -0.30945  -0.30533  -0.30343
 Alpha  occ. eigenvalues --   -0.29872  -0.29850  -0.29550  -0.23922  -0.23710
 Alpha  occ. eigenvalues --   -0.21803  -0.21275
 Alpha virt. eigenvalues --   -0.09244  -0.08887  -0.01223  -0.00524   0.00708
 Alpha virt. eigenvalues --    0.00754   0.02121   0.02476   0.02687   0.03355
 Alpha virt. eigenvalues --    0.04305   0.04956   0.05813   0.05862   0.06023

 Mulliken charges:
               1
     1  Mg  12.001323
     2  C    5.993324
     3  C    6.001365
     4  C    6.006850
     5  C    5.997556
     6  N    6.995317
     7  C    6.008853
     8  C    5.998130
     9  C    6.002189
    10  C    5.992101
    11  C    6.001844
    12  C    5.999031
    13  C    5.999531
    14  H    1.000313
    15  N    7.004559
    16  C    5.987852
    17  C    5.992472
    18  C    5.996625
    19  C    5.987145
    20  C    6.001608
    21  C    5.995803
    22  O    7.992239
    23  C    6.002237
    24  N    7.000531
    25  C    5.989171
    26  C    6.004590
    27  C    5.996540
    28  C    6.006277
    29  C    6.000056
    30  C    5.998937
    31  C    6.000027
    32  N    6.999993
    33  C    6.012987
    34  C    6.011889
    35  C    6.000104
    36  C    6.011905
    37  C    5.999543
    38  C    6.005431
    39  O    8.008904
    40  C    6.001010
    41  C    6.001566
    42  O    8.003064
    43  O    7.999770
    44  C    5.999350
    45  H    0.995644
    46  H    0.997660
    47  H    1.003925
    48  H    0.999196
    49  H    0.999005
    50  H    0.998353
    51  H    0.995077
    52  H    1.000374
    53  H    1.004150
    54  H    0.999359
    55  H    0.998892
    56  H    1.001159
    57  H    0.993416
    58  H    0.993926
    59  H    0.993394
    60  H    0.997504
    61  H    0.997814
    62  H    0.994758
    63  H    0.999341
    64  H    1.000244
    65  H    1.001476
    66  H    0.996812
    67  H    0.998985
    68  H    0.999203
    69  H    1.002741
    70  H    1.001325
    71  H    1.000378
    72  H    0.999814
    73  H    1.007228
    74  H    1.006105
    75  H    1.007780
    76  H    1.001815
    77  H    1.001010
    78  H    1.001759
    79  H    1.000467
    80  Mg  12.002685
    81  C    5.981721
    82  C    6.021157
    83  C    6.026041
    84  C    5.988340
    85  N    6.994648
    86  C    6.027538
    87  C    5.992686
    88  C    6.016178
    89  C    5.967570
    90  C    6.003268
    91  C    5.998875
    92  C    5.998513
    93  H    1.005186
    94  N    7.008544
    95  C    5.957066
    96  C    5.983913
    97  C    5.982503
    98  C    5.960964
    99  C    6.003708
   100  C    5.987067
   101  O    7.970025
   102  C    6.006055
   103  N    7.000847
   104  C    5.959564
   105  C    6.016012
   106  C    5.989544
   107  C    6.027904
   108  C    5.999399
   109  C    5.994693
   110  C    5.996904
   111  N    6.995913
   112  C    6.039099
   113  C    6.026217
   114  C    6.003268
   115  C    6.035646
   116  C    5.994382
   117  C    6.015817
   118  O    8.031928
   119  C    6.003851
   120  C    6.004110
   121  O    8.006898
   122  O    8.001127
   123  C    5.996855
   124  H    0.990756
   125  H    0.994635
   126  H    1.010963
   127  H    0.997785
   128  H    0.991857
   129  H    0.985598
   130  H    1.003565
   131  H    0.997784
   132  H    1.008924
   133  H    0.993095
   134  H    0.993943
   135  H    1.004922
   136  H    0.982528
   137  H    0.980525
   138  H    0.983840
   139  H    0.984216
   140  H    0.989043
   141  H    0.994146
   142  H    0.995940
   143  H    1.002156
   144  H    1.003348
   145  H    0.988382
   146  H    0.998657
   147  H    1.010821
   148  H    0.997880
   149  H    0.999719
   150  H    0.999566
   151  H    1.010826
   152  H    1.020457
   153  H    1.023089
   154  H    1.014570
   155  H    1.009339
   156  H    1.007601
   157  H    1.003603
   158  H    1.001690
 Sum of Mulliken charges = 624.00000

 Dipole moment (field-independent basis, Debye):
    X=             13.4388    Y=             -0.7520    Z=             -0.2495  Tot=             13.4622
 Quadrupole moment (field-independent basis, Debye-Ang):
   XX=            129.8495   YY=              1.6370   ZZ=             -0.2575
   XY=              9.1470   XZ=             37.0366   YZ=              1.5002

 Normal termination of Gaussian 16 at Wed Sep 22 15:01:13 2021.
