 Gaussian 16, Revision A.03,
 Gaussian 16:  ES64L-G16RevA.03 25-Dec-2016

 -----------------------------------
 #p cam-b3lyp/Def2SVP td=(nstates=5)
 -----------------------------------

 --------------------------------
 TDDFT excited states in gaussian
 --------------------------------
 Symbolic Z-matrix:
 Charge =  0 Multiplicity = 1

                         Standard orientation:
 ---------------------------------------------------------------------
 Center     Atomic      Atomic             Coordinates (Angstroms)
 Number     Number       Type             X           Y           Z
 ---------------------------------------------------------------------
      1         12           0      -21.508099    0.496341   -0.215712
      2          6           0      -17.936368    0.586998   -0.922442
      3          6           0      -21.857574   -1.480984   -3.000964
      4          6           0      -24.278656   -0.793246    1.142004
      5          6           0      -20.993187    2.573435    2.423774
      6          7           0      -19.985524   -0.505366   -1.673573
      7          6           0      -18.572953   -0.249874   -1.805083
      8          6           0      -18.064282   -0.868551   -3.110177
      9          6           0      -19.356831   -1.182313   -3.919939
     10          6           0      -20.523693   -1.052955   -2.844954
     11          6           0      -19.608951   -0.177596   -5.141688
     12          6           0      -17.046333   -1.965777   -2.999534
     13          6           0      -16.893853   -2.662928   -1.627011
     14          1           0      -15.973080   -3.850909   -1.293348
     15          7           0      -22.975650   -0.859541   -0.915186
     16          6           0      -22.914740   -1.581503   -2.086613
     17          6           0      -24.198172   -2.336413   -2.233682
     18          6           0      -24.807222   -2.208432   -0.987950
     19          6           0      -24.027048   -1.309424   -0.140783
     20          6           0      -24.495508   -3.105477   -3.471945
     21          6           0      -26.118361   -2.935929   -0.570414
     22          8           0      -26.599180   -3.735454   -1.353776
     23          6           0      -26.749604   -2.838992    0.778868
     24          7           0      -22.367187    0.772090    1.628454
     25          6           0      -23.617537    0.201641    1.864277
     26          6           0      -24.227586    0.735276    3.160410
     27          6           0      -23.364729    2.018342    3.442343
     28          6           0      -22.222203    1.817240    2.444283
     29          6           0      -25.746916    1.042455    3.191518
     30          6           0      -22.889413    2.217508    4.917291
     31          6           0      -23.624610    3.373301    5.738236
     32          7           0      -19.845805    1.490147    0.581730
     33          6           0      -19.824043    2.386557    1.640288
     34          6           0      -18.523097    3.005741    1.705988
     35          6           0      -17.784037    2.258241    0.779056
     36          6           0      -18.663421    1.368129    0.114480
     37          6           0      -18.139189    4.079261    2.739036
     38          6           0      -16.503666    2.097174    0.161062
     39          8           0      -15.492744    2.783292    0.413428
     40          6           0      -16.540641    1.103856   -1.083570
     41          6           0      -15.435610    0.158038   -0.829674
     42          8           0      -15.209750   -0.448761    0.222604
     43          8           0      -14.794246   -0.010844   -2.011878
     44          6           0      -13.513729   -0.784128   -1.967225
     45          1           0      -21.964048   -2.123651   -3.876836
     46          1           0      -25.193159   -1.213667    1.566160
     47          1           0      -20.890647    3.331709    3.202376
     48          1           0      -17.601507    0.030906   -3.516352
     49          1           0      -19.429595   -2.228702   -4.216907
     50          1           0      -19.481258   -0.815031   -6.015702
     51          1           0      -18.906441    0.653744   -5.078199
     52          1           0      -20.651356    0.130925   -5.054663
     53          1           0      -16.113146   -1.548494   -3.377430
     54          1           0      -17.415545   -2.660343   -3.754839
     55          1           0      -17.906067   -2.969406   -1.361321
     56          1           0      -16.552226   -1.938975   -0.886954
     57          1           0      -24.456699   -4.156163   -3.185934
     58          1           0      -23.743355   -2.850998   -4.218065
     59          1           0      -25.459984   -2.788958   -3.870608
     60          1           0      -26.201340   -3.233480    1.633525
     61          1           0      -27.657477   -3.435761    0.861776
     62          1           0      -26.989410   -1.776172    0.807399
     63          1           0      -23.980949   -0.123501    3.785802
     64          1           0      -23.982985    2.843696    3.088587
     65          1           0      -26.339781    0.258824    3.664342
     66          1           0      -26.126526    1.103548    2.172130
     67          1           0      -25.872580    2.015622    3.667385
     68          1           0      -21.818269    2.391555    5.023310
     69          1           0      -23.046081    1.240769    5.375212
     70          1           0      -23.800695    2.887668    6.697728
     71          1           0      -24.562259    3.721340    5.304632
     72          1           0      -22.962371    4.238166    5.721454
     73          1           0      -17.371042    4.782506    2.416569
     74          1           0      -17.733540    3.456199    3.535384
     75          1           0      -18.985605    4.739085    2.928335
     76          1           0      -16.415202    1.676721   -2.003546
     77          1           0      -13.102332   -0.855651   -2.974666
     78          1           0      -13.678422   -1.799563   -1.606352
     79          1           0      -12.907024   -0.174410   -1.299184
     80         12           0       20.393262   -0.719981    0.090083
     81          6           0       21.572215    2.310255   -0.988482
     82          6           0       17.359363    0.611589    0.560978
     83          6           0       19.450751   -3.698694    1.355822
     84          6           0       23.812494   -1.955567    0.051939
     85          7           0       19.641850    1.364744    0.055668
     86          6           0       20.245688    2.412855   -0.517396
     87          6           0       19.246884    3.679166   -0.584765
     88          6           0       17.921116    3.004570   -0.068779
     89          6           0       18.307312    1.548102    0.258859
     90          6           0       17.231895    3.783099    1.068682
     91          6           0       19.117698    4.302050   -2.003793
     92          6           0       17.930991    5.282584   -2.278007
     93          1           0       18.250823    6.825049   -2.320444
     94          7           0       18.638219   -1.433675    0.905819
     95          6           0       17.490091   -0.789051    0.920992
     96          6           0       16.468321   -1.672999    1.461183
     97          6           0       17.049531   -2.926607    1.818861
     98          6           0       18.440226   -2.728012    1.354868
     99          6           0       15.033952   -1.277938    1.771284
    100          6           0       16.449922   -4.136537    2.527813
    101          8           0       17.167759   -5.007034    3.011522
    102          6           0       14.968683   -4.244823    2.629492
    103          7           0       21.500529   -2.553783    0.669288
    104          6           0       20.866399   -3.632462    1.113302
    105          6           0       21.798548   -4.851473    1.211343
    106          6           0       23.074564   -4.285715    0.593436
    107          6           0       22.778062   -2.838104    0.465997
    108          6           0       21.990333   -5.504132    2.588410
    109          6           0       23.575226   -5.056929   -0.601520
    110          6           0       24.979446   -5.742505   -0.446020
    111          7           0       22.258678   -0.043244   -0.401644
    112          6           0       23.554513   -0.657877   -0.456631
    113          6           0       24.531425    0.234001   -1.041655
    114          6           0       23.736659    1.393049   -1.262917
    115          6           0       22.414830    1.170684   -0.856843
    116          6           0       25.935663    0.010990   -1.480616
    117          6           0       23.835168    2.657312   -1.947643
    118          8           0       24.691440    3.183325   -2.674253
    119          6           0       22.534942    3.387504   -1.721608
    120          6           0       22.789695    4.538300   -0.723282
    121          8           0       23.473231    4.505695    0.311485
    122          8           0       22.111231    5.631159   -1.174823
    123          6           0       22.231692    6.899648   -0.388458
    124          1           0       16.305717    0.887112    0.640945
    125          1           0       19.286166   -4.612029    1.931314
    126          1           0       24.784935   -2.438352   -0.060345
    127          1           0       19.656362    4.369468    0.151846
    128          1           0       17.237581    2.939326   -0.915286
    129          1           0       16.164976    3.784767    0.848233
    130          1           0       17.546014    4.826512    1.097597
    131          1           0       17.424858    3.314550    2.033812
    132          1           0       18.867256    3.465761   -2.656460
    133          1           0       20.030192    4.841172   -2.258106
    134          1           0       17.258820    5.208841   -1.422492
    135          1           0       17.486812    5.031017   -3.240469
    136          1           0       14.840838   -0.239115    1.503690
    137          1           0       14.843749   -1.400982    2.837207
    138          1           0       14.316917   -1.904045    1.241810
    139          1           0       14.601264   -4.066635    1.618483
    140          1           0       14.369560   -3.607634    3.279276
    141          1           0       14.639132   -5.228578    2.962000
    142          1           0       21.395075   -5.626003    0.559999
    143          1           0       23.862741   -4.383285    1.339789
    144          1           0       22.015976   -6.571674    2.371184
    145          1           0       21.205666   -5.188516    3.275850
    146          1           0       22.874052   -5.164208    3.128313
    147          1           0       23.723428   -4.287002   -1.358050
    148          1           0       22.894395   -5.840487   -0.932843
    149          1           0       25.395991   -5.519541    0.536623
    150          1           0       25.636022   -5.305206   -1.198830
    151          1           0       25.005506   -6.810730   -0.661710
    152          1           0       26.178403   -1.050390   -1.436391
    153          1           0       26.550807    0.470508   -0.707820
    154          1           0       25.976974    0.414911   -2.493201
    155          1           0       22.263282    3.758140   -2.710188
    156          1           0       22.110717    6.790495    0.689572
    157          1           0       21.580993    7.704125   -0.729661
    158          1           0       23.267134    7.216531   -0.511960
 ---------------------------------------------------------------------

 SCF Done:  E(RCAM-B3LYP) =  -4069.77781531     A.U. after   19 cycles

 Excitation energies and oscillator strengths:

 Excited State   1:      Singlet-A      1.6562 eV  748.60 nm  f=0.3626  <S**2>=0.000
     309 -> 315        0.15660
     312 -> 313        0.69069
     309 <- 315        0.10158
 This state for optimization and/or second-order correction.
 Total Energy, E(TD-HF/TD-DFT) =  -4069.71695074
 Copying the excited state density for this state as the 1-particle RhoCI density.

 Excited State   2:      Singlet-A      1.7216 eV  720.16 nm  f=0.4006  <S**2>=0.000
     310 -> 316       -0.17582
     311 -> 314        0.68382
     310 <- 316       -0.10320

 Excited State   3:      Singlet-A      2.2690 eV  546.42 nm  f=0.1130  <S**2>=0.000
     310 -> 314        0.63908
     311 -> 316        0.28653

 Excited State   4:      Singlet-A      2.2761 eV  544.73 nm  f=0.0761  <S**2>=0.000
     309 -> 313        0.61914
     312 -> 315       -0.32532

 Excited State   5:      Singlet-A      3.1147 eV  398.06 nm  f=0.0000  <S**2>=0.000
     312 -> 314        0.70710

 The electronic state is 1-A.
 Alpha  occ. eigenvalues --  -46.89346 -46.89156 -19.25593 -19.25413 -19.19503
 Alpha  occ. eigenvalues --  -19.19472 -19.19421 -19.19115 -19.17645 -19.17119
 Alpha  occ. eigenvalues --  -14.42510 -14.42036 -14.41698 -14.41588 -14.40055
 Alpha  occ. eigenvalues --  -14.39767 -14.39246 -14.38784 -10.39523 -10.39184
 Alpha  occ. eigenvalues --  -10.36062 -10.35541 -10.33579 -10.33311 -10.32182
 Alpha  occ. eigenvalues --  -10.32150 -10.31977 -10.31694 -10.31648 -10.31045
 Alpha  occ. eigenvalues --  -10.30936 -10.30916 -10.30854 -10.30544 -10.30458
 Alpha  occ. eigenvalues --  -10.30352 -10.30278 -10.29989 -10.29953 -10.29317
 Alpha  occ. eigenvalues --  -10.29049 -10.28876 -10.28772 -10.28760 -10.28555
 Alpha  occ. eigenvalues --  -10.28549 -10.28520 -10.28431 -10.28352 -10.28067
 Alpha  occ. eigenvalues --  -10.28033 -10.27958 -10.27923 -10.27902 -10.27737
 Alpha  occ. eigenvalues --  -10.27714 -10.27681 -10.27651 -10.27604 -10.27506
 Alpha  occ. eigenvalues --  -10.27461 -10.27339 -10.27277 -10.27204 -10.27163
 Alpha  occ. eigenvalues --  -10.26994 -10.26989 -10.26959 -10.26935 -10.26824
 Alpha  occ. eigenvalues --  -10.26720 -10.26674 -10.26488 -10.26461 -10.26428
 Alpha  occ. eigenvalues --  -10.26298 -10.26229 -10.26215 -10.26196 -10.26145
 Alpha  occ. eigenvalues --  -10.26075 -10.25988 -10.25686 -10.25633 -10.24366
 Alpha  occ. eigenvalues --  -10.24019  -3.17834  -3.17681  -1.92707  -1.92572
 Alpha  occ. eigenvalues --   -1.92311  -1.92130  -1.92116  -1.91994  -1.16132
 Alpha  occ. eigenvalues --   -1.15528  -1.10724  -1.10353  -1.07936  -1.07528
 Alpha  occ. eigenvalues --   -1.06725  -1.06507  -1.05697  -1.04879  -1.04352
 Alpha  occ. eigenvalues --   -1.04063  -1.03843  -1.02923  -1.02863  -1.00394
 Alpha  occ. eigenvalues --   -0.91980  -0.91238  -0.89889  -0.89385  -0.89014
 Alpha  occ. eigenvalues --   -0.88695  -0.88650  -0.88138  -0.87517  -0.87123
 Alpha  occ. eigenvalues --   -0.86970  -0.86863  -0.86690  -0.86126  -0.84417
 Alpha  occ. eigenvalues --   -0.84157  -0.83742  -0.83303  -0.82770  -0.82392
 Alpha  occ. eigenvalues --   -0.82323  -0.82133  -0.81076  -0.81011  -0.80209
 Alpha  occ. eigenvalues --   -0.80007  -0.78502  -0.78063  -0.77795  -0.77525
 Alpha  occ. eigenvalues --   -0.76707  -0.76534  -0.76065  -0.76042  -0.75318
 Alpha  occ. eigenvalues --   -0.75291  -0.73073  -0.72601  -0.71723  -0.71652
 Alpha  occ. eigenvalues --   -0.69675  -0.69413  -0.69078  -0.69055  -0.67678
 Alpha  occ. eigenvalues --   -0.67651  -0.67542  -0.66951  -0.66225  -0.65814
 Alpha  occ. eigenvalues --   -0.65408  -0.64856  -0.64707  -0.64429  -0.63911
 Alpha  occ. eigenvalues --   -0.63584  -0.62604  -0.62166  -0.60696  -0.59664
 Alpha  occ. eigenvalues --   -0.59625  -0.59159  -0.59087  -0.58848  -0.58606
 Alpha  occ. eigenvalues --   -0.58071  -0.57955  -0.57539  -0.57406  -0.57238
 Alpha  occ. eigenvalues --   -0.56812  -0.56328  -0.56277  -0.55626  -0.55220
 Alpha  occ. eigenvalues --   -0.55112  -0.54608  -0.54509  -0.54285  -0.54161
 Alpha  occ. eigenvalues --   -0.53711  -0.53711  -0.53494  -0.53368  -0.52895
 Alpha  occ. eigenvalues --   -0.52764  -0.52592  -0.52542  -0.52334  -0.52134
 Alpha  occ. eigenvalues --   -0.51878  -0.51651  -0.51419  -0.51248  -0.51156
 Alpha  occ. eigenvalues --   -0.51085  -0.51083  -0.50695  -0.50674  -0.50448
 Alpha  occ. eigenvalues --   -0.50012  -0.49935  -0.49757  -0.49706  -0.49661
 Alpha  occ. eigenvalues --   -0.49570  -0.49335  -0.49007  -0.48984  -0.48938
 Alpha  occ. eigenvalues --   -0.48821  -0.48535  -0.48393  -0.48154  -0.48134
 Alpha  occ. eigenvalues --   -0.47795  -0.47761  -0.47642  -0.47625  -0.47269
 Alpha  occ. eigenvalues --   -0.47192  -0.46949  -0.46831  -0.46757  -0.46587
 Alpha  occ. eigenvalues --   -0.46351  -0.46279  -0.46109  -0.45937  -0.45753
 Alpha  occ. eigenvalues --   -0.45500  -0.45227  -0.44997  -0.44952  -0.44666
 Alpha  occ. eigenvalues --   -0.44485  -0.44483  -0.44376  -0.44095  -0.44030
 Alpha  occ. eigenvalues --   -0.43985  -0.43979  -0.43831  -0.43562  -0.43518
 Alpha  occ. eigenvalues --   -0.43456  -0.42889  -0.42862  -0.42774  -0.42726
 Alpha  occ. eigenvalues --   -0.42597  -0.42318  -0.42175  -0.42161  -0.41986
 Alpha  occ. eigenvalues --   -0.41967  -0.41956  -0.41805  -0.41791  -0.41497
 Alpha  occ. eigenvalues --   -0.41112  -0.41065  -0.40808  -0.40807  -0.40395
 Alpha  occ. eigenvalues --   -0.39958  -0.39392  -0.39248  -0.39121  -0.39059
 Alpha  occ. eigenvalues --   -0.38549  -0.38236  -0.37837  -0.37446  -0.37137
 Alpha  occ. eigenvalues --   -0.37021  -0.36648  -0.36628  -0.36385  -0.36173
 Alpha  occ. eigenvalues --   -0.35926  -0.35884  -0.34426  -0.34256  -0.33972
 Alpha  occ. eigenvalues --   -0.33866  -0.33328  -0.32732  -0.31934  -0.31566
 Alpha  occ. eigenvalues --   -0.31209  -0.31076  -0.30558  -0.30144  -0.29940
 Alpha  occ. eigenvalues --   -0.29638  -0.29473  -0.29277  -0.24495  -0.23883
 Alpha  occ. eigenvalues --   -0.21075  -0.20795
 Alpha virt. eigenvalues --   -0.08625  -0.08521  -0.01832  -0.01741   0.00607
 Alpha virt. eigenvalues --    0.00885   0.01431   0.01924   0.02457   0.02581
 Alpha virt. eigenvalues --    0.04838   0.04932   0.05367   0.05708   0.06064

 Mulliken charges:
               1
     1  Mg   0.820313
     2  C   -0.030339
     3  C   -0.063568
     4  C   -0.071128
     5  C   -0.075642
     6  N   -0.309249
     7  C   -0.098397
     8  C    0.032429
     9  C   -0.089014
    10  C    0.018007
    11  C    0.083169
    12  C    0.077554
    13  C   -0.046981
    14  H    0.019709
    15  N   -0.391663
    16  C    0.125447
    17  C   -0.145326
    18  C   -0.034486
    19  C    0.142985
    20  C    0.154398
    21  C   -0.013485
    22  O   -0.198085
    23  C    0.066648
    24  N   -0.314465
    25  C    0.069869
    26  C   -0.078994
    27  C    0.038575
    28  C   -0.001213
    29  C    0.080935
    30  C    0.022875
    31  C   -0.006870
    32  N   -0.284782
    33  C    0.084279
    34  C   -0.172571
    35  C    0.043251
    36  C    0.082293
    37  C    0.114718
    38  C    0.003074
    39  O   -0.216494
    40  C    0.045240
    41  C    0.197702
    42  O   -0.231882
    43  O   -0.339238
    44  C    0.180693
    45  H   -0.019392
    46  H   -0.063746
    47  H   -0.033474
    48  H    0.001466
    49  H    0.014766
    50  H    0.026233
    51  H    0.028986
    52  H    0.019977
    53  H    0.006667
    54  H   -0.008003
    55  H    0.024341
    56  H    0.048666
    57  H    0.049582
    58  H   -0.000644
    59  H    0.036283
    60  H    0.054908
    61  H    0.021156
    62  H    0.037910
    63  H    0.025858
    64  H    0.005581
    65  H    0.018983
    66  H    0.015447
    67  H    0.020844
    68  H    0.021131
    69  H   -0.000050
    70  H    0.029374
    71  H    0.015110
    72  H    0.025940
    73  H    0.027687
    74  H    0.049088
    75  H    0.018958
    76  H    0.043753
    77  H    0.041254
    78  H    0.050533
    79  H    0.054536
    80  Mg   0.832056
    81  C   -0.058922
    82  C   -0.068380
    83  C   -0.048478
    84  C   -0.064237
    85  N   -0.282650
    86  C   -0.070739
    87  C    0.037199
    88  C   -0.103349
    89  C    0.096664
    90  C    0.074341
    91  C    0.030394
    92  C   -0.078906
    93  H   -0.000475
    94  N   -0.351759
    95  C    0.093676
    96  C   -0.163036
    97  C   -0.023572
    98  C    0.114243
    99  C    0.115752
   100  C    0.042814
   101  O   -0.195757
   102  C    0.027059
   103  N   -0.202742
   104  C   -0.029760
   105  C   -0.063767
   106  C   -0.010476
   107  C   -0.014941
   108  C    0.083991
   109  C    0.049336
   110  C   -0.014692
   111  N   -0.364356
   112  C    0.117910
   113  C   -0.165095
   114  C   -0.033238
   115  C    0.166887
   116  C    0.154761
   117  C    0.031398
   118  O   -0.204195
   119  C    0.011474
   120  C    0.227296
   121  O   -0.237199
   122  O   -0.334637
   123  C    0.179435
   124  H   -0.045342
   125  H    0.005820
   126  H   -0.021695
   127  H    0.012736
   128  H    0.012088
   129  H    0.012231
   130  H    0.020282
   131  H    0.026688
   132  H    0.007743
   133  H    0.051176
   134  H    0.027730
   135  H    0.042476
   136  H    0.007583
   137  H    0.030009
   138  H    0.019433
   139  H    0.028806
   140  H    0.042063
   141  H    0.025852
   142  H    0.012597
   143  H   -0.000601
   144  H    0.024210
   145  H    0.022931
   146  H    0.008021
   147  H    0.006247
   148  H    0.012149
   149  H    0.013264
   150  H    0.012243
   151  H    0.019479
   152  H   -0.002893
   153  H    0.041527
   154  H    0.058631
   155  H    0.040240
   156  H    0.041171
   157  H    0.045325
   158  H    0.038457
 Sum of Mulliken charges =  -0.00000

 Dipole moment (field-independent basis, Debye):
    X=             -9.0165    Y=             -0.2495    Z=             -1.2876  Tot=              9.1113
 Quadrupole moment (field-independent basis, Debye-Ang):
   XX=           -545.9558   YY=           -510.7229   ZZ=           -499.4958
   XY=           -111.5150   XZ=            -13.7161   YZ=             17.7202

 Normal termination of Gaussian 16 at Tue Aug 31 18:12:28 2021.
