 Gaussian 16, Revision A.03,
 Gaussian 16:  ES64L-G16RevA.03 25-Dec-2016

 -----------------------------------
 #p cam-b3lyp/Def2SVP td=(nstates=5)
 -----------------------------------

 --------------------------------
 TDDFT excited states in gaussian
 --------------------------------
 Symbolic Z-matrix:
 Charge =  0 Multiplicity = 1

                         Standard orientation:
 ---------------------------------------------------------------------
 Center     Atomic      Atomic             Coordinates (Angstroms)
 Number     Number       Type             X           Y           Z
 ---------------------------------------------------------------------
      1         12           0       24.502808   -0.786858    0.199015
      2          6           0       22.692127    2.266727    0.699037
      3          6           0       27.344517    1.113538   -0.253446
      4          6           0       25.970505   -3.507271   -0.859483
      5          6           0       21.469823   -2.439730    0.480881
      6          7           0       24.917916    1.525800   -0.055125
      7          6           0       24.022112    2.490046    0.320220
      8          6           0       24.761272    3.843967    0.493254
      9          6           0       26.264560    3.496015    0.126699
     10          6           0       26.227900    1.942018   -0.109347
     11          6           0       26.910446    4.224909   -1.125795
     12          6           0       24.652161    4.480358    1.904605
     13          6           0       24.365898    5.937440    1.988406
     14          1           0       24.590488    6.938785    0.791721
     15          7           0       26.443213   -1.190417   -0.499176
     16          6           0       27.533777   -0.321141   -0.494007
     17          6           0       28.707406   -1.027181   -1.042823
     18          6           0       28.322376   -2.421175   -1.110278
     19          6           0       26.868028   -2.426627   -0.828646
     20          6           0       30.035022   -0.412035   -1.367240
     21          6           0       29.147448   -3.687987   -1.437824
     22          8           0       28.798208   -4.857942   -1.174139
     23          6           0       30.519524   -3.493283   -1.945341
     24          7           0       23.800230   -2.617383   -0.178770
     25          6           0       24.644163   -3.577788   -0.691755
     26          6           0       23.974597   -4.979870   -0.674981
     27          6           0       22.632122   -4.658678    0.119683
     28          6           0       22.623029   -3.140588    0.167101
     29          6           0       23.732006   -5.709865   -2.058646
     30          6           0       22.495818   -5.248977    1.514248
     31          6           0       21.377883   -6.298197    1.688684
     32          7           0       22.517768   -0.269151    0.709358
     33          6           0       21.389028   -1.052877    0.752459
     34          6           0       20.210244   -0.220575    1.026349
     35          6           0       20.712400    1.068097    1.065556
     36          6           0       22.109389    0.996389    0.867628
     37          6           0       18.778989   -0.626287    1.153694
     38          6           0       20.300929    2.408217    1.283443
     39          8           0       19.194282    2.909673    1.631866
     40          6           0       21.507615    3.217553    1.060614
     41          6           0       21.227378    4.300735    0.054340
     42          8           0       21.052814    4.131935   -1.103963
     43          8           0       21.273344    5.493685    0.646983
     44          6           0       20.742871    6.630235   -0.026335
     45          1           0       28.287720    1.637592   -0.422303
     46          1           0       26.334623   -4.495868   -1.149848
     47          1           0       20.510586   -2.959930    0.489969
     48          1           0       24.315238    4.520480   -0.236716
     49          1           0       26.909274    3.689656    0.983463
     50          1           0       26.315952    5.031315   -1.554284
     51          1           0       26.980070    3.479300   -1.919170
     52          1           0       27.916552    4.571464   -0.887738
     53          1           0       25.566567    4.373385    2.489313
     54          1           0       23.855870    4.040838    2.504619
     55          1           0       25.004099    6.393933    2.745593
     56          1           0       23.327456    6.043895    2.300882
     57          1           0       30.295300   -0.638482   -2.400973
     58          1           0       30.761142   -0.890416   -0.709964
     59          1           0       30.077107    0.634770   -1.064587
     60          1           0       30.444029   -2.979366   -2.903666
     61          1           0       30.894819   -4.495670   -2.150009
     62          1           0       31.177590   -3.059498   -1.192918
     63          1           0       24.610998   -5.595227   -0.038231
     64          1           0       21.811347   -5.043527   -0.485481
     65          1           0       24.100690   -5.092992   -2.877401
     66          1           0       22.701715   -6.041368   -2.193467
     67          1           0       24.285395   -6.648502   -2.025832
     68          1           0       22.466635   -4.542115    2.343583
     69          1           0       23.416069   -5.798347    1.710012
     70          1           0       20.762566   -6.220663    2.584828
     71          1           0       21.873434   -7.245502    1.902847
     72          1           0       20.674122   -6.375792    0.861050
     73          1           0       18.660524   -1.694872    1.335395
     74          1           0       18.272249   -0.511774    0.195575
     75          1           0       18.325183    0.065426    1.863300
     76          1           0       21.747791    3.662990    2.025660
     77          1           0       19.657497    6.530796    0.020205
     78          1           0       20.975720    6.596990   -1.090759
     79          1           0       21.010594    7.553617    0.487958
     80         12           0      -24.420975   -0.707866   -0.009278
     81          6           0      -23.286263    2.646351   -0.812795
     82          6           0      -24.315687    0.283394    3.211158
     83          6           0      -25.361448   -3.681893    0.678803
     84          6           0      -24.114232   -1.548456   -3.435091
     85          7           0      -23.859082    1.363829    1.084295
     86          6           0      -23.536145    2.550872    0.542543
     87          6           0      -23.492839    3.639572    1.631776
     88          6           0      -23.379026    2.663238    2.893659
     89          6           0      -23.930699    1.393398    2.396944
     90          6           0      -22.084576    2.660499    3.689498
     91          6           0      -24.769743    4.491683    1.530096
     92          6           0      -24.583129    5.931242    2.093549
     93          1           0      -23.153916    6.553418    2.447332
     94          7           0      -24.849712   -1.615879    1.739543
     95          6           0      -24.669826   -1.088565    3.003949
     96          6           0      -24.991697   -2.130309    3.974515
     97          6           0      -25.376804   -3.281612    3.244169
     98          6           0      -25.192826   -2.872132    1.822981
     99          6           0      -24.907397   -1.960814    5.426105
    100          6           0      -25.925552   -4.710224    3.767623
    101          8           0      -26.375616   -5.525930    3.010346
    102          6           0      -26.179400   -4.975471    5.262431
    103          7           0      -24.431195   -2.442443   -1.200718
    104          6           0      -25.020824   -3.517167   -0.683225
    105          6           0      -25.265143   -4.627524   -1.669475
    106          6           0      -25.242315   -3.799727   -2.977647
    107          6           0      -24.394805   -2.568639   -2.505090
    108          6           0      -24.142000   -5.766239   -1.670490
    109          6           0      -26.655387   -3.431251   -3.597100
    110          6           0      -27.870885   -4.377767   -3.375301
    111          7           0      -23.734180    0.245696   -1.750521
    112          6           0      -23.714647   -0.148862   -3.047710
    113          6           0      -23.395827    0.901187   -3.904950
    114          6           0      -23.179954    1.957866   -3.067157
    115          6           0      -23.406454    1.563334   -1.763355
    116          6           0      -23.378624    0.842890   -5.429964
    117          6           0      -22.833288    3.386525   -3.105776
    118          8           0      -22.406342    4.117633   -3.986820
    119          6           0      -22.981511    3.877181   -1.599655
    120          6           0      -21.753669    4.566414   -1.243367
    121          8           0      -20.673231    4.050796   -0.939549
    122          8           0      -21.928796    5.866593   -1.559104
    123          6           0      -20.676598    6.599432   -1.614151
    124          1           0      -24.104646    0.551802    4.248475
    125          1           0      -25.644735   -4.699172    0.954907
    126          1           0      -24.127769   -1.829667   -4.489997
    127          1           0      -22.568475    4.215604    1.587082
    128          1           0      -24.098797    3.039716    3.619215
    129          1           0      -22.217997    3.068162    4.691094
    130          1           0      -21.322688    3.242300    3.171059
    131          1           0      -21.620767    1.678320    3.780925
    132          1           0      -25.512436    4.039409    2.187708
    133          1           0      -25.212213    4.512446    0.534329
    134          1           0      -25.253541    6.126875    2.931051
    135          1           0      -25.123518    6.526313    1.357495
    136          1           0      -24.991777   -0.913857    5.716643
    137          1           0      -23.935782   -2.370729    5.702385
    138          1           0      -25.689301   -2.480004    5.980767
    139          1           0      -26.977765   -4.367733    5.688239
    140          1           0      -25.193745   -4.900611    5.722281
    141          1           0      -26.421162   -6.027664    5.414835
    142          1           0      -26.222992   -5.031659   -1.342776
    143          1           0      -24.692535   -4.287260   -3.782357
    144          1           0      -24.750389   -6.670343   -1.676594
    145          1           0      -23.501965   -5.768995   -0.787494
    146          1           0      -23.497355   -5.795358   -2.548118
    147          1           0      -26.528702   -3.245771   -4.662761
    148          1           0      -26.903168   -2.546786   -3.009949
    149          1           0      -28.373153   -4.137505   -2.438544
    150          1           0      -27.429615   -5.372042   -3.452877
    151          1           0      -28.588156   -4.326003   -4.193682
    152          1           0      -24.120160    0.084207   -5.681332
    153          1           0      -22.433259    0.484178   -5.835993
    154          1           0      -23.647726    1.827665   -5.811515
    155          1           0      -23.832500    4.559241   -1.582392
    156          1           0      -20.799714    7.646236   -1.890429
    157          1           0      -19.852186    6.119235   -2.141530
    158          1           0      -20.251293    6.698275   -0.614833
 ---------------------------------------------------------------------

 SCF Done:  E(RCAM-B3LYP) =  -4069.78275673     A.U. after   17 cycles

 Excitation energies and oscillator strengths:

 Excited State   1:      Singlet-A      1.7201 eV  720.81 nm  f=0.4222  <S**2>=0.000
     309 -> 315        0.17633
     312 -> 313        0.68705
     309 <- 315        0.10596
 This state for optimization and/or second-order correction.
 Total Energy, E(TD-HF/TD-DFT) =  -4069.71954526
 Copying the excited state density for this state as the 1-particle RhoCI density.

 Excited State   2:      Singlet-A      1.8346 eV  675.82 nm  f=0.3714  <S**2>=0.000
     310 -> 316       -0.18806
     311 -> 314        0.68158
     310 <- 316       -0.10395

 Excited State   3:      Singlet-A      2.2103 eV  560.93 nm  f=0.1284  <S**2>=0.000
     309 -> 313        0.65017
     312 -> 315       -0.26630

 Excited State   4:      Singlet-A      2.2402 eV  553.45 nm  f=0.1578  <S**2>=0.000
     310 -> 314        0.65518
     311 -> 316        0.25326

 Excited State   5:      Singlet-A      3.1849 eV  389.29 nm  f=0.0000  <S**2>=0.000
     311 -> 313        0.70710

 The electronic state is 1-A.
 Alpha  occ. eigenvalues --  -46.89346 -46.88902 -19.24988 -19.24873 -19.20511
 Alpha  occ. eigenvalues --  -19.19641 -19.19015 -19.18843 -19.18745 -19.18539
 Alpha  occ. eigenvalues --  -14.42046 -14.41610 -14.41465 -14.41114 -14.39937
 Alpha  occ. eigenvalues --  -14.39686 -14.39549 -14.38627 -10.39035 -10.38194
 Alpha  occ. eigenvalues --  -10.36964 -10.34951 -10.34799 -10.34697 -10.31691
 Alpha  occ. eigenvalues --  -10.31492 -10.31232 -10.31019 -10.30946 -10.30779
 Alpha  occ. eigenvalues --  -10.30718 -10.30605 -10.30539 -10.30508 -10.30148
 Alpha  occ. eigenvalues --  -10.29689 -10.29586 -10.29570 -10.29540 -10.29412
 Alpha  occ. eigenvalues --  -10.29287 -10.29187 -10.28748 -10.28741 -10.28485
 Alpha  occ. eigenvalues --  -10.28393 -10.28373 -10.28358 -10.28256 -10.28186
 Alpha  occ. eigenvalues --  -10.28088 -10.27950 -10.27820 -10.27690 -10.27555
 Alpha  occ. eigenvalues --  -10.27509 -10.27505 -10.27490 -10.27466 -10.27353
 Alpha  occ. eigenvalues --  -10.27280 -10.27247 -10.27178 -10.27111 -10.27107
 Alpha  occ. eigenvalues --  -10.27045 -10.26988 -10.26756 -10.26722 -10.26485
 Alpha  occ. eigenvalues --  -10.26459 -10.26199 -10.26198 -10.26067 -10.25974
 Alpha  occ. eigenvalues --  -10.25906 -10.25884 -10.25573 -10.25525 -10.25452
 Alpha  occ. eigenvalues --  -10.25439 -10.25353 -10.25206 -10.25181 -10.25173
 Alpha  occ. eigenvalues --  -10.23703  -3.17846  -3.17479  -1.92748  -1.92362
 Alpha  occ. eigenvalues --   -1.92320  -1.92132  -1.91949  -1.91778  -1.18607
 Alpha  occ. eigenvalues --   -1.16465  -1.12593  -1.09697  -1.09435  -1.08299
 Alpha  occ. eigenvalues --   -1.08072  -1.06614  -1.05767  -1.05186  -1.04822
 Alpha  occ. eigenvalues --   -1.04619  -1.03761  -1.03395  -1.02522  -1.01775
 Alpha  occ. eigenvalues --   -0.93562  -0.92327  -0.89153  -0.89119  -0.88728
 Alpha  occ. eigenvalues --   -0.88535  -0.88362  -0.88091  -0.87730  -0.87505
 Alpha  occ. eigenvalues --   -0.86886  -0.86873  -0.86278  -0.85571  -0.84545
 Alpha  occ. eigenvalues --   -0.84353  -0.83517  -0.83086  -0.82614  -0.82364
 Alpha  occ. eigenvalues --   -0.82052  -0.81925  -0.81707  -0.80712  -0.80498
 Alpha  occ. eigenvalues --   -0.80077  -0.78589  -0.78293  -0.77701  -0.77150
 Alpha  occ. eigenvalues --   -0.76820  -0.76618  -0.76350  -0.75693  -0.75244
 Alpha  occ. eigenvalues --   -0.75192  -0.73166  -0.72738  -0.71643  -0.71483
 Alpha  occ. eigenvalues --   -0.69644  -0.69393  -0.68965  -0.68744  -0.67560
 Alpha  occ. eigenvalues --   -0.67484  -0.66751  -0.66244  -0.65913  -0.65425
 Alpha  occ. eigenvalues --   -0.65053  -0.64908  -0.64840  -0.64650  -0.64464
 Alpha  occ. eigenvalues --   -0.63666  -0.63021  -0.61786  -0.60796  -0.60324
 Alpha  occ. eigenvalues --   -0.59854  -0.59487  -0.59327  -0.59223  -0.59129
 Alpha  occ. eigenvalues --   -0.58389  -0.58203  -0.57898  -0.57748  -0.57459
 Alpha  occ. eigenvalues --   -0.56520  -0.56484  -0.56101  -0.55458  -0.55170
 Alpha  occ. eigenvalues --   -0.55167  -0.54906  -0.54608  -0.54024  -0.53768
 Alpha  occ. eigenvalues --   -0.53745  -0.53589  -0.53421  -0.53241  -0.53010
 Alpha  occ. eigenvalues --   -0.52940  -0.52853  -0.52788  -0.52397  -0.52254
 Alpha  occ. eigenvalues --   -0.51658  -0.51642  -0.51573  -0.51478  -0.51273
 Alpha  occ. eigenvalues --   -0.51141  -0.51108  -0.50638  -0.50444  -0.50071
 Alpha  occ. eigenvalues --   -0.50026  -0.50018  -0.49874  -0.49692  -0.49245
 Alpha  occ. eigenvalues --   -0.49080  -0.49067  -0.48901  -0.48749  -0.48745
 Alpha  occ. eigenvalues --   -0.48593  -0.48570  -0.48324  -0.48278  -0.48228
 Alpha  occ. eigenvalues --   -0.47886  -0.47699  -0.47485  -0.47407  -0.47374
 Alpha  occ. eigenvalues --   -0.47029  -0.46902  -0.46769  -0.46715  -0.46203
 Alpha  occ. eigenvalues --   -0.46190  -0.46104  -0.46042  -0.45795  -0.45741
 Alpha  occ. eigenvalues --   -0.45418  -0.45273  -0.44916  -0.44777  -0.44629
 Alpha  occ. eigenvalues --   -0.44531  -0.44439  -0.44358  -0.44308  -0.44043
 Alpha  occ. eigenvalues --   -0.43882  -0.43786  -0.43633  -0.43433  -0.43289
 Alpha  occ. eigenvalues --   -0.43235  -0.43024  -0.42945  -0.42678  -0.42640
 Alpha  occ. eigenvalues --   -0.42599  -0.42459  -0.42238  -0.42142  -0.42057
 Alpha  occ. eigenvalues --   -0.41848  -0.41619  -0.41423  -0.41396  -0.41336
 Alpha  occ. eigenvalues --   -0.41163  -0.40957  -0.40386  -0.40260  -0.40074
 Alpha  occ. eigenvalues --   -0.39717  -0.39675  -0.39316  -0.39114  -0.38586
 Alpha  occ. eigenvalues --   -0.38235  -0.38176  -0.38065  -0.37901  -0.37432
 Alpha  occ. eigenvalues --   -0.36938  -0.36583  -0.36518  -0.36254  -0.35903
 Alpha  occ. eigenvalues --   -0.35841  -0.35632  -0.34668  -0.34154  -0.34116
 Alpha  occ. eigenvalues --   -0.33704  -0.32896  -0.32463  -0.31914  -0.31587
 Alpha  occ. eigenvalues --   -0.31507  -0.31431  -0.30753  -0.30591  -0.30589
 Alpha  occ. eigenvalues --   -0.30348  -0.29473  -0.29460  -0.24105  -0.23358
 Alpha  occ. eigenvalues --   -0.21349  -0.21296
 Alpha virt. eigenvalues --   -0.08927  -0.08238  -0.01463  -0.01061  -0.00180
 Alpha virt. eigenvalues --    0.00583   0.01938   0.02372   0.02438   0.02760
 Alpha virt. eigenvalues --    0.04220   0.05283   0.05737   0.05899   0.06126

 Mulliken charges:
               1
     1  Mg   0.831104
     2  C   -0.003464
     3  C   -0.022650
     4  C   -0.061413
     5  C   -0.094168
     6  N   -0.252767
     7  C   -0.054215
     8  C    0.021077
     9  C   -0.061039
    10  C    0.018220
    11  C    0.057385
    12  C    0.048954
    13  C   -0.081529
    14  H    0.000649
    15  N   -0.364183
    16  C    0.090940
    17  C   -0.170518
    18  C   -0.041473
    19  C    0.129264
    20  C    0.140609
    21  C    0.009631
    22  O   -0.229755
    23  C    0.054905
    24  N   -0.351661
    25  C    0.076923
    26  C   -0.074949
    27  C   -0.035805
    28  C    0.084609
    29  C    0.075271
    30  C    0.058348
    31  C   -0.010529
    32  N   -0.321541
    33  C    0.100472
    34  C   -0.161309
    35  C   -0.007600
    36  C    0.104545
    37  C    0.130293
    38  C    0.044995
    39  O   -0.216217
    40  C    0.039333
    41  C    0.154796
    42  O   -0.173617
    43  O   -0.300085
    44  C    0.179687
    45  H   -0.038471
    46  H   -0.005603
    47  H   -0.029169
    48  H    0.021610
    49  H    0.016296
    50  H    0.019330
    51  H    0.019366
    52  H    0.018306
    53  H    0.008891
    54  H    0.007769
    55  H    0.022197
    56  H    0.037194
    57  H    0.036381
    58  H    0.019914
    59  H    0.011624
    60  H    0.032307
    61  H    0.020459
    62  H    0.045014
    63  H    0.021371
    64  H    0.000801
    65  H    0.029711
    66  H    0.014108
    67  H    0.016443
    68  H    0.016399
    69  H   -0.002392
    70  H    0.007273
    71  H    0.010559
    72  H    0.017279
    73  H    0.008812
    74  H    0.034204
    75  H    0.049484
    76  H    0.040246
    77  H    0.029090
    78  H    0.038761
    79  H    0.042910
    80  Mg   0.824269
    81  C    0.010044
    82  C   -0.058328
    83  C   -0.077505
    84  C   -0.071142
    85  N   -0.187784
    86  C   -0.104792
    87  C   -0.021642
    88  C   -0.035998
    89  C   -0.028545
    90  C    0.088084
    91  C    0.049006
    92  C   -0.037975
    93  H    0.035322
    94  N   -0.382897
    95  C    0.143309
    96  C   -0.138005
    97  C   -0.053147
    98  C    0.096499
    99  C    0.105623
   100  C    0.029676
   101  O   -0.167278
   102  C    0.040809
   103  N   -0.248123
   104  C    0.043879
   105  C   -0.049651
   106  C   -0.064520
   107  C    0.033795
   108  C    0.074630
   109  C    0.034654
   110  C    0.005241
   111  N   -0.317533
   112  C    0.075654
   113  C   -0.206281
   114  C    0.001048
   115  C    0.122211
   116  C    0.136335
   117  C    0.060781
   118  O   -0.161539
   119  C   -0.025072
   120  C    0.186388
   121  O   -0.243520
   122  O   -0.299429
   123  C    0.194932
   124  H   -0.035357
   125  H   -0.014036
   126  H   -0.022077
   127  H    0.018023
   128  H   -0.009358
   129  H    0.017781
   130  H    0.020712
   131  H    0.014770
   132  H    0.007782
   133  H    0.024747
   134  H    0.015697
   135  H    0.014649
   136  H    0.021421
   137  H    0.041750
   138  H    0.018424
   139  H    0.065179
   140  H    0.023189
   141  H    0.023991
   142  H    0.019495
   143  H   -0.009337
   144  H    0.020083
   145  H    0.023948
   146  H    0.021313
   147  H    0.012419
   148  H    0.003382
   149  H    0.029272
   150  H    0.014352
   151  H    0.015683
   152  H    0.005768
   153  H    0.029857
   154  H    0.032437
   155  H    0.043031
   156  H    0.030134
   157  H    0.042744
   158  H    0.006651
 Sum of Mulliken charges =  -0.00000

 Dipole moment (field-independent basis, Debye):
    X=             -0.6485    Y=             -0.6258    Z=              6.3973  Tot=              6.4605
 Quadrupole moment (field-independent basis, Debye-Ang):
   XX=           -251.0142   YY=           -498.0078   ZZ=           -493.3114
   XY=             61.3761   XZ=            -82.5855   YZ=             19.2103

 Normal termination of Gaussian 16 at Thu Sep  2 18:19:57 2021.
