 Gaussian 16, Revision A.03,
 Gaussian 16:  ES64L-G16RevA.03 25-Dec-2016

 ----------------------------------------------------------
 #p cam-b3lyp/Def2SVP td=(nstates=5) density=(transition=1)
 ----------------------------------------------------------

 --------------------------------
 TDDFT excited states in gaussian
 --------------------------------
 Symbolic Z-matrix:
 Charge =  0 Multiplicity = 1

                         Standard orientation:
 ---------------------------------------------------------------------
 Center     Atomic      Atomic             Coordinates (Angstroms)
 Number     Number       Type             X           Y           Z
 ---------------------------------------------------------------------
      1         12           0       -4.890387   -0.654754    0.115303
      2          6           0       -3.168949    2.272152    0.955259
      3          6           0       -7.672923    1.051462   -0.225384
      4          6           0       -6.644250   -3.608345    0.051535
      5          6           0       -2.031840   -2.538588    0.978664
      6          7           0       -5.286418    1.410775    0.249766
      7          6           0       -4.466458    2.479648    0.537684
      8          6           0       -5.169167    3.810609    0.303264
      9          6           0       -6.656179    3.355970    0.150848
     10          6           0       -6.532233    1.886464   -0.055474
     11          6           0       -7.677806    3.775981    1.185443
     12          6           0       -4.589377    4.662046   -0.871103
     13          6           0       -5.273363    6.014972   -1.095878
     14          1           0       -4.353855    7.225839   -1.157539
     15          7           0       -6.996437   -1.220859   -0.009178
     16          6           0       -7.969699   -0.330449   -0.293166
     17          6           0       -9.198156   -1.034542   -0.536286
     18          6           0       -8.932301   -2.401980   -0.349316
     19          6           0       -7.470577   -2.450606   -0.073896
     20          6           0      -10.511642   -0.353558   -0.858131
     21          6           0       -9.836633   -3.581273   -0.499029
     22          8           0       -9.569839   -4.770087   -0.177472
     23          6           0      -11.213085   -3.414072   -1.131008
     24          7           0       -4.413336   -2.725446    0.488414
     25          6           0       -5.327527   -3.723040    0.461846
     26          6           0       -4.571431   -5.155440    0.561217
     27          6           0       -3.068381   -4.741749    0.383211
     28          6           0       -3.135425   -3.257816    0.552386
     29          6           0       -4.925242   -5.829333    1.944336
     30          6           0       -2.585387   -5.009815   -1.088989
     31          6           0       -3.400909   -4.465293   -2.251390
     32          7           0       -2.896365   -0.249558    0.789273
     33          6           0       -1.896002   -1.137324    1.076012
     34          6           0       -0.790011   -0.392047    1.464112
     35          6           0       -1.172157    0.980263    1.479769
     36          6           0       -2.475475    1.016702    1.058764
     37          6           0        0.544536   -0.865356    1.921598
     38          6           0       -0.782620    2.380513    1.761806
     39          8           0        0.233021    2.900511    2.209495
     40          6           0       -2.060631    3.286503    1.325467
     41          6           0       -2.358372    4.305151    2.367332
     42          8           0       -2.229291    4.123711    3.614472
     43          8           0       -2.603904    5.444244    1.734107
     44          6           0       -2.458186    6.625215    2.563413
     45          1           0       -8.600203    1.577208   -0.462953
     46          1           0       -7.180676   -4.558734   -0.001335
     47          1           0       -1.133462   -3.143432    1.111356
     48          1           0       -4.931733    4.393348    1.193491
     49          1           0       -7.113409    3.702161   -0.776716
     50          1           0       -7.423138    4.632852    1.809123
     51          1           0       -7.920088    2.918975    1.814460
     52          1           0       -8.635061    3.855489    0.669852
     53          1           0       -4.606892    4.076758   -1.790826
     54          1           0       -3.531709    4.846460   -0.685727
     55          1           0       -5.767380    6.364893   -0.189628
     56          1           0       -5.961087    5.976032   -1.941154
     57          1           0      -10.497669    0.732892   -0.772154
     58          1           0      -11.326974   -0.541142   -0.159882
     59          1           0      -10.888903   -0.586742   -1.854298
     60          1           0      -11.829387   -2.839999   -0.439673
     61          1           0      -11.780556   -4.344409   -1.124901
     62          1           0      -11.174754   -3.036442   -2.153425
     63          1           0       -4.945556   -5.820173   -0.217427
     64          1           0       -2.547012   -5.221024    1.211781
     65          1           0       -5.767145   -5.360563    2.454102
     66          1           0       -4.115225   -5.803416    2.673422
     67          1           0       -5.250455   -6.864759    1.853961
     68          1           0       -2.593350   -6.099698   -1.071714
     69          1           0       -1.562566   -4.696998   -1.296764
     70          1           0       -4.369290   -4.111539   -1.896909
     71          1           0       -3.500454   -5.114524   -3.120591
     72          1           0       -2.762299   -3.665667   -2.626808
     73          1           0        1.043497   -1.542035    1.227426
     74          1           0        0.344207   -1.432151    2.830375
     75          1           0        1.214741   -0.045266    2.177190
     76          1           0       -1.711047    3.808458    0.435080
     77          1           0       -1.928643    7.404302    2.013618
     78          1           0       -1.887921    6.502008    3.483819
     79          1           0       -3.471992    6.965092    2.777534
     80         12           0        5.182690   -0.646413   -0.236701
     81          6           0        3.072037    2.159543   -0.823073
     82          6           0        7.819976    1.525806    0.149014
     83          6           0        6.997316   -3.369835    0.220452
     84          6           0        2.462337   -2.807415   -1.158152
     85          7           0        5.454135    1.659282   -0.394635
     86          6           0        4.395549    2.537007   -0.540608
     87          6           0        5.004171    3.975965   -0.417938
     88          6           0        6.588074    3.775786   -0.138349
     89          6           0        6.624721    2.244148   -0.143712
     90          6           0        7.545991    4.492485   -1.112628
     91          6           0        4.271894    4.987691    0.557239
     92          6           0        3.777724    6.256919   -0.073718
     93          1           0        4.409155    6.887429   -1.286793
     94          7           0        7.204165   -0.891970    0.278883
     95          6           0        8.101755    0.124454    0.373802
     96          6           0        9.309867   -0.464493    0.891645
     97          6           0        9.136564   -1.863752    0.823372
     98          6           0        7.727794   -2.151027    0.398896
     99          6           0       10.521052    0.425282    1.218436
    100          6           0       10.190127   -2.915132    0.998817
    101          8           0        9.946054   -4.128570    0.798201
    102          6           0       11.569983   -2.508731    1.362517
    103          7           0        4.737964   -2.804811   -0.522521
    104          6           0        5.624267   -3.678163   -0.191830
    105          6           0        5.179109   -5.235585   -0.250475
    106          6           0        3.728985   -5.029492   -0.713961
    107          6           0        3.611909   -3.527763   -0.806079
    108          6           0        6.104949   -6.010691   -1.258031
    109          6           0        2.602434   -5.648219    0.186227
    110          6           0        2.334251   -4.946840    1.538955
    111          7           0        3.286937   -0.390428   -0.958912
    112          6           0        2.332272   -1.375985   -1.303743
    113          6           0        1.074905   -0.688679   -1.628344
    114          6           0        1.319336    0.693431   -1.444262
    115          6           0        2.675888    0.825188   -0.992465
    116          6           0       -0.255231   -1.385628   -2.043802
    117          6           0        0.700310    1.909455   -1.512299
    118          8           0       -0.413628    2.240586   -1.863986
    119          6           0        1.755626    2.957398   -1.060854
    120          6           0        1.858188    3.972776   -2.083406
    121          8           0        2.611575    3.915506   -3.061824
    122          8           0        0.822448    4.902152   -1.930588
    123          6           0        0.715013    5.884470   -3.037654
    124          1           0        8.761884    2.069195    0.045293
    125          1           0        7.646629   -4.247885    0.214312
    126          1           0        1.602668   -3.417792   -1.442346
    127          1           0        4.734053    4.338905   -1.408766
    128          1           0        6.832989    4.224425    0.823350
    129          1           0        8.235014    5.140047   -0.568891
    130          1           0        7.088387    5.070873   -1.915049
    131          1           0        8.096770    3.676905   -1.581219
    132          1           0        4.925428    5.239469    1.392695
    133          1           0        3.385432    4.457446    0.905359
    134          1           0        4.047137    7.062495    0.610264
    135          1           0        2.705285    6.152403   -0.234348
    136          1           0       10.245412    1.475899    1.312547
    137          1           0       11.275465    0.317880    0.440117
    138          1           0       10.887387    0.043221    2.170747
    139          1           0       11.499612   -1.958242    2.300679
    140          1           0       11.991693   -1.826231    0.623648
    141          1           0       12.229503   -3.374981    1.396058
    142          1           0        5.209820   -5.694739    0.737930
    143          1           0        3.636872   -5.322052   -1.760168
    144          1           0        6.431689   -5.302721   -2.019638
    145          1           0        5.501696   -6.770971   -1.755430
    146          1           0        6.993085   -6.503714   -0.861913
    147          1           0        2.745304   -6.725282    0.267621
    148          1           0        1.677803   -5.624059   -0.389615
    149          1           0        3.188550   -4.479921    2.027976
    150          1           0        1.818946   -5.654254    2.189652
    151          1           0        1.588506   -4.184337    1.314650
    152          1           0       -1.117676   -1.036573   -1.475863
    153          1           0       -0.205838   -2.472834   -1.995075
    154          1           0       -0.574500   -0.989943   -3.008289
    155          1           0        1.291913    3.357075   -0.159605
    156          1           0        0.373993    5.397020   -3.950642
    157          1           0        1.655209    6.363022   -3.309325
    158          1           0        0.130819    6.719058   -2.649612
 ---------------------------------------------------------------------

 SCF Done:  E(RCAM-B3LYP) =  -4069.82675886     A.U. after   19 cycles

 Excitation energies and oscillator strengths:

 Excited State   1:      Singlet-A      1.6652 eV  744.56 nm  f=0.8747  <S**2>=0.000
     309 -> 316        0.12939
     311 -> 313        0.58113
     312 -> 314       -0.35627
 This state for optimization and/or second-order correction.
 Total Energy, E(TD-HF/TD-DFT) =  -4069.76556366
 Copying the excited state density for this state as the 1-particle RhoCI density.

 Excited State   2:      Singlet-A      1.7657 eV  702.18 nm  f=0.0607  <S**2>=0.000
     310 -> 315       -0.15230
     311 -> 313        0.34590
     312 -> 314        0.57410

 Excited State   3:      Singlet-A      2.1263 eV  583.09 nm  f=0.0912  <S**2>=0.000
     309 -> 313        0.62518
     310 -> 313        0.17609
     310 -> 314        0.13552
     311 -> 316       -0.20563

 Excited State   4:      Singlet-A      2.1856 eV  567.28 nm  f=0.0587  <S**2>=0.000
     309 -> 313        0.11362
     310 -> 314       -0.38045
     311 -> 313       -0.10172
     312 -> 313        0.53061
     312 -> 315       -0.17458

 Excited State   5:      Singlet-A      2.2120 eV  560.51 nm  f=0.0804  <S**2>=0.000
     309 -> 314       -0.11593
     310 -> 314        0.47285
     312 -> 313        0.44091
     312 -> 315        0.20089

 The electronic state is 1-A.
 Alpha  occ. eigenvalues --  -46.89517 -46.89019 -19.26271 -19.24148 -19.19011
 Alpha  occ. eigenvalues --  -19.18851 -19.18676 -19.18542 -19.18488 -19.17511
 Alpha  occ. eigenvalues --  -14.42529 -14.42429 -14.41562 -14.41508 -14.39481
 Alpha  occ. eigenvalues --  -14.39433 -14.39398 -14.37703 -10.38828 -10.38310
 Alpha  occ. eigenvalues --  -10.35504 -10.34839 -10.34723 -10.33103 -10.31757
 Alpha  occ. eigenvalues --  -10.31727 -10.31690 -10.31393 -10.31170 -10.30815
 Alpha  occ. eigenvalues --  -10.30758 -10.30698 -10.30615 -10.30564 -10.30469
 Alpha  occ. eigenvalues --  -10.30274 -10.30032 -10.29857 -10.29604 -10.29459
 Alpha  occ. eigenvalues --  -10.29114 -10.28730 -10.28686 -10.28458 -10.28181
 Alpha  occ. eigenvalues --  -10.28019 -10.28004 -10.27970 -10.27875 -10.27872
 Alpha  occ. eigenvalues --  -10.27857 -10.27810 -10.27802 -10.27729 -10.27705
 Alpha  occ. eigenvalues --  -10.27704 -10.27585 -10.27524 -10.27500 -10.27473
 Alpha  occ. eigenvalues --  -10.27382 -10.27250 -10.27203 -10.27069 -10.27002
 Alpha  occ. eigenvalues --  -10.26959 -10.26923 -10.26744 -10.26596 -10.26303
 Alpha  occ. eigenvalues --  -10.26207 -10.26205 -10.26162 -10.26156 -10.26145
 Alpha  occ. eigenvalues --  -10.25969 -10.25908 -10.25858 -10.25818 -10.25678
 Alpha  occ. eigenvalues --  -10.25651 -10.25573 -10.25375 -10.24425 -10.23911
 Alpha  occ. eigenvalues --  -10.23594  -3.17852  -3.17411  -1.92766  -1.92343
 Alpha  occ. eigenvalues --   -1.92319  -1.92109  -1.91836  -1.91726  -1.17712
 Alpha  occ. eigenvalues --   -1.14146  -1.09153  -1.08817  -1.08236  -1.08118
 Alpha  occ. eigenvalues --   -1.06088  -1.05901  -1.05570  -1.05077  -1.03956
 Alpha  occ. eigenvalues --   -1.03399  -1.03037  -1.02708  -1.02145  -1.01406
 Alpha  occ. eigenvalues --   -0.91878  -0.91400  -0.89656  -0.89191  -0.89040
 Alpha  occ. eigenvalues --   -0.88163  -0.88028  -0.87610  -0.87326  -0.86963
 Alpha  occ. eigenvalues --   -0.86864  -0.86549  -0.85407  -0.85122  -0.84387
 Alpha  occ. eigenvalues --   -0.83978  -0.83478  -0.83236  -0.82720  -0.82210
 Alpha  occ. eigenvalues --   -0.81985  -0.81525  -0.81019  -0.80418  -0.80327
 Alpha  occ. eigenvalues --   -0.79791  -0.78590  -0.78059  -0.77467  -0.77349
 Alpha  occ. eigenvalues --   -0.76908  -0.76089  -0.75770  -0.75510  -0.74960
 Alpha  occ. eigenvalues --   -0.74703  -0.72409  -0.72242  -0.71405  -0.71308
 Alpha  occ. eigenvalues --   -0.70403  -0.69635  -0.69032  -0.68765  -0.67917
 Alpha  occ. eigenvalues --   -0.67481  -0.67383  -0.66562  -0.65181  -0.65033
 Alpha  occ. eigenvalues --   -0.64875  -0.64608  -0.64399  -0.64310  -0.64256
 Alpha  occ. eigenvalues --   -0.63880  -0.62429  -0.61190  -0.60736  -0.59997
 Alpha  occ. eigenvalues --   -0.59370  -0.59249  -0.58968  -0.58323  -0.58232
 Alpha  occ. eigenvalues --   -0.57775  -0.57626  -0.57283  -0.57100  -0.56912
 Alpha  occ. eigenvalues --   -0.56125  -0.55930  -0.55775  -0.55690  -0.55447
 Alpha  occ. eigenvalues --   -0.55271  -0.55019  -0.54966  -0.54682  -0.53951
 Alpha  occ. eigenvalues --   -0.53148  -0.52999  -0.52984  -0.52891  -0.52645
 Alpha  occ. eigenvalues --   -0.52600  -0.52589  -0.52470  -0.52329  -0.51788
 Alpha  occ. eigenvalues --   -0.51619  -0.51359  -0.51238  -0.51034  -0.50888
 Alpha  occ. eigenvalues --   -0.50588  -0.50266  -0.50233  -0.50172  -0.49894
 Alpha  occ. eigenvalues --   -0.49536  -0.49309  -0.49268  -0.49091  -0.48978
 Alpha  occ. eigenvalues --   -0.48808  -0.48721  -0.48648  -0.48565  -0.48434
 Alpha  occ. eigenvalues --   -0.48396  -0.48206  -0.48156  -0.47926  -0.47732
 Alpha  occ. eigenvalues --   -0.47586  -0.47119  -0.47026  -0.46989  -0.46915
 Alpha  occ. eigenvalues --   -0.46584  -0.46317  -0.46258  -0.46202  -0.46159
 Alpha  occ. eigenvalues --   -0.46082  -0.45961  -0.45697  -0.45635  -0.45564
 Alpha  occ. eigenvalues --   -0.45230  -0.45127  -0.44984  -0.44551  -0.44533
 Alpha  occ. eigenvalues --   -0.44301  -0.44164  -0.44032  -0.43899  -0.43630
 Alpha  occ. eigenvalues --   -0.43512  -0.43479  -0.43451  -0.43179  -0.43137
 Alpha  occ. eigenvalues --   -0.42929  -0.42796  -0.42563  -0.42483  -0.42353
 Alpha  occ. eigenvalues --   -0.42296  -0.42159  -0.42050  -0.41708  -0.41647
 Alpha  occ. eigenvalues --   -0.41497  -0.41483  -0.41410  -0.41238  -0.41129
 Alpha  occ. eigenvalues --   -0.41041  -0.40883  -0.40766  -0.40381  -0.40289
 Alpha  occ. eigenvalues --   -0.40104  -0.39967  -0.39345  -0.39207  -0.39118
 Alpha  occ. eigenvalues --   -0.38850  -0.38541  -0.37593  -0.36887  -0.36655
 Alpha  occ. eigenvalues --   -0.36622  -0.36356  -0.36119  -0.36076  -0.35916
 Alpha  occ. eigenvalues --   -0.35870  -0.35042  -0.33760  -0.33647  -0.33563
 Alpha  occ. eigenvalues --   -0.33368  -0.32761  -0.32538  -0.31622  -0.31041
 Alpha  occ. eigenvalues --   -0.30971  -0.30900  -0.30479  -0.30101  -0.29967
 Alpha  occ. eigenvalues --   -0.29724  -0.29335  -0.28088  -0.23705  -0.23485
 Alpha  occ. eigenvalues --   -0.21431  -0.20958
 Alpha virt. eigenvalues --   -0.09052  -0.08281  -0.01532  -0.00958   0.00148
 Alpha virt. eigenvalues --    0.00440   0.02242   0.02368   0.02926   0.03035
 Alpha virt. eigenvalues --    0.04855   0.05025   0.05342   0.05716   0.05921

 Mulliken charges:
               1
     1  Mg  12.005521
     2  C    5.978467
     3  C    6.007357
     4  C    6.022992
     5  C    5.996964
     6  N    6.985038
     7  C    6.032419
     8  C    5.991822
     9  C    6.008191
    10  C    5.969155
    11  C    6.002023
    12  C    5.997677
    13  C    6.003328
    14  H    0.995607
    15  N    7.008894
    16  C    5.963640
    17  C    5.984369
    18  C    5.981709
    19  C    5.969158
    20  C    6.006181
    21  C    5.990946
    22  O    7.969608
    23  C    6.006208
    24  N    7.006470
    25  C    5.972560
    26  C    6.004181
    27  C    5.989381
    28  C    6.025227
    29  C    6.002479
    30  C    5.992138
    31  C    5.996598
    32  N    6.995898
    33  C    6.032036
    34  C    6.035883
    35  C    6.002054
    36  C    6.032769
    37  C    6.001589
    38  C    6.014789
    39  O    8.020817
    40  C    6.004634
    41  C    6.004079
    42  O    7.999439
    43  O    8.002307
    44  C    5.999117
    45  H    0.989300
    46  H    0.996686
    47  H    1.011992
    48  H    0.996956
    49  H    0.996588
    50  H    0.985506
    51  H    0.999822
    52  H    0.999707
    53  H    1.005957
    54  H    0.994714
    55  H    1.001594
    56  H    1.004000
    57  H    0.983882
    58  H    0.981723
    59  H    0.982051
    60  H    0.992830
    61  H    0.985487
    62  H    0.991914
    63  H    1.000241
    64  H    1.000460
    65  H    1.004726
    66  H    0.989458
    67  H    0.998004
    68  H    1.007126
    69  H    0.999915
    70  H    1.013232
    71  H    1.002387
    72  H    0.999362
    73  H    1.021412
    74  H    1.012376
    75  H    1.010622
    76  H    1.005511
    77  H    1.001677
    78  H    0.999269
    79  H    1.004634
    80  Mg  11.999453
    81  C    6.003878
    82  C    5.989414
    83  C    5.997784
    84  C    6.003598
    85  N    7.000007
    86  C    5.989681
    87  C    6.003704
    88  C    5.990410
    89  C    6.020263
    90  C    5.999533
    91  C    6.001462
    92  C    5.999378
    93  H    1.001080
    94  N    6.990140
    95  C    6.025179
    96  C    6.009084
    97  C    6.009075
    98  C    6.018564
    99  C    5.998487
   100  C    6.007273
   101  O    8.015852
   102  C    5.997100
   103  N    7.003752
   104  C    6.015698
   105  C    5.995162
   106  C    6.004304
   107  C    5.982654
   108  C    5.996765
   109  C    6.001411
   110  C    6.002880
   111  N    7.002870
   112  C    5.977298
   113  C    5.973952
   114  C    5.995295
   115  C    5.983946
   116  C    5.997989
   117  C    5.984636
   118  O    7.985248
   119  C    6.000964
   120  C    5.998993
   121  O    7.998368
   122  O    7.999102
   123  C    6.000365
   124  H    1.004489
   125  H    1.005919
   126  H    0.997109
   127  H    1.003109
   128  H    1.004110
   129  H    1.003332
   130  H    1.007303
   131  H    0.999159
   132  H    0.997178
   133  H    0.999101
   134  H    0.999898
   135  H    1.001985
   136  H    1.009811
   137  H    1.011060
   138  H    1.009241
   139  H    1.004216
   140  H    1.004550
   141  H    1.009521
   142  H    1.002461
   143  H    1.002063
   144  H    1.000796
   145  H    1.008457
   146  H    1.000257
   147  H    0.999267
   148  H    1.002746
   149  H    0.994419
   150  H    1.001168
   151  H    0.995502
   152  H    0.981811
   153  H    0.994637
   154  H    0.998994
   155  H    0.992101
   156  H    1.001705
   157  H    0.998122
   158  H    0.999509
 Sum of Mulliken charges = 624.00000

 Dipole moment (field-independent basis, Debye):
    X=             16.3821    Y=              0.5310    Z=              2.8961  Tot=             16.6446
 Quadrupole moment (field-independent basis, Debye-Ang):
   XX=            -35.1665   YY=              0.8316   ZZ=              1.3032
   XY=            -24.3616   XZ=              0.1269   YZ=             -0.1307

 Normal termination of Gaussian 16 at Wed Sep 22 04:32:26 2021.
