 Gaussian 16, Revision A.03,
 Gaussian 16:  ES64L-G16RevA.03 25-Dec-2016

 ----------------------------------------------------------
 #p cam-b3lyp/Def2SVP td=(nstates=5) density=(transition=1)
 ----------------------------------------------------------

 --------------------------------
 TDDFT excited states in gaussian
 --------------------------------
 Symbolic Z-matrix:
 Charge =  0 Multiplicity = 1

                         Standard orientation:
 ---------------------------------------------------------------------
 Center     Atomic      Atomic             Coordinates (Angstroms)
 Number     Number       Type             X           Y           Z
 ---------------------------------------------------------------------
      1         12           0       25.284311   -0.818221   -0.009465
      2          6           0       26.411665    2.398966   -0.748998
      3          6           0       24.125188    0.256994    2.919224
      4          6           0       25.476622   -4.042860    1.108486
      5          6           0       26.559079   -1.905563   -3.063794
      6          7           0       25.124002    1.171901    0.910395
      7          6           0       25.628514    2.298361    0.421781
      8          6           0       25.179674    3.496403    1.334462
      9          6           0       24.552939    2.765416    2.545901
     10          6           0       24.612256    1.296908    2.136199
     11          6           0       25.405614    2.898545    3.903751
     12          6           0       24.152637    4.516461    0.662149
     13          6           0       24.469654    5.935730    0.987850
     14          1           0       23.376488    6.841518    1.533542
     15          7           0       24.832446   -1.747464    1.765223
     16          6           0       24.333083   -1.123723    2.877778
     17          6           0       23.830571   -2.148464    3.803482
     18          6           0       24.233018   -3.401151    3.261883
     19          6           0       24.928364   -3.073931    2.006008
     20          6           0       23.130452   -1.806952    5.157454
     21          6           0       24.067623   -4.824967    3.873598
     22          8           0       24.444071   -5.856375    3.328312
     23          6           0       23.388817   -4.942587    5.185711
     24          7           0       25.930591   -2.646205   -0.803206
     25          6           0       25.991112   -3.880132   -0.148615
     26          6           0       26.754470   -4.899931   -1.033609
     27          6           0       26.488820   -4.358594   -2.506434
     28          6           0       26.301909   -2.877311   -2.071719
     29          6           0       28.233512   -5.072826   -0.626318
     30          6           0       25.271965   -4.875794   -3.219707
     31          6           0       23.905464   -4.342512   -2.906816
     32          7           0       26.103101    0.028788   -1.705871
     33          6           0       26.614537   -0.520187   -2.859000
     34          6           0       27.149921    0.500939   -3.762336
     35          6           0       27.190689    1.703288   -2.922345
     36          6           0       26.543302    1.324902   -1.682184
     37          6           0       27.742759    0.277847   -5.058027
     38          6           0       27.614785    3.095752   -2.841717
     39          8           0       28.231471    3.780723   -3.568453
     40          6           0       27.039366    3.624092   -1.426132
     41          6           0       28.041730    4.379909   -0.590928
     42          8           0       28.766819    3.883916    0.266341
     43          8           0       27.933105    5.737869   -0.888912
     44          6           0       28.808568    6.669555   -0.155000
     45          1           0       23.536083    0.445652    3.819525
     46          1           0       25.524623   -5.045859    1.538487
     47          1           0       26.849649   -2.298103   -4.040116
     48          1           0       26.029338    4.062681    1.716725
     49          1           0       23.550896    3.081554    2.835789
     50          1           0       25.010324    3.762446    4.438479
     51          1           0       26.465334    3.114222    3.769909
     52          1           0       25.233565    1.998261    4.494822
     53          1           0       23.129195    4.333011    0.989701
     54          1           0       24.066229    4.450100   -0.422485
     55          1           0       24.703609    6.363238    0.013244
     56          1           0       25.329223    6.133726    1.627579
     57          1           0       23.930046   -1.753474    5.895765
     58          1           0       22.347386   -2.526433    5.397946
     59          1           0       22.785205   -0.775171    5.231389
     60          1           0       23.574624   -4.233076    5.991890
     61          1           0       23.594927   -5.921604    5.617602
     62          1           0       22.324083   -5.111933    5.022675
     63          1           0       26.196263   -5.824477   -0.889053
     64          1           0       27.341233   -4.518544   -3.166429
     65          1           0       28.976165   -4.931348   -1.411550
     66          1           0       28.421056   -5.965859   -0.029724
     67          1           0       28.507595   -4.309950    0.102166
     68          1           0       25.127927   -5.952313   -3.136043
     69          1           0       25.419355   -4.706446   -4.286433
     70          1           0       23.776776   -3.578277   -3.673084
     71          1           0       23.797401   -3.843263   -1.943669
     72          1           0       23.174192   -5.144569   -3.012130
     73          1           0       27.462908    1.140642   -5.662756
     74          1           0       27.277089   -0.615567   -5.473297
     75          1           0       28.827238    0.219135   -4.970921
     76          1           0       26.227958    4.315515   -1.653450
     77          1           0       29.828426    6.300936   -0.268314
     78          1           0       28.576728    6.662549    0.909712
     79          1           0       28.809794    7.727570   -0.417636
     80         12           0      -26.223743   -0.482312   -0.245787
     81          6           0      -24.431222    2.506427   -0.771642
     82          6           0      -27.338905    0.910188    2.714278
     83          6           0      -27.915838   -3.363085    0.456034
     84          6           0      -24.798819   -1.835911   -2.967300
     85          7           0      -25.941046    1.524828    0.840643
     86          6           0      -25.278150    2.657754    0.384302
     87          6           0      -25.614973    3.853534    1.252304
     88          6           0      -26.244234    3.208465    2.540352
     89          6           0      -26.532580    1.827762    1.995141
     90          6           0      -25.348856    3.259378    3.839951
     91          6           0      -26.626660    4.808479    0.601361
     92          6           0      -26.397831    6.298114    0.878838
     93          1           0      -26.644822    6.830472    2.317818
     94          7           0      -27.520954   -1.110385    1.300954
     95          6           0      -27.776481   -0.373048    2.406184
     96          6           0      -28.566307   -1.154615    3.301297
     97          6           0      -28.911761   -2.390491    2.652986
     98          6           0      -28.076817   -2.345236    1.465594
     99          6           0      -28.971574   -0.651028    4.658775
    100          6           0      -29.773768   -3.571227    3.100226
    101          8           0      -30.088272   -4.491253    2.313341
    102          6           0      -30.238885   -3.748795    4.541130
    103          7           0      -26.406811   -2.278487   -1.169505
    104          6           0      -27.105395   -3.378231   -0.680480
    105          6           0      -26.878351   -4.542163   -1.589620
    106          6           0      -25.932464   -4.108023   -2.766515
    107          6           0      -25.708895   -2.647951   -2.340612
    108          6           0      -26.482202   -5.865086   -0.867504
    109          6           0      -26.537897   -4.216235   -4.182811
    110          6           0      -26.161451   -5.519032   -4.914565
    111          7           0      -24.882880    0.113640   -1.571637
    112          6           0      -24.393219   -0.502931   -2.722198
    113          6           0      -23.475595    0.394558   -3.517348
    114          6           0      -23.477726    1.550834   -2.720380
    115          6           0      -24.362382    1.365845   -1.609702
    116          6           0      -22.774351    0.056500   -4.820332
    117          6           0      -22.905769    2.887620   -2.663482
    118          8           0      -22.097799    3.452908   -3.401509
    119          6           0      -23.626277    3.586889   -1.433727
    120          6           0      -22.486119    4.163376   -0.571470
    121          8           0      -21.423083    3.629510   -0.330385
    122          8           0      -22.800778    5.480855   -0.243949
    123          6           0      -21.773862    6.126935    0.573651
    124          1           0      -27.735189    1.409234    3.600835
    125          1           0      -28.418505   -4.324770    0.576405
    126          1           0      -24.289637   -2.388053   -3.759533
    127          1           0      -24.754306    4.443641    1.566185
    128          1           0      -27.170100    3.674943    2.877017
    129          1           0      -24.424735    3.831423    3.752231
    130          1           0      -24.990630    2.304220    4.223195
    131          1           0      -25.877220    3.758561    4.652218
    132          1           0      -27.646158    4.574326    0.906921
    133          1           0      -26.580178    4.736699   -0.485463
    134          1           0      -26.946257    6.930768    0.181064
    135          1           0      -25.374956    6.591100    0.643137
    136          1           0      -28.020413   -0.295251    5.055058
    137          1           0      -29.347772   -1.378027    5.378386
    138          1           0      -29.669015    0.186237    4.646843
    139          1           0      -29.404148   -3.643865    5.234368
    140          1           0      -30.650359   -4.757841    4.521037
    141          1           0      -30.974729   -2.991875    4.812589
    142          1           0      -27.861990   -4.859543   -1.937109
    143          1           0      -24.951052   -4.584008   -2.772234
    144          1           0      -26.385517   -5.645141    0.195909
    145          1           0      -25.512609   -6.192298   -1.241946
    146          1           0      -27.318147   -6.535153   -1.071039
    147          1           0      -26.291950   -3.294899   -4.710314
    148          1           0      -27.623433   -4.304952   -4.134643
    149          1           0      -25.906924   -6.290129   -4.187165
    150          1           0      -25.272162   -5.486282   -5.544278
    151          1           0      -27.042100   -5.864921   -5.456596
    152          1           0      -23.535136    0.046265   -5.601044
    153          1           0      -22.287666   -0.918006   -4.854764
    154          1           0      -22.058865    0.861869   -4.985584
    155          1           0      -24.318012    4.390288   -1.686311
    156          1           0      -21.906042    6.011556    1.649860
    157          1           0      -21.822180    7.172267    0.268937
    158          1           0      -20.734613    5.816598    0.465357
 ---------------------------------------------------------------------

 SCF Done:  E(RCAM-B3LYP) =  -4069.84941079     A.U. after   17 cycles

 Excitation energies and oscillator strengths:

 Excited State   1:      Singlet-A      1.6811 eV  737.52 nm  f=0.3754  <S**2>=0.000
     309 -> 316        0.17703
     312 -> 314        0.68653
     309 <- 316        0.10856
 This state for optimization and/or second-order correction.
 Total Energy, E(TD-HF/TD-DFT) =  -4069.78763132
 Copying the excited state density for this state as the 1-particle RhoCI density.

 Excited State   2:      Singlet-A      1.7014 eV  728.70 nm  f=0.3787  <S**2>=0.000
     310 -> 315       -0.18653
     311 -> 313        0.68386
     310 <- 315       -0.10955

 Excited State   3:      Singlet-A      2.2323 eV  555.40 nm  f=0.0988  <S**2>=0.000
     310 -> 313        0.63577
     311 -> 315        0.29946

 Excited State   4:      Singlet-A      2.2559 eV  549.59 nm  f=0.1054  <S**2>=0.000
     309 -> 314        0.63272
     312 -> 316       -0.30597

 Excited State   5:      Singlet-A      3.1358 eV  395.39 nm  f=0.0000  <S**2>=0.000
     312 -> 313        0.70711

 The electronic state is 1-A.
 Alpha  occ. eigenvalues --  -46.87912 -46.87658 -19.25775 -19.25012 -19.20423
 Alpha  occ. eigenvalues --  -19.20092 -19.19679 -19.19216 -19.19175 -19.19108
 Alpha  occ. eigenvalues --  -14.42685 -14.42186 -14.41415 -14.41287 -14.39905
 Alpha  occ. eigenvalues --  -14.39492 -14.39276 -14.39218 -10.39697 -10.39684
 Alpha  occ. eigenvalues --  -10.35856 -10.35640 -10.35514 -10.35090 -10.31792
 Alpha  occ. eigenvalues --  -10.31491 -10.31449 -10.31325 -10.30885 -10.30754
 Alpha  occ. eigenvalues --  -10.30737 -10.30583 -10.30579 -10.30336 -10.30287
 Alpha  occ. eigenvalues --  -10.29994 -10.29877 -10.29741 -10.29595 -10.29468
 Alpha  occ. eigenvalues --  -10.29379 -10.29231 -10.29115 -10.28772 -10.28754
 Alpha  occ. eigenvalues --  -10.28749 -10.28723 -10.28656 -10.28639 -10.28570
 Alpha  occ. eigenvalues --  -10.28389 -10.28372 -10.28289 -10.28283 -10.28210
 Alpha  occ. eigenvalues --  -10.27901 -10.27865 -10.27659 -10.27557 -10.27552
 Alpha  occ. eigenvalues --  -10.27530 -10.27382 -10.27213 -10.27077 -10.27071
 Alpha  occ. eigenvalues --  -10.27056 -10.26881 -10.26696 -10.26613 -10.26434
 Alpha  occ. eigenvalues --  -10.26415 -10.26345 -10.26113 -10.26078 -10.26045
 Alpha  occ. eigenvalues --  -10.26019 -10.26000 -10.25924 -10.25805 -10.25704
 Alpha  occ. eigenvalues --  -10.25672 -10.25571 -10.25559 -10.25532 -10.25368
 Alpha  occ. eigenvalues --  -10.24540  -3.16614  -3.16442  -1.91518  -1.91339
 Alpha  occ. eigenvalues --   -1.91045  -1.90942  -1.90872  -1.90786  -1.16314
 Alpha  occ. eigenvalues --   -1.15147  -1.12937  -1.10152  -1.09243  -1.08939
 Alpha  occ. eigenvalues --   -1.08187  -1.07444  -1.05172  -1.04726  -1.03678
 Alpha  occ. eigenvalues --   -1.03571  -1.03085  -1.02861  -1.02129  -1.01468
 Alpha  occ. eigenvalues --   -0.92585  -0.91862  -0.89446  -0.89032  -0.89024
 Alpha  occ. eigenvalues --   -0.88624  -0.88308  -0.88012  -0.87495  -0.87175
 Alpha  occ. eigenvalues --   -0.87025  -0.86891  -0.86298  -0.86158  -0.84427
 Alpha  occ. eigenvalues --   -0.84171  -0.83588  -0.83560  -0.82533  -0.82312
 Alpha  occ. eigenvalues --   -0.81858  -0.81740  -0.80999  -0.80991  -0.80357
 Alpha  occ. eigenvalues --   -0.80098  -0.78467  -0.78237  -0.77479  -0.77300
 Alpha  occ. eigenvalues --   -0.77263  -0.76725  -0.76166  -0.75841  -0.75071
 Alpha  occ. eigenvalues --   -0.74856  -0.72693  -0.72238  -0.71675  -0.71461
 Alpha  occ. eigenvalues --   -0.69397  -0.69219  -0.68828  -0.68489  -0.68199
 Alpha  occ. eigenvalues --   -0.67743  -0.67329  -0.66750  -0.65800  -0.65699
 Alpha  occ. eigenvalues --   -0.65517  -0.64607  -0.64504  -0.64230  -0.64176
 Alpha  occ. eigenvalues --   -0.64089  -0.62590  -0.61794  -0.60386  -0.60164
 Alpha  occ. eigenvalues --   -0.60140  -0.59586  -0.58948  -0.58867  -0.58512
 Alpha  occ. eigenvalues --   -0.58094  -0.57763  -0.57758  -0.57512  -0.57224
 Alpha  occ. eigenvalues --   -0.56034  -0.55798  -0.55517  -0.55464  -0.55340
 Alpha  occ. eigenvalues --   -0.55128  -0.54829  -0.54707  -0.54090  -0.53817
 Alpha  occ. eigenvalues --   -0.53560  -0.53509  -0.53370  -0.53148  -0.52957
 Alpha  occ. eigenvalues --   -0.52892  -0.52580  -0.52505  -0.52164  -0.52159
 Alpha  occ. eigenvalues --   -0.51867  -0.51766  -0.51764  -0.51615  -0.51374
 Alpha  occ. eigenvalues --   -0.51237  -0.51230  -0.50498  -0.50398  -0.50228
 Alpha  occ. eigenvalues --   -0.50168  -0.50063  -0.50056  -0.49808  -0.49609
 Alpha  occ. eigenvalues --   -0.49516  -0.49381  -0.49140  -0.49083  -0.48916
 Alpha  occ. eigenvalues --   -0.48598  -0.48507  -0.48308  -0.48255  -0.48099
 Alpha  occ. eigenvalues --   -0.47982  -0.47792  -0.47633  -0.47415  -0.46955
 Alpha  occ. eigenvalues --   -0.46868  -0.46785  -0.46674  -0.46586  -0.46540
 Alpha  occ. eigenvalues --   -0.46289  -0.46271  -0.46089  -0.45918  -0.45740
 Alpha  occ. eigenvalues --   -0.45529  -0.45497  -0.45188  -0.44942  -0.44934
 Alpha  occ. eigenvalues --   -0.44638  -0.44626  -0.44545  -0.44381  -0.44367
 Alpha  occ. eigenvalues --   -0.44357  -0.44157  -0.43721  -0.43603  -0.43509
 Alpha  occ. eigenvalues --   -0.43317  -0.43242  -0.43201  -0.43027  -0.42794
 Alpha  occ. eigenvalues --   -0.42699  -0.42656  -0.42371  -0.41951  -0.41874
 Alpha  occ. eigenvalues --   -0.41763  -0.41622  -0.41566  -0.41521  -0.41359
 Alpha  occ. eigenvalues --   -0.41243  -0.41178  -0.41065  -0.40490  -0.40462
 Alpha  occ. eigenvalues --   -0.40257  -0.40227  -0.39703  -0.39123  -0.38723
 Alpha  occ. eigenvalues --   -0.38655  -0.38325  -0.38059  -0.37946  -0.37670
 Alpha  occ. eigenvalues --   -0.37279  -0.36970  -0.36888  -0.36650  -0.36580
 Alpha  occ. eigenvalues --   -0.36523  -0.35903  -0.35171  -0.34969  -0.34455
 Alpha  occ. eigenvalues --   -0.34276  -0.32867  -0.32800  -0.31532  -0.31400
 Alpha  occ. eigenvalues --   -0.31212  -0.31006  -0.30988  -0.30954  -0.30569
 Alpha  occ. eigenvalues --   -0.30017  -0.30011  -0.29549  -0.23977  -0.23964
 Alpha  occ. eigenvalues --   -0.21090  -0.20771
 Alpha virt. eigenvalues --   -0.08586  -0.08457  -0.01794  -0.01373  -0.00016
 Alpha virt. eigenvalues --    0.00409   0.01734   0.02427   0.02798   0.03726
 Alpha virt. eigenvalues --    0.04572   0.04741   0.05015   0.05589   0.05592

 Mulliken charges:
               1
     1  Mg  12.001351
     2  C    5.969198
     3  C    6.001397
     4  C    6.035140
     5  C    6.000924
     6  N    6.987590
     7  C    6.039863
     8  C    5.988931
     9  C    6.008742
    10  C    5.972106
    11  C    6.007746
    12  C    5.998095
    13  C    5.999836
    14  H    1.006032
    15  N    7.008425
    16  C    5.959130
    17  C    5.977998
    18  C    5.987143
    19  C    5.952369
    20  C    6.002783
    21  C    5.985877
    22  O    7.971483
    23  C    6.010916
    24  N    7.019105
    25  C    5.959160
    26  C    6.004422
    27  C    5.991672
    28  C    6.021690
    29  C    5.999201
    30  C    5.993549
    31  C    5.996146
    32  N    6.994728
    33  C    6.030632
    34  C    6.036471
    35  C    6.005508
    36  C    6.034337
    37  C    5.992825
    38  C    6.013523
    39  O    8.025215
    40  C    6.005061
    41  C    6.002785
    42  O    8.008406
    43  O    7.999978
    44  C    5.997453
    45  H    0.988046
    46  H    0.996495
    47  H    1.015239
    48  H    1.001228
    49  H    0.995308
    50  H    0.989351
    51  H    0.986875
    52  H    1.007723
    53  H    1.008345
    54  H    0.993004
    55  H    0.995387
    56  H    1.001379
    57  H    0.980724
    58  H    0.983055
    59  H    0.981412
    60  H    0.994103
    61  H    0.984635
    62  H    0.988452
    63  H    1.003415
    64  H    1.002220
    65  H    0.987749
    66  H    1.002868
    67  H    1.001393
    68  H    1.012737
    69  H    0.998487
    70  H    0.992812
    71  H    1.013590
    72  H    1.007932
    73  H    1.020409
    74  H    1.017697
    75  H    1.026145
    76  H    1.006001
    77  H    1.000828
    78  H    1.006404
    79  H    1.003606
    80  Mg  12.000002
    81  C    6.000021
    82  C    5.999906
    83  C    5.999975
    84  C    6.000066
    85  N    7.000023
    86  C    5.999940
    87  C    5.999993
    88  C    5.999961
    89  C    6.000162
    90  C    5.999974
    91  C    6.000040
    92  C    6.000004
    93  H    0.999964
    94  N    7.000003
    95  C    6.000228
    96  C    6.000080
    97  C    6.000089
    98  C    6.000114
    99  C    5.999965
   100  C    6.000049
   101  O    8.000110
   102  C    5.999976
   103  N    6.999968
   104  C    6.000094
   105  C    5.999965
   106  C    6.000055
   107  C    5.999881
   108  C    5.999988
   109  C    6.000022
   110  C    6.000003
   111  N    6.999988
   112  C    5.999794
   113  C    5.999888
   114  C    5.999944
   115  C    5.999879
   116  C    6.000026
   117  C    5.999925
   118  O    7.999853
   119  C    6.000015
   120  C    5.999968
   121  O    8.000013
   122  O    7.999983
   123  C    6.000011
   124  H    1.000050
   125  H    1.000017
   126  H    0.999950
   127  H    1.000007
   128  H    0.999995
   129  H    1.000079
   130  H    1.000021
   131  H    1.000015
   132  H    0.999929
   133  H    1.000015
   134  H    0.999972
   135  H    1.000022
   136  H    1.000096
   137  H    1.000085
   138  H    1.000088
   139  H    1.000053
   140  H    1.000061
   141  H    1.000029
   142  H    0.999996
   143  H    1.000006
   144  H    0.999996
   145  H    1.000065
   146  H    1.000002
   147  H    1.000011
   148  H    0.999939
   149  H    0.999987
   150  H    1.000003
   151  H    0.999960
   152  H    0.999886
   153  H    0.999922
   154  H    0.999933
   155  H    0.999944
   156  H    0.999984
   157  H    0.999964
   158  H    1.000007
 Sum of Mulliken charges = 624.00000

 Dipole moment (field-independent basis, Debye):
    X=              3.9118    Y=              3.9736    Z=             -9.3109  Tot=             10.8529
 Quadrupole moment (field-independent basis, Debye-Ang):
   XX=            203.5912   YY=             -5.2990   ZZ=             -2.1465
   XY=            101.7272   XZ=           -239.2770   YZ=             10.1273

 Normal termination of Gaussian 16 at Wed Sep 22 00:32:30 2021.
