 Gaussian 16, Revision A.03,
 Gaussian 16:  ES64L-G16RevA.03 25-Dec-2016

 -----------------------------------
 #p cam-b3lyp/Def2SVP td=(nstates=5)
 -----------------------------------

 --------------------------------
 TDDFT excited states in gaussian
 --------------------------------
 Symbolic Z-matrix:
 Charge =  0 Multiplicity = 1

                         Standard orientation:
 ---------------------------------------------------------------------
 Center     Atomic      Atomic             Coordinates (Angstroms)
 Number     Number       Type             X           Y           Z
 ---------------------------------------------------------------------
      1         12           0      -17.510858   -0.697523    0.170279
      2          6           0      -17.302497    2.604935   -0.735336
      3          6           0      -16.200495    0.124431    3.230470
      4          6           0      -17.608298   -4.047289    1.063430
      5          6           0      -18.409677   -1.533310   -3.072243
      6          7           0      -16.761333    1.170540    1.162003
      7          6           0      -16.882800    2.400258    0.580224
      8          6           0      -16.432914    3.448727    1.478049
      9          6           0      -15.866124    2.728622    2.691399
     10          6           0      -16.252293    1.219043    2.369195
     11          6           0      -14.343959    2.898108    3.026400
     12          6           0      -17.585311    4.453763    1.819243
     13          6           0      -17.179018    5.948578    2.060955
     14          1           0      -15.761868    6.213959    2.605836
     15          7           0      -17.073013   -1.767713    1.970822
     16          6           0      -16.552222   -1.209973    3.125864
     17          6           0      -16.369495   -2.276959    4.130669
     18          6           0      -16.790734   -3.527743    3.503063
     19          6           0      -17.204222   -3.156876    2.138509
     20          6           0      -15.803152   -2.063930    5.525013
     21          6           0      -16.912782   -4.887764    4.149791
     22          8           0      -17.367649   -5.834258    3.483693
     23          6           0      -16.493414   -5.205266    5.536290
     24          7           0      -17.869524   -2.550179   -0.865838
     25          6           0      -17.900584   -3.740487   -0.259739
     26          6           0      -18.408893   -4.828452   -1.220299
     27          6           0      -18.930533   -4.009141   -2.523123
     28          6           0      -18.440412   -2.582364   -2.090852
     29          6           0      -17.303628   -5.889222   -1.513771
     30          6           0      -20.467452   -4.019025   -2.748055
     31          6           0      -20.954735   -4.792331   -3.982534
     32          7           0      -17.746198    0.286744   -1.613007
     33          6           0      -18.105030   -0.179884   -2.879707
     34          6           0      -18.171912    0.946244   -3.837362
     35          6           0      -17.839457    2.036508   -2.999138
     36          6           0      -17.584048    1.586088   -1.676289
     37          6           0      -18.549002    0.920702   -5.236168
     38          6           0      -17.752082    3.511108   -2.966402
     39          8           0      -17.973448    4.343509   -3.805357
     40          6           0      -17.357902    3.919888   -1.502436
     41          6           0      -16.156972    4.768263   -1.564055
     42          8           0      -15.055057    4.274304   -1.852701
     43          8           0      -16.340585    6.052841   -1.152578
     44          6           0      -15.170815    6.909513   -0.985525
     45          1           0      -15.782733    0.419623    4.195253
     46          1           0      -17.596800   -5.100715    1.351705
     47          1           0      -18.818126   -1.826615   -4.041466
     48          1           0      -15.630894    3.993781    0.979082
     49          1           0      -16.467684    2.916884    3.581421
     50          1           0      -13.691477    3.538916    2.432440
     51          1           0      -13.891766    1.906653    3.032700
     52          1           0      -14.157782    3.210239    4.054322
     53          1           0      -18.175139    4.065331    2.649585
     54          1           0      -18.361631    4.367088    1.059267
     55          1           0      -17.888962    6.422828    2.739161
     56          1           0      -17.131706    6.529536    1.140370
     57          1           0      -15.657945   -1.013888    5.776489
     58          1           0      -14.817517   -2.520002    5.622036
     59          1           0      -16.541184   -2.347598    6.275094
     60          1           0      -16.796028   -6.235970    5.718677
     61          1           0      -16.932139   -4.545898    6.286335
     62          1           0      -15.423817   -5.023186    5.642126
     63          1           0      -19.311611   -5.245304   -0.773527
     64          1           0      -18.406308   -4.296383   -3.434528
     65          1           0      -17.645163   -6.917376   -1.393228
     66          1           0      -16.455238   -5.761638   -0.840866
     67          1           0      -16.976584   -5.653249   -2.526700
     68          1           0      -20.895842   -3.021552   -2.838795
     69          1           0      -20.999868   -4.440464   -1.895118
     70          1           0      -20.247844   -5.589404   -4.213212
     71          1           0      -20.976961   -4.100434   -4.823898
     72          1           0      -21.980380   -5.094234   -3.774420
     73          1           0      -18.844050    1.900116   -5.612076
     74          1           0      -19.358537    0.223686   -5.451887
     75          1           0      -17.642833    0.750238   -5.817643
     76          1           0      -18.254619    4.457268   -1.191990
     77          1           0      -14.647497    7.140152   -1.913851
     78          1           0      -14.502874    6.513720   -0.220532
     79          1           0      -15.486960    7.887177   -0.622091
     80         12           0       17.582641   -0.650110    0.035365
     81          6           0       15.214094    1.801204    0.465314
     82          6           0       20.081842    1.803859    0.661189
     83          6           0       20.030974   -2.794944   -0.878433
     84          6           0       15.243844   -2.873812   -0.878865
     85          7           0       17.629047    1.561690    0.506462
     86          6           0       16.500462    2.329475    0.612117
     87          6           0       16.844158    3.755342    1.048830
     88          6           0       18.435096    3.736898    0.897383
     89          6           0       18.747678    2.286445    0.672353
     90          6           0       18.989803    4.722093   -0.195957
     91          6           0       16.378439    4.100094    2.536792
     92          6           0       15.722741    5.410126    2.901845
     93          1           0       16.332634    6.670760    2.400453
     94          7           0       19.787191   -0.559939   -0.053013
     95          6           0       20.584898    0.431768    0.400720
     96          6           0       21.952630    0.033705    0.418176
     97          6           0       21.972166   -1.334003   -0.000913
     98          6           0       20.553628   -1.579514   -0.398170
     99          6           0       22.987720    1.044241    0.794243
    100          6           0       23.168643   -2.240879   -0.233178
    101          8           0       23.082527   -3.302516   -0.858152
    102          6           0       24.538954   -1.848780    0.290975
    103          7           0       17.645383   -2.549355   -0.926362
    104          6           0       18.783467   -3.277691   -1.072347
    105          6           0       18.458353   -4.706900   -1.503267
    106          6           0       16.893500   -4.759423   -1.323671
    107          6           0       16.561830   -3.312468   -1.016304
    108          6           0       18.976323   -5.280743   -2.855156
    109          6           0       16.329777   -5.811383   -0.279637
    110          6           0       16.075209   -5.405600    1.156636
    111          7           0       15.658517   -0.569734   -0.270957
    112          6           0       14.745997   -1.566300   -0.507687
    113          6           0       13.409334   -1.100435   -0.582052
    114          6           0       13.528404    0.218772   -0.156160
    115          6           0       14.908130    0.483434    0.041067
    116          6           0       12.083068   -1.781590   -0.893478
    117          6           0       12.846347    1.408066    0.113121
    118          8           0       11.656720    1.636955   -0.005823
    119          6           0       13.908576    2.573329    0.528531
    120          6           0       13.787795    3.654189   -0.442038
    121          8           0       14.063782    3.581734   -1.655943
    122          8           0       13.278115    4.799274    0.084135
    123          6           0       12.809510    5.850209   -0.826195
    124          1           0       20.749485    2.617012    0.952304
    125          1           0       20.778849   -3.589911   -0.905853
    126          1           0       14.459800   -3.629399   -0.805703
    127          1           0       16.302273    4.450834    0.406660
    128          1           0       18.924990    4.083606    1.807429
    129          1           0       19.663569    5.419846    0.300134
    130          1           0       18.098500    5.147162   -0.657796
    131          1           0       19.647130    4.270859   -0.939819
    132          1           0       17.322290    4.015759    3.075720
    133          1           0       15.837548    3.264528    2.979796
    134          1           0       15.550201    5.453161    3.977219
    135          1           0       14.760526    5.402301    2.391082
    136          1           0       23.649623    0.519830    1.482463
    137          1           0       22.542248    1.862516    1.360546
    138          1           0       23.563223    1.474659   -0.026001
    139          1           0       24.526474   -1.432565    1.298737
    140          1           0       25.075280   -1.284014   -0.472815
    141          1           0       25.066596   -2.798255    0.386410
    142          1           0       19.016294   -5.309841   -0.786521
    143          1           0       16.379669   -5.130835   -2.209516
    144          1           0       18.149816   -5.401728   -3.555256
    145          1           0       19.392540   -6.262158   -2.628416
    146          1           0       19.726771   -4.573387   -3.206395
    147          1           0       17.037936   -6.638761   -0.265175
    148          1           0       15.373742   -6.201016   -0.630059
    149          1           0       16.560421   -6.081409    1.861269
    150          1           0       15.016605   -5.351372    1.414096
    151          1           0       16.501524   -4.405995    1.241377
    152          1           0       12.259374   -2.845310   -1.057759
    153          1           0       11.638653   -1.313635   -1.772255
    154          1           0       11.415469   -1.641182   -0.043826
    155          1           0       13.477051    2.893698    1.477263
    156          1           0       12.071371    6.521604   -0.387254
    157          1           0       12.502195    5.512753   -1.815579
    158          1           0       13.657427    6.527774   -0.927604
 ---------------------------------------------------------------------

 SCF Done:  E(RCAM-B3LYP) =  -4069.87223099     A.U. after   17 cycles

 Excitation energies and oscillator strengths:

 Excited State   1:      Singlet-A      1.7199 eV  720.88 nm  f=0.4248  <S**2>=0.000
     310 -> 316        0.17803
     311 -> 313        0.68622
     310 <- 316        0.10689
 This state for optimization and/or second-order correction.
 Total Energy, E(TD-HF/TD-DFT) =  -4069.80902543
 Copying the excited state density for this state as the 1-particle RhoCI density.

 Excited State   2:      Singlet-A      1.7299 eV  716.72 nm  f=0.3823  <S**2>=0.000
     309 -> 315        0.18850
     312 -> 314        0.68207
     309 <- 315        0.10879

 Excited State   3:      Singlet-A      2.1905 eV  566.01 nm  f=0.1736  <S**2>=0.000
     310 -> 313        0.66247
     311 -> 316       -0.23744

 Excited State   4:      Singlet-A      2.2550 eV  549.82 nm  f=0.0856  <S**2>=0.000
     309 -> 314        0.62549
     312 -> 315       -0.31647

 Excited State   5:      Singlet-A      2.9128 eV  425.66 nm  f=0.0000  <S**2>=0.000
     312 -> 313        0.70709

 The electronic state is 1-A.
 Alpha  occ. eigenvalues --  -46.89109 -46.88859 -19.25942 -19.25082 -19.19268
 Alpha  occ. eigenvalues --  -19.19016 -19.18876 -19.18601 -19.18535 -19.18342
 Alpha  occ. eigenvalues --  -14.42137 -14.41802 -14.41694 -14.41545 -14.39582
 Alpha  occ. eigenvalues --  -14.39504 -14.39464 -14.39218 -10.39528 -10.38946
 Alpha  occ. eigenvalues --  -10.35365 -10.34938 -10.34824 -10.34529 -10.32285
 Alpha  occ. eigenvalues --  -10.31630 -10.31077 -10.30888 -10.30879 -10.30620
 Alpha  occ. eigenvalues --  -10.30584 -10.30430 -10.30388 -10.30130 -10.30080
 Alpha  occ. eigenvalues --  -10.30076 -10.30054 -10.29990 -10.29893 -10.29885
 Alpha  occ. eigenvalues --  -10.29278 -10.29127 -10.29013 -10.28667 -10.28587
 Alpha  occ. eigenvalues --  -10.28460 -10.28368 -10.28361 -10.28277 -10.28253
 Alpha  occ. eigenvalues --  -10.28009 -10.28005 -10.27978 -10.27974 -10.27876
 Alpha  occ. eigenvalues --  -10.27740 -10.27685 -10.27501 -10.27500 -10.27461
 Alpha  occ. eigenvalues --  -10.27432 -10.27365 -10.27353 -10.27316 -10.27190
 Alpha  occ. eigenvalues --  -10.26961 -10.26916 -10.26873 -10.26608 -10.26457
 Alpha  occ. eigenvalues --  -10.26418 -10.26233 -10.26181 -10.26081 -10.26069
 Alpha  occ. eigenvalues --  -10.26041 -10.26035 -10.25990 -10.25987 -10.25712
 Alpha  occ. eigenvalues --  -10.25483 -10.25332 -10.25224 -10.25209 -10.25043
 Alpha  occ. eigenvalues --  -10.24624  -3.17718  -3.17282  -1.92601  -1.92203
 Alpha  occ. eigenvalues --   -1.92134  -1.92068  -1.91721  -1.91589  -1.16406
 Alpha  occ. eigenvalues --   -1.15865  -1.10919  -1.09894  -1.09461  -1.08896
 Alpha  occ. eigenvalues --   -1.07094  -1.05859  -1.05378  -1.05093  -1.04645
 Alpha  occ. eigenvalues --   -1.04157  -1.04024  -1.03483  -1.03349  -1.00930
 Alpha  occ. eigenvalues --   -0.92618  -0.92459  -0.89099  -0.89025  -0.88260
 Alpha  occ. eigenvalues --   -0.88254  -0.88205  -0.87785  -0.87681  -0.87422
 Alpha  occ. eigenvalues --   -0.87166  -0.86706  -0.86426  -0.86232  -0.84289
 Alpha  occ. eigenvalues --   -0.83917  -0.83770  -0.83539  -0.82688  -0.82298
 Alpha  occ. eigenvalues --   -0.81848  -0.81846  -0.81187  -0.81171  -0.80523
 Alpha  occ. eigenvalues --   -0.80327  -0.78409  -0.78393  -0.77527  -0.77482
 Alpha  occ. eigenvalues --   -0.77281  -0.77105  -0.76257  -0.76208  -0.75497
 Alpha  occ. eigenvalues --   -0.74863  -0.73546  -0.72569  -0.71550  -0.71480
 Alpha  occ. eigenvalues --   -0.69637  -0.69218  -0.69212  -0.68330  -0.68135
 Alpha  occ. eigenvalues --   -0.68001  -0.67135  -0.66893  -0.65808  -0.65640
 Alpha  occ. eigenvalues --   -0.65419  -0.65126  -0.64999  -0.64773  -0.64300
 Alpha  occ. eigenvalues --   -0.64215  -0.62695  -0.62249  -0.60184  -0.59839
 Alpha  occ. eigenvalues --   -0.59822  -0.59560  -0.59191  -0.59073  -0.58721
 Alpha  occ. eigenvalues --   -0.58300  -0.58195  -0.57917  -0.57297  -0.57261
 Alpha  occ. eigenvalues --   -0.56248  -0.56024  -0.55935  -0.55411  -0.55316
 Alpha  occ. eigenvalues --   -0.54986  -0.54883  -0.54690  -0.54080  -0.53945
 Alpha  occ. eigenvalues --   -0.53419  -0.53308  -0.53135  -0.52895  -0.52795
 Alpha  occ. eigenvalues --   -0.52755  -0.52600  -0.52388  -0.52228  -0.52188
 Alpha  occ. eigenvalues --   -0.52089  -0.51636  -0.51476  -0.51441  -0.51250
 Alpha  occ. eigenvalues --   -0.51139  -0.50762  -0.50571  -0.50278  -0.50180
 Alpha  occ. eigenvalues --   -0.49935  -0.49847  -0.49814  -0.49544  -0.49339
 Alpha  occ. eigenvalues --   -0.49237  -0.49098  -0.48964  -0.48802  -0.48765
 Alpha  occ. eigenvalues --   -0.48567  -0.48510  -0.48444  -0.48218  -0.48083
 Alpha  occ. eigenvalues --   -0.47922  -0.47829  -0.47551  -0.47442  -0.47169
 Alpha  occ. eigenvalues --   -0.47148  -0.47076  -0.46860  -0.46668  -0.46526
 Alpha  occ. eigenvalues --   -0.46259  -0.46171  -0.45963  -0.45892  -0.45840
 Alpha  occ. eigenvalues --   -0.45676  -0.45483  -0.45320  -0.45170  -0.44995
 Alpha  occ. eigenvalues --   -0.44890  -0.44500  -0.44491  -0.44297  -0.43947
 Alpha  occ. eigenvalues --   -0.43930  -0.43775  -0.43630  -0.43571  -0.43462
 Alpha  occ. eigenvalues --   -0.43377  -0.43217  -0.43135  -0.42981  -0.42969
 Alpha  occ. eigenvalues --   -0.42589  -0.42233  -0.42112  -0.41886  -0.41830
 Alpha  occ. eigenvalues --   -0.41810  -0.41524  -0.41460  -0.41324  -0.41125
 Alpha  occ. eigenvalues --   -0.41118  -0.40882  -0.40658  -0.40628  -0.40308
 Alpha  occ. eigenvalues --   -0.39993  -0.39962  -0.39840  -0.39530  -0.39510
 Alpha  occ. eigenvalues --   -0.38516  -0.38238  -0.38159  -0.37446  -0.37349
 Alpha  occ. eigenvalues --   -0.37189  -0.36682  -0.36614  -0.36594  -0.36034
 Alpha  occ. eigenvalues --   -0.35994  -0.35676  -0.34559  -0.34010  -0.33938
 Alpha  occ. eigenvalues --   -0.33444  -0.33085  -0.32886  -0.31339  -0.31224
 Alpha  occ. eigenvalues --   -0.31106  -0.30893  -0.30866  -0.30665  -0.30422
 Alpha  occ. eigenvalues --   -0.30098  -0.30034  -0.29477  -0.23853  -0.23839
 Alpha  occ. eigenvalues --   -0.21470  -0.20774
 Alpha virt. eigenvalues --   -0.09089  -0.08261  -0.01693  -0.01196   0.00222
 Alpha virt. eigenvalues --    0.00573   0.01839   0.02471   0.02574   0.03120
 Alpha virt. eigenvalues --    0.04499   0.04755   0.05266   0.06034   0.06146

 Mulliken charges:
               1
     1  Mg   0.814840
     2  C   -0.017232
     3  C   -0.070454
     4  C   -0.047050
     5  C   -0.073572
     6  N   -0.243875
     7  C   -0.051351
     8  C   -0.008509
     9  C    0.010437
    10  C   -0.041602
    11  C    0.066160
    12  C    0.061621
    13  C   -0.064249
    14  H    0.001659
    15  N   -0.381014
    16  C    0.179989
    17  C   -0.151780
    18  C   -0.018608
    19  C    0.094789
    20  C    0.107324
    21  C   -0.005728
    22  O   -0.232239
    23  C    0.074377
    24  N   -0.261013
    25  C    0.046040
    26  C   -0.044088
    27  C   -0.048518
    28  C    0.017402
    29  C    0.079026
    30  C    0.027482
    31  C    0.003019
    32  N   -0.356672
    33  C    0.120879
    34  C   -0.150014
    35  C   -0.006740
    36  C    0.104783
    37  C    0.121499
    38  C    0.014267
    39  O   -0.146074
    40  C    0.025530
    41  C    0.218338
    42  O   -0.248855
    43  O   -0.321536
    44  C    0.184505
    45  H   -0.049196
    46  H    0.001114
    47  H   -0.028732
    48  H    0.022880
    49  H    0.007994
    50  H    0.027437
    51  H    0.010436
    52  H    0.004927
    53  H   -0.006467
    54  H    0.001640
    55  H    0.031360
    56  H    0.046811
    57  H    0.002019
    58  H    0.041615
    59  H    0.029910
    60  H    0.037722
    61  H    0.020594
    62  H    0.031171
    63  H    0.014310
    64  H    0.014686
    65  H    0.025674
    66  H    0.025012
    67  H    0.008117
    68  H    0.007521
    69  H    0.001671
    70  H    0.019693
    71  H    0.010871
    72  H    0.018587
    73  H    0.025092
    74  H    0.026340
    75  H    0.033670
    76  H    0.036784
    77  H    0.048311
    78  H    0.035177
    79  H    0.032061
    80  Mg   0.838522
    81  C    0.011586
    82  C   -0.053565
    83  C   -0.054114
    84  C   -0.074699
    85  N   -0.259028
    86  C   -0.044616
    87  C   -0.039941
    88  C   -0.067769
    89  C    0.025088
    90  C    0.071337
    91  C    0.050799
    92  C   -0.046902
    93  H    0.016629
    94  N   -0.276116
    95  C    0.108830
    96  C   -0.140175
    97  C   -0.038893
    98  C    0.073802
    99  C    0.126624
   100  C   -0.001528
   101  O   -0.216465
   102  C    0.046159
   103  N   -0.278495
   104  C    0.028283
   105  C   -0.031845
   106  C    0.005481
   107  C    0.043848
   108  C    0.083010
   109  C   -0.011479
   110  C    0.012523
   111  N   -0.385126
   112  C    0.091414
   113  C   -0.180222
   114  C    0.092702
   115  C    0.102463
   116  C    0.138699
   117  C   -0.042521
   118  O   -0.171665
   119  C    0.016074
   120  C    0.193115
   121  O   -0.252882
   122  O   -0.327443
   123  C    0.186365
   124  H   -0.035458
   125  H   -0.008343
   126  H   -0.023964
   127  H    0.024598
   128  H    0.018077
   129  H    0.010025
   130  H    0.028623
   131  H    0.019061
   132  H   -0.011581
   133  H    0.007794
   134  H    0.032201
   135  H    0.033351
   136  H    0.009150
   137  H    0.014667
   138  H    0.039616
   139  H    0.033200
   140  H    0.047638
   141  H    0.024838
   142  H    0.009810
   143  H    0.009961
   144  H    0.015199
   145  H    0.018533
   146  H    0.029851
   147  H    0.004412
   148  H    0.004822
   149  H    0.014788
   150  H    0.015386
   151  H    0.016053
   152  H    0.004421
   153  H    0.043885
   154  H    0.038548
   155  H    0.030531
   156  H    0.035047
   157  H    0.058309
   158  H    0.019087
 Sum of Mulliken charges =  -0.00000

 Dipole moment (field-independent basis, Debye):
    X=              1.9993    Y=              1.0789    Z=              7.2237  Tot=              7.5725
 Quadrupole moment (field-independent basis, Debye-Ang):
   XX=           -410.8860   YY=           -491.0033   ZZ=           -500.2281
   XY=             23.0510   XZ=             17.7789   YZ=             30.7644

 Normal termination of Gaussian 16 at Thu Sep  2 07:48:22 2021.
