 Gaussian 16, Revision A.03,
 Gaussian 16:  ES64L-G16RevA.03 25-Dec-2016

 -----------------------------------
 #p cam-b3lyp/Def2SVP td=(nstates=5)
 -----------------------------------

 --------------------------------
 TDDFT excited states in gaussian
 --------------------------------
 Symbolic Z-matrix:
 Charge =  0 Multiplicity = 1

                         Standard orientation:
 ---------------------------------------------------------------------
 Center     Atomic      Atomic             Coordinates (Angstroms)
 Number     Number       Type             X           Y           Z
 ---------------------------------------------------------------------
      1         12           0       30.927887   -0.121394    0.221064
      2          6           0       27.600219    0.645439    0.129089
      3          6           0       30.029253   -3.444617   -0.679640
      4          6           0       34.213787   -0.823838   -0.087718
      5          6           0       31.681966    3.279560    0.176172
      6          7           0       28.959110   -1.200496   -0.609771
      7          6           0       27.728299   -0.705749   -0.298249
      8          6           0       26.666265   -1.692033   -0.698598
      9          6           0       27.465672   -3.034139   -0.997337
     10          6           0       28.942410   -2.593325   -0.746104
     11          6           0       26.855323   -4.292896   -0.498810
     12          6           0       25.584348   -1.291556   -1.809659
     13          6           0       26.003140   -0.350393   -2.899977
     14          1           0       25.661272   -0.750580   -4.328357
     15          7           0       31.951925   -1.933593   -0.073441
     16          6           0       31.437885   -3.152693   -0.390165
     17          6           0       32.460959   -4.141110   -0.563293
     18          6           0       33.718928   -3.398585   -0.270928
     19          6           0       33.327501   -1.979904   -0.121362
     20          6           0       32.317336   -5.549608   -0.894178
     21          6           0       35.137581   -3.935924   -0.148281
     22          8           0       35.383438   -5.052286   -0.439814
     23          6           0       36.361748   -3.149483    0.230859
     24          7           0       32.647150    1.045822   -0.061140
     25          6           0       33.872656    0.506586    0.026676
     26          6           0       35.009950    1.625224   -0.242024
     27          6           0       34.182832    2.918204    0.230771
     28          6           0       32.778461    2.392695    0.051433
     29          6           0       36.327292    1.432407    0.514362
     30          6           0       34.584563    4.194892   -0.529700
     31          6           0       34.872365    5.498890    0.223689
     32          7           0       29.870540    1.631369    0.053282
     33          6           0       30.274409    2.960275    0.087561
     34          6           0       29.171563    3.836265    0.176770
     35          6           0       28.067106    3.003888    0.253473
     36          6           0       28.533770    1.644021    0.174115
     37          6           0       29.189912    5.331260    0.261244
     38          6           0       26.680206    2.867716    0.420348
     39          8           0       25.853424    3.770166    0.535640
     40          6           0       26.283625    1.383558    0.177741
     41          6           0       25.417083    1.056751    1.385056
     42          8           0       24.273501    0.558929    1.313160
     43          8           0       26.178028    1.273455    2.509595
     44          6           0       25.740727    0.826643    3.854811
     45          1           0       29.698552   -4.406629   -1.076504
     46          1           0       35.243288   -1.029211   -0.387990
     47          1           0       31.929901    4.341143    0.233658
     48          1           0       25.994107   -1.834801    0.148316
     49          1           0       27.467346   -3.143445   -2.081457
     50          1           0       27.555404   -4.930528    0.040888
     51          1           0       26.309082   -4.823720   -1.278534
     52          1           0       26.108517   -4.054008    0.258424
     53          1           0       24.695826   -0.798432   -1.415207
     54          1           0       25.315010   -2.176825   -2.386576
     55          1           0       27.019376    0.031552   -2.808463
     56          1           0       25.359636    0.526471   -2.821242
     57          1           0       31.371534   -5.908725   -0.489680
     58          1           0       33.123279   -6.179542   -0.519583
     59          1           0       32.298069   -5.613539   -1.982729
     60          1           0       35.832923   -2.464646    0.894193
     61          1           0       36.802104   -2.616563   -0.611286
     62          1           0       37.164849   -3.688882    0.733302
     63          1           0       35.123762    1.673352   -1.325423
     64          1           0       34.209357    3.199205    1.283305
     65          1           0       36.342911    2.173227    1.314229
     66          1           0       37.162602    1.388095   -0.183884
     67          1           0       36.397699    0.466017    1.012707
     68          1           0       33.782881    4.396133   -1.240770
     69          1           0       35.422302    3.943924   -1.180494
     70          1           0       35.789174    6.042581   -0.004763
     71          1           0       34.763033    5.399055    1.304382
     72          1           0       33.978500    6.082201    0.004976
     73          1           0       28.398854    5.763213    0.874698
     74          1           0       29.106268    5.733735   -0.748536
     75          1           0       30.098290    5.726025    0.718213
     76          1           0       25.730506    1.434512   -0.759319
     77          1           0       26.563618    0.440347    4.455996
     78          1           0       24.994727    0.042525    3.724405
     79          1           0       25.251307    1.518595    4.539067
     80         12           0      -30.890832    0.259999    0.290435
     81          6           0      -28.016400   -1.651509   -0.130503
     82          6           0      -28.970828    3.082199   -0.319855
     83          6           0      -33.606446    2.136397    0.117850
     84          6           0      -32.774825   -2.641736    0.385507
     85          7           0      -28.794172    0.662412   -0.327932
     86          6           0      -27.768481   -0.260137   -0.300439
     87          6           0      -26.416137    0.367412   -0.466729
     88          6           0      -26.729831    1.894172   -0.141315
     89          6           0      -28.243651    1.923155   -0.304918
     90          6           0      -26.115377    2.634277    1.140007
     91          6           0      -25.695478    0.081632   -1.864939
     92          6           0      -26.597338   -0.088375   -3.123583
     93          1           0      -26.063857    0.584956   -4.365205
     94          7           0      -31.264959    2.314040   -0.170507
     95          6           0      -30.318323    3.324722   -0.379369
     96          6           0      -30.946480    4.581031   -0.683912
     97          6           0      -32.335989    4.330929   -0.584936
     98          6           0      -32.488413    2.888575   -0.229499
     99          6           0      -30.113854    5.862070   -0.755370
    100          6           0      -33.381376    5.450050   -0.794375
    101          8           0      -33.060699    6.588230   -1.151412
    102          6           0      -34.775264    5.094188   -0.488478
    103          7           0      -32.886120   -0.258548    0.137570
    104          6           0      -33.820328    0.739042    0.360172
    105          6           0      -35.246634    0.189943    0.583445
    106          6           0      -34.925461   -1.352064    0.418383
    107          6           0      -33.473091   -1.437967    0.256355
    108          6           0      -35.965397    0.505947    1.857008
    109          6           0      -35.643722   -2.009135   -0.866447
    110          6           0      -36.294915   -3.320636   -0.512332
    111          7           0      -30.510350   -1.787760    0.355074
    112          6           0      -31.388844   -2.854640    0.394005
    113          6           0      -30.635318   -4.129128    0.367657
    114          6           0      -29.279585   -3.694789    0.162376
    115          6           0      -29.287795   -2.295064    0.161170
    116          6           0      -31.110899   -5.520104    0.249943
    117          6           0      -27.879631   -4.088458   -0.103933
    118          8           0      -27.414195   -5.190104   -0.283187
    119          6           0      -27.014189   -2.796802   -0.260357
    120          6           0      -25.905788   -2.809133    0.695053
    121          8           0      -24.690402   -2.813401    0.497998
    122          8           0      -26.463144   -3.112291    1.964961
    123          6           0      -25.507032   -3.116441    3.092854
    124          1           0      -28.303302    3.945040   -0.261576
    125          1           0      -34.548140    2.666388    0.274498
    126          1           0      -33.451637   -3.490406    0.499303
    127          1           0      -25.718331   -0.041374    0.263982
    128          1           0      -26.298708    2.372356   -1.021205
    129          1           0      -25.396344    2.057688    1.721662
    130          1           0      -26.858566    2.902714    1.890702
    131          1           0      -25.487288    3.461559    0.808397
    132          1           0      -25.009965   -0.760621   -1.777174
    133          1           0      -25.021233    0.921745   -2.031215
    134          1           0      -27.609850    0.262755   -2.922186
    135          1           0      -26.683269   -1.145130   -3.375032
    136          1           0      -30.512385    6.608394   -1.443318
    137          1           0      -29.135889    5.628844   -1.175616
    138          1           0      -30.112610    6.269523    0.255887
    139          1           0      -34.871944    4.971955    0.589913
    140          1           0      -35.054670    4.194698   -1.037965
    141          1           0      -35.362189    5.951093   -0.819010
    142          1           0      -35.828376    0.426819   -0.307684
    143          1           0      -35.126442   -1.739007    1.417354
    144          1           0      -36.836745   -0.148883    1.874932
    145          1           0      -36.367809    1.513642    1.753303
    146          1           0      -35.294943    0.400535    2.710757
    147          1           0      -34.873518   -2.104998   -1.631646
    148          1           0      -36.360782   -1.388985   -1.405836
    149          1           0      -35.731350   -4.114797   -1.001442
    150          1           0      -37.256303   -3.454451   -1.009355
    151          1           0      -36.205377   -3.499908    0.558895
    152          1           0      -32.193547   -5.651629    0.220137
    153          1           0      -30.774629   -6.026120    1.154246
    154          1           0      -30.760852   -5.759749   -0.753917
    155          1           0      -26.653662   -2.834706   -1.288042
    156          1           0      -26.054324   -2.556643    3.852137
    157          1           0      -24.516400   -2.672854    2.992566
    158          1           0      -25.542906   -4.138108    3.471475
 ---------------------------------------------------------------------

 SCF Done:  E(RCAM-B3LYP) =  -4069.75822140     A.U. after   19 cycles

 Excitation energies and oscillator strengths:

 Excited State   1:      Singlet-A      1.6348 eV  758.43 nm  f=0.3862  <S**2>=0.000
     309 -> 316       -0.16911
     311 -> 313        0.68879
     309 <- 316       -0.10872
 This state for optimization and/or second-order correction.
 Total Energy, E(TD-HF/TD-DFT) =  -4069.69814535
 Copying the excited state density for this state as the 1-particle RhoCI density.

 Excited State   2:      Singlet-A      1.7179 eV  721.73 nm  f=0.3722  <S**2>=0.000
     310 -> 315       -0.18175
     312 -> 314        0.68360
     310 <- 315       -0.10499

 Excited State   3:      Singlet-A      2.1488 eV  576.98 nm  f=0.1482  <S**2>=0.000
     309 -> 313        0.65208
     311 -> 316        0.25547

 Excited State   4:      Singlet-A      2.2043 eV  562.47 nm  f=0.0883  <S**2>=0.000
     310 -> 314        0.62977
     312 -> 315        0.30495

 Excited State   5:      Singlet-A      2.9860 eV  415.22 nm  f=0.0000  <S**2>=0.000
     312 -> 313        0.70711

 The electronic state is 1-A.
 Alpha  occ. eigenvalues --  -46.89959 -46.89102 -19.26233 -19.24338 -19.20534
 Alpha  occ. eigenvalues --  -19.20334 -19.19022 -19.18818 -19.18488 -19.17249
 Alpha  occ. eigenvalues --  -14.42592 -14.42232 -14.42203 -14.42045 -14.40064
 Alpha  occ. eigenvalues --  -14.39670 -14.39641 -14.39181 -10.40487 -10.39728
 Alpha  occ. eigenvalues --  -10.35115 -10.35104 -10.34287 -10.33587 -10.32832
 Alpha  occ. eigenvalues --  -10.32102 -10.31620 -10.31617 -10.31294 -10.31179
 Alpha  occ. eigenvalues --  -10.31021 -10.30936 -10.30770 -10.30707 -10.30677
 Alpha  occ. eigenvalues --  -10.30630 -10.30190 -10.30187 -10.30076 -10.29400
 Alpha  occ. eigenvalues --  -10.29350 -10.28956 -10.28906 -10.28866 -10.28674
 Alpha  occ. eigenvalues --  -10.28538 -10.28473 -10.28443 -10.28425 -10.28410
 Alpha  occ. eigenvalues --  -10.28338 -10.28306 -10.28210 -10.28204 -10.28158
 Alpha  occ. eigenvalues --  -10.28073 -10.27979 -10.27969 -10.27813 -10.27670
 Alpha  occ. eigenvalues --  -10.27529 -10.27521 -10.27297 -10.27241 -10.27160
 Alpha  occ. eigenvalues --  -10.27135 -10.27124 -10.26965 -10.26902 -10.26801
 Alpha  occ. eigenvalues --  -10.26788 -10.26740 -10.26726 -10.26702 -10.26356
 Alpha  occ. eigenvalues --  -10.26233 -10.26214 -10.26077 -10.26053 -10.26019
 Alpha  occ. eigenvalues --  -10.25958 -10.25751 -10.25525 -10.25383 -10.25175
 Alpha  occ. eigenvalues --  -10.25091  -3.18430  -3.17628  -1.93289  -1.92922
 Alpha  occ. eigenvalues --   -1.92706  -1.92512  -1.92098  -1.91921  -1.15692
 Alpha  occ. eigenvalues --   -1.14814  -1.11427  -1.10358  -1.09370  -1.09368
 Alpha  occ. eigenvalues --   -1.07264  -1.06896  -1.05181  -1.05069  -1.04376
 Alpha  occ. eigenvalues --   -1.03714  -1.03181  -1.02949  -1.02340  -1.02169
 Alpha  occ. eigenvalues --   -0.93705  -0.92461  -0.89855  -0.89653  -0.89219
 Alpha  occ. eigenvalues --   -0.88750  -0.88418  -0.87982  -0.87956  -0.87665
 Alpha  occ. eigenvalues --   -0.87266  -0.86877  -0.86182  -0.85901  -0.84830
 Alpha  occ. eigenvalues --   -0.84566  -0.84453  -0.84011  -0.83115  -0.82719
 Alpha  occ. eigenvalues --   -0.82382  -0.82192  -0.80998  -0.80840  -0.80605
 Alpha  occ. eigenvalues --   -0.80149  -0.78532  -0.78318  -0.77822  -0.77499
 Alpha  occ. eigenvalues --   -0.77008  -0.76844  -0.76712  -0.76213  -0.75746
 Alpha  occ. eigenvalues --   -0.75492  -0.73603  -0.72641  -0.72137  -0.71770
 Alpha  occ. eigenvalues --   -0.70048  -0.69422  -0.69406  -0.69361  -0.68421
 Alpha  occ. eigenvalues --   -0.68086  -0.66825  -0.66585  -0.66411  -0.66289
 Alpha  occ. eigenvalues --   -0.65509  -0.64899  -0.64731  -0.64505  -0.64418
 Alpha  occ. eigenvalues --   -0.63997  -0.63612  -0.62540  -0.60298  -0.60274
 Alpha  occ. eigenvalues --   -0.59412  -0.59376  -0.58940  -0.58905  -0.58283
 Alpha  occ. eigenvalues --   -0.58081  -0.57640  -0.57524  -0.57248  -0.57236
 Alpha  occ. eigenvalues --   -0.56547  -0.56322  -0.55821  -0.55815  -0.55346
 Alpha  occ. eigenvalues --   -0.55345  -0.55128  -0.55096  -0.54606  -0.54482
 Alpha  occ. eigenvalues --   -0.53988  -0.53887  -0.53291  -0.53200  -0.52904
 Alpha  occ. eigenvalues --   -0.52712  -0.52622  -0.52526  -0.52173  -0.52094
 Alpha  occ. eigenvalues --   -0.51980  -0.51863  -0.51821  -0.51613  -0.51367
 Alpha  occ. eigenvalues --   -0.51108  -0.51096  -0.50847  -0.50710  -0.50609
 Alpha  occ. eigenvalues --   -0.50469  -0.50274  -0.49998  -0.49730  -0.49631
 Alpha  occ. eigenvalues --   -0.49550  -0.49479  -0.49268  -0.49200  -0.49014
 Alpha  occ. eigenvalues --   -0.48819  -0.48561  -0.48295  -0.48245  -0.48168
 Alpha  occ. eigenvalues --   -0.47887  -0.47737  -0.47577  -0.47322  -0.47249
 Alpha  occ. eigenvalues --   -0.47239  -0.47100  -0.46917  -0.46914  -0.46500
 Alpha  occ. eigenvalues --   -0.46430  -0.46270  -0.46206  -0.46159  -0.45728
 Alpha  occ. eigenvalues --   -0.45632  -0.45546  -0.45384  -0.45334  -0.45118
 Alpha  occ. eigenvalues --   -0.45036  -0.44989  -0.44973  -0.44901  -0.44688
 Alpha  occ. eigenvalues --   -0.44644  -0.44170  -0.44016  -0.43925  -0.43417
 Alpha  occ. eigenvalues --   -0.43399  -0.43217  -0.43106  -0.43088  -0.42746
 Alpha  occ. eigenvalues --   -0.42724  -0.42653  -0.42476  -0.42390  -0.42129
 Alpha  occ. eigenvalues --   -0.42091  -0.41960  -0.41960  -0.41742  -0.41708
 Alpha  occ. eigenvalues --   -0.41682  -0.41500  -0.41303  -0.41220  -0.40580
 Alpha  occ. eigenvalues --   -0.40455  -0.40244  -0.39991  -0.39101  -0.39048
 Alpha  occ. eigenvalues --   -0.38691  -0.38507  -0.38001  -0.37974  -0.37430
 Alpha  occ. eigenvalues --   -0.37382  -0.36896  -0.36893  -0.36556  -0.36163
 Alpha  occ. eigenvalues --   -0.35652  -0.35618  -0.35152  -0.34798  -0.34795
 Alpha  occ. eigenvalues --   -0.33879  -0.33317  -0.33098  -0.31583  -0.31270
 Alpha  occ. eigenvalues --   -0.31203  -0.30909  -0.30810  -0.30520  -0.29955
 Alpha  occ. eigenvalues --   -0.29653  -0.29561  -0.28364  -0.24475  -0.24094
 Alpha  occ. eigenvalues --   -0.21732  -0.21212
 Alpha virt. eigenvalues --   -0.09679  -0.08663  -0.02245  -0.01972   0.00132
 Alpha virt. eigenvalues --    0.00634   0.00988   0.01716   0.02530   0.02680
 Alpha virt. eigenvalues --    0.04088   0.04557   0.04901   0.04952   0.05900

 Mulliken charges:
               1
     1  Mg   0.824972
     2  C    0.019332
     3  C   -0.076966
     4  C   -0.075325
     5  C   -0.091258
     6  N   -0.272146
     7  C   -0.046298
     8  C    0.019115
     9  C   -0.037945
    10  C    0.011839
    11  C    0.090879
    12  C    0.034500
    13  C   -0.113673
    14  H    0.011956
    15  N   -0.363515
    16  C    0.155785
    17  C   -0.164917
    18  C   -0.053231
    19  C    0.113978
    20  C    0.136385
    21  C   -0.034861
    22  O   -0.178693
    23  C    0.046385
    24  N   -0.288420
    25  C    0.057815
    26  C   -0.083510
    27  C   -0.035974
    28  C    0.048055
    29  C    0.096426
    30  C    0.030965
    31  C    0.010222
    32  N   -0.351641
    33  C    0.123536
    34  C   -0.172827
    35  C    0.107922
    36  C    0.078484
    37  C    0.118781
    38  C   -0.023662
    39  O   -0.180939
    40  C   -0.040747
    41  C    0.244516
    42  O   -0.225267
    43  O   -0.349245
    44  C    0.180467
    45  H   -0.016067
    46  H   -0.017621
    47  H   -0.037879
    48  H    0.015016
    49  H    0.022360
    50  H    0.014219
    51  H    0.019014
    52  H    0.005483
    53  H    0.034703
    54  H    0.020732
    55  H    0.042983
    56  H    0.033997
    57  H    0.010769
    58  H    0.039542
    59  H    0.029654
    60  H    0.015077
    61  H    0.049014
    62  H    0.031116
    63  H    0.029331
    64  H    0.016133
    65  H    0.016709
    66  H    0.016752
    67  H    0.012744
    68  H    0.006071
    69  H    0.002123
    70  H    0.033173
    71  H    0.005107
    72  H    0.010963
    73  H    0.037305
    74  H    0.037071
    75  H    0.010960
    76  H    0.037026
    77  H    0.035827
    78  H    0.037914
    79  H    0.041424
    80  Mg   0.819782
    81  C   -0.024971
    82  C   -0.097589
    83  C   -0.086978
    84  C   -0.094196
    85  N   -0.283861
    86  C   -0.029997
    87  C   -0.040875
    88  C    0.001991
    89  C    0.000858
    90  C    0.064166
    91  C    0.029219
    92  C   -0.076375
    93  H    0.023203
    94  N   -0.359607
    95  C    0.166997
    96  C   -0.136594
    97  C   -0.064259
    98  C    0.184922
    99  C    0.126747
   100  C    0.000329
   101  O   -0.204519
   102  C    0.054785
   103  N   -0.295319
   104  C   -0.001597
   105  C   -0.034007
   106  C   -0.063445
   107  C    0.012416
   108  C    0.107198
   109  C    0.036509
   110  C    0.030425
   111  N   -0.342670
   112  C    0.151473
   113  C   -0.189605
   114  C   -0.004833
   115  C    0.088698
   116  C    0.130654
   117  C    0.030280
   118  O   -0.149175
   119  C    0.028509
   120  C    0.222581
   121  O   -0.208318
   122  O   -0.379728
   123  C    0.180157
   124  H   -0.029633
   125  H   -0.042317
   126  H   -0.043973
   127  H    0.010519
   128  H    0.006346
   129  H    0.011241
   130  H    0.026796
   131  H    0.022157
   132  H    0.028665
   133  H    0.010461
   134  H    0.047601
   135  H    0.030611
   136  H    0.035828
   137  H    0.016232
   138  H    0.041137
   139  H    0.048734
   140  H    0.044986
   141  H    0.024317
   142  H    0.004673
   143  H    0.008068
   144  H    0.019787
   145  H    0.014480
   146  H    0.025111
   147  H    0.015648
   148  H    0.007057
   149  H    0.005823
   150  H    0.014908
   151  H    0.023373
   152  H   -0.003583
   153  H    0.043717
   154  H    0.053190
   155  H    0.038608
   156  H    0.018951
   157  H    0.058650
   158  H    0.038446
 Sum of Mulliken charges =  -0.00000

 Dipole moment (field-independent basis, Debye):
    X=             -0.9437    Y=              2.5080    Z=              5.6856  Tot=              6.2854
 Quadrupole moment (field-independent basis, Debye-Ang):
   XX=            -67.2053   YY=           -566.2911   ZZ=           -494.2425
   XY=            100.0432   XZ=            -38.4048   YZ=              4.0920

 Normal termination of Gaussian 16 at Wed Sep 15 00:58:13 2021.
