 Gaussian 16, Revision A.03,
 Gaussian 16:  ES64L-G16RevA.03 25-Dec-2016

 ----------------------------------------------------------
 #p cam-b3lyp/Def2SVP td=(nstates=5) density=(transition=1)
 ----------------------------------------------------------

 --------------------------------
 TDDFT excited states in gaussian
 --------------------------------
 Symbolic Z-matrix:
 Charge =  0 Multiplicity = 1

                         Standard orientation:
 ---------------------------------------------------------------------
 Center     Atomic      Atomic             Coordinates (Angstroms)
 Number     Number       Type             X           Y           Z
 ---------------------------------------------------------------------
      1         12           0       20.507103   -0.818123   -0.110530
      2          6           0       22.419652    1.989241   -0.411388
      3          6           0       17.933125    1.184219    1.260303
      4          6           0       18.685101   -3.577603    0.417500
      5          6           0       23.051178   -2.650199   -1.514080
      6          7           0       20.311384    1.257468    0.659662
      7          6           0       21.220464    2.260778    0.300496
      8          6           0       20.752103    3.666163    0.773241
      9          6           0       19.360965    3.278945    1.341566
     10          6           0       19.190496    1.783987    1.140640
     11          6           0       18.918943    3.690024    2.810460
     12          6           0       20.666368    4.804184   -0.336763
     13          6           0       20.153433    6.147624    0.247661
     14          1           0       21.242998    7.215601    0.353102
     15          7           0       18.508844   -1.140346    0.700836
     16          6           0       17.577868   -0.159744    0.968103
     17          6           0       16.394330   -0.860527    1.452400
     18          6           0       16.630905   -2.251567    1.207890
     19          6           0       17.970935   -2.393864    0.732146
     20          6           0       15.227070   -0.113597    1.972224
     21          6           0       15.604246   -3.374583    1.589192
     22          8           0       15.876610   -4.592231    1.580233
     23          6           0       14.225784   -3.001714    2.069087
     24          7           0       20.814320   -2.719977   -0.445436
     25          6           0       19.895188   -3.760118   -0.130660
     26          6           0       20.553560   -5.116442   -0.243886
     27          6           0       21.655130   -4.789522   -1.250293
     28          6           0       21.849487   -3.284964   -1.126809
     29          6           0       21.111136   -5.641745    1.121551
     30          6           0       21.244995   -5.098330   -2.707589
     31          6           0       21.443184   -6.496951   -3.227269
     32          7           0       22.419728   -0.513285   -0.817256
     33          6           0       23.282712   -1.289118   -1.492858
     34          6           0       24.454153   -0.528696   -1.814303
     35          6           0       24.174290    0.767566   -1.437203
     36          6           0       22.892265    0.741998   -0.866497
     37          6           0       25.625181   -1.119861   -2.518686
     38          6           0       24.699149    2.066004   -1.425829
     39          8           0       25.744286    2.520132   -1.849899
     40          6           0       23.551915    2.947576   -0.741559
     41          6           0       24.144199    3.629368    0.440637
     42          8           0       24.530788    3.114879    1.461730
     43          8           0       24.074992    4.958266    0.317689
     44          6           0       24.599041    5.768981    1.483611
     45          1           0       17.137121    1.883081    1.525133
     46          1           0       18.100070   -4.485503    0.577454
     47          1           0       23.848090   -3.137051   -2.079458
     48          1           0       21.406003    3.993148    1.581757
     49          1           0       18.580607    3.704745    0.710114
     50          1           0       17.870944    3.960770    2.941622
     51          1           0       19.639482    4.392640    3.229471
     52          1           0       18.995139    2.761867    3.376711
     53          1           0       20.033427    4.358751   -1.103293
     54          1           0       21.660437    4.938860   -0.762934
     55          1           0       19.617363    5.967066    1.179397
     56          1           0       19.431431    6.538740   -0.468565
     57          1           0       15.158806   -0.303825    3.043494
     58          1           0       14.387129   -0.399590    1.339110
     59          1           0       15.343366    0.956206    1.798137
     60          1           0       13.632756   -3.902284    2.228465
     61          1           0       13.772177   -2.516574    1.203716
     62          1           0       14.163577   -2.345919    2.937118
     63          1           0       19.853439   -5.864513   -0.616832
     64          1           0       22.599840   -5.288745   -1.035863
     65          1           0       22.017614   -5.109052    1.406375
     66          1           0       21.299774   -6.714171    1.065670
     67          1           0       20.313489   -5.467848    1.842942
     68          1           0       21.698802   -4.419734   -3.428738
     69          1           0       20.196095   -4.838741   -2.851532
     70          1           0       20.459210   -6.860653   -3.521891
     71          1           0       21.692092   -7.058706   -2.326816
     72          1           0       22.215604   -6.592384   -3.990567
     73          1           0       25.568989   -0.912615   -3.586619
     74          1           0       25.883575   -2.159274   -2.313995
     75          1           0       26.484388   -0.553089   -2.159613
     76          1           0       23.212726    3.687809   -1.466566
     77          1           0       24.122962    5.376374    2.382385
     78          1           0       24.332527    6.824738    1.427637
     79          1           0       25.680673    5.637131    1.519295
     80         12           0      -21.061040   -0.575555   -0.037905
     81          6           0      -20.065935    2.866756   -0.624623
     82          6           0      -20.482740    0.061703    3.221598
     83          6           0      -21.882058   -3.623817    0.448731
     84          6           0      -21.262609   -1.033035   -3.543180
     85          7           0      -20.348560    1.375198    1.182947
     86          6           0      -20.112255    2.619913    0.733839
     87          6           0      -19.910890    3.584432    1.918208
     88          6           0      -19.609198    2.479065    3.034308
     89          6           0      -20.225201    1.260616    2.487057
     90          6           0      -18.211222    2.414094    3.626263
     91          6           0      -21.190860    4.418497    2.099665
     92          6           0      -20.926433    5.791548    2.784826
     93          1           0      -19.462126    6.398237    2.991337
     94          7           0      -21.224027   -1.676081    1.644046
     95          6           0      -20.860291   -1.286004    2.918674
     96          6           0      -21.032437   -2.432881    3.805166
     97          6           0      -21.518574   -3.505013    3.016868
     98          6           0      -21.547945   -2.940162    1.637964
     99          6           0      -20.734659   -2.420570    5.238388
    100          6           0      -21.980320   -4.992063    3.454514
    101          8           0      -22.535504   -5.728933    2.686273
    102          6           0      -22.009507   -5.422867    4.931945
    103          7           0      -21.243231   -2.170288   -1.398797
    104          6           0      -21.747155   -3.305724   -0.921998
    105          6           0      -22.132026   -4.306718   -1.978008
    106          6           0      -22.305069   -3.341397   -3.176045
    107          6           0      -21.399968   -2.153301   -2.700250
    108          6           0      -21.018621   -5.417360   -2.269431
    109          6           0      -23.795151   -2.934305   -3.536881
    110          6           0      -24.962124   -3.921899   -3.244726
    111          7           0      -20.641827    0.574247   -1.745274
    112          6           0      -20.813517    0.323412   -3.066773
    113          6           0      -20.627637    1.466172   -3.840502
    114          6           0      -20.292738    2.429415   -2.932166
    115          6           0      -20.322830    1.891380   -1.660761
    116          6           0      -20.836168    1.574259   -5.348545
    117          6           0      -19.959097    3.860047   -2.863544
    118          8           0      -19.669026    4.690421   -3.711706
    119          6           0      -19.883995    4.181284   -1.307176
    120          6           0      -18.618634    4.850580   -1.061244
    121          8           0      -17.503874    4.325315   -0.978061
    122          8           0      -18.841735    6.173862   -1.202581
    123          6           0      -17.613266    6.931650   -1.359760
    124          1           0      -20.121167    0.219710    4.239884
    125          1           0      -22.118878   -4.670197    0.649598
    126          1           0      -21.431426   -1.198159   -4.609165
    127          1           0      -19.004729    4.179107    1.802053
    128          1           0      -20.214586    2.760939    3.894709
    129          1           0      -18.195943    2.707943    4.675360
    130          1           0      -17.535871    3.062940    3.068907
    131          1           0      -17.736592    1.436649    3.539770
    132          1           0      -21.826947    3.883626    2.805288
    133          1           0      -21.775871    4.539052    1.188078
    134          1           0      -21.465996    5.882440    3.728087
    135          1           0      -21.571253    6.452856    2.206220
    136          1           0      -20.777670   -1.413145    5.651784
    137          1           0      -19.731857   -2.839821    5.322132
    138          1           0      -21.424597   -3.011496    5.841192
    139          1           0      -22.737548   -4.880044    5.534725
    140          1           0      -20.966838   -5.379984    5.247513
    141          1           0      -22.223481   -6.489730    5.001269
    142          1           0      -23.029988   -4.761815   -1.560778
    143          1           0      -21.879242   -3.728230   -4.101539
    144          1           0      -21.619003   -6.326675   -2.285768
    145          1           0      -20.254953   -5.504066   -1.495721
    146          1           0      -20.510886   -5.338876   -3.229999
    147          1           0      -23.828021   -2.631792   -4.582582
    148          1           0      -23.955470   -2.123669   -2.825834
    149          1           0      -25.320815   -3.794289   -2.223663
    150          1           0      -24.534765   -4.893424   -3.495372
    151          1           0      -25.792733   -3.794949   -3.938178
    152          1           0      -21.604883    0.833637   -5.570398
    153          1           0      -19.960428    1.279545   -5.926015
    154          1           0      -21.161178    2.589451   -5.575548
    155          1           0      -20.724723    4.841383   -1.090078
    156          1           0      -17.778470    7.999788   -1.497875
    157          1           0      -16.874808    6.527114   -2.052150
    158          1           0      -17.044998    6.929266   -0.428978
 ---------------------------------------------------------------------

 SCF Done:  E(RCAM-B3LYP) =  -4069.80911933     A.U. after   18 cycles

 Excitation energies and oscillator strengths:

 Excited State   1:      Singlet-A      1.6534 eV  749.87 nm  f=0.3912  <S**2>=0.000
     309 -> 315       -0.16013
     312 -> 313        0.69080
     309 <- 315       -0.10388
 This state for optimization and/or second-order correction.
 Total Energy, E(TD-HF/TD-DFT) =  -4069.74835769
 Copying the excited state density for this state as the 1-particle RhoCI density.

 Excited State   2:      Singlet-A      1.8347 eV  675.78 nm  f=0.3715  <S**2>=0.000
     310 -> 316       -0.18806
     311 -> 314        0.68158
     310 <- 316       -0.10395

 Excited State   3:      Singlet-A      2.2402 eV  553.45 nm  f=0.1544  <S**2>=0.000
     310 -> 314        0.65515
     311 -> 316        0.25326

 Excited State   4:      Singlet-A      2.2510 eV  550.79 nm  f=0.1104  <S**2>=0.000
     309 -> 313        0.63835
     312 -> 315        0.28832

 Excited State   5:      Singlet-A      3.1248 eV  396.78 nm  f=0.0000  <S**2>=0.000
     311 -> 313        0.70710

 The electronic state is 1-A.
 Alpha  occ. eigenvalues --  -46.89378 -46.87503 -19.24917 -19.24911 -19.20540
 Alpha  occ. eigenvalues --  -19.19376 -19.18877 -19.18782 -19.18740 -19.18553
 Alpha  occ. eigenvalues --  -14.42720 -14.41741 -14.41497 -14.41145 -14.39969
 Alpha  occ. eigenvalues --  -14.38866 -14.38851 -14.38660 -10.38529 -10.38232
 Alpha  occ. eigenvalues --  -10.36992 -10.35213 -10.34941 -10.34833 -10.32293
 Alpha  occ. eigenvalues --  -10.32054 -10.31358 -10.31264 -10.30812 -10.30749
 Alpha  occ. eigenvalues --  -10.30637 -10.30565 -10.30549 -10.30011 -10.29617
 Alpha  occ. eigenvalues --  -10.29603 -10.29562 -10.29470 -10.29443 -10.29267
 Alpha  occ. eigenvalues --  -10.29221 -10.28993 -10.28981 -10.28601 -10.28516
 Alpha  occ. eigenvalues --  -10.28480 -10.28425 -10.28097 -10.28058 -10.27984
 Alpha  occ. eigenvalues --  -10.27852 -10.27788 -10.27757 -10.27722 -10.27541
 Alpha  occ. eigenvalues --  -10.27523 -10.27500 -10.27456 -10.27383 -10.27369
 Alpha  occ. eigenvalues --  -10.27367 -10.27310 -10.27277 -10.27145 -10.27135
 Alpha  occ. eigenvalues --  -10.27118 -10.26763 -10.26671 -10.26532 -10.26516
 Alpha  occ. eigenvalues --  -10.26352 -10.26227 -10.26166 -10.26102 -10.26003
 Alpha  occ. eigenvalues --  -10.25832 -10.25739 -10.25577 -10.25553 -10.25527
 Alpha  occ. eigenvalues --  -10.25485 -10.25384 -10.25239 -10.25100 -10.25017
 Alpha  occ. eigenvalues --  -10.23735  -3.17878  -3.16283  -1.92780  -1.92352
 Alpha  occ. eigenvalues --   -1.92163  -1.91185  -1.90754  -1.90581  -1.16913
 Alpha  occ. eigenvalues --   -1.16503  -1.12622  -1.10439  -1.09469  -1.08279
 Alpha  occ. eigenvalues --   -1.07143  -1.06652  -1.05798  -1.05441  -1.05218
 Alpha  occ. eigenvalues --   -1.04651  -1.03923  -1.03428  -1.03101  -1.01961
 Alpha  occ. eigenvalues --   -0.93335  -0.92360  -0.89184  -0.89084  -0.88780
 Alpha  occ. eigenvalues --   -0.88762  -0.88662  -0.88120  -0.87907  -0.87537
 Alpha  occ. eigenvalues --   -0.87173  -0.86918  -0.86569  -0.85603  -0.84386
 Alpha  occ. eigenvalues --   -0.84328  -0.83970  -0.83120  -0.82530  -0.82395
 Alpha  occ. eigenvalues --   -0.81953  -0.81582  -0.81215  -0.80744  -0.80637
 Alpha  occ. eigenvalues --   -0.80109  -0.78619  -0.78387  -0.77557  -0.77218
 Alpha  occ. eigenvalues --   -0.76854  -0.76651  -0.76213  -0.75727  -0.75276
 Alpha  occ. eigenvalues --   -0.75204  -0.73221  -0.72770  -0.71811  -0.71676
 Alpha  occ. eigenvalues --   -0.69675  -0.69447  -0.68957  -0.68776  -0.68318
 Alpha  occ. eigenvalues --   -0.67593  -0.66783  -0.66082  -0.65800  -0.65459
 Alpha  occ. eigenvalues --   -0.65085  -0.64955  -0.64680  -0.64624  -0.64187
 Alpha  occ. eigenvalues --   -0.63698  -0.62085  -0.61821  -0.60826  -0.60253
 Alpha  occ. eigenvalues --   -0.59993  -0.59521  -0.59256  -0.59118  -0.58882
 Alpha  occ. eigenvalues --   -0.58420  -0.58327  -0.58020  -0.57933  -0.57492
 Alpha  occ. eigenvalues --   -0.56552  -0.56551  -0.56084  -0.55493  -0.55202
 Alpha  occ. eigenvalues --   -0.55025  -0.54757  -0.54638  -0.54249  -0.54058
 Alpha  occ. eigenvalues --   -0.53798  -0.53625  -0.53466  -0.53352  -0.52971
 Alpha  occ. eigenvalues --   -0.52937  -0.52886  -0.52716  -0.52288  -0.52287
 Alpha  occ. eigenvalues --   -0.51765  -0.51688  -0.51670  -0.51328  -0.51306
 Alpha  occ. eigenvalues --   -0.51171  -0.50669  -0.50476  -0.50373  -0.50252
 Alpha  occ. eigenvalues --   -0.50050  -0.49985  -0.49904  -0.49734  -0.49724
 Alpha  occ. eigenvalues --   -0.49275  -0.49097  -0.48946  -0.48931  -0.48782
 Alpha  occ. eigenvalues --   -0.48762  -0.48627  -0.48310  -0.48262  -0.48084
 Alpha  occ. eigenvalues --   -0.47919  -0.47743  -0.47518  -0.47501  -0.47407
 Alpha  occ. eigenvalues --   -0.47122  -0.47061  -0.46928  -0.46749  -0.46521
 Alpha  occ. eigenvalues --   -0.46457  -0.46221  -0.46034  -0.45855  -0.45773
 Alpha  occ. eigenvalues --   -0.45500  -0.45450  -0.45275  -0.44949  -0.44696
 Alpha  occ. eigenvalues --   -0.44661  -0.44388  -0.44338  -0.44228  -0.44076
 Alpha  occ. eigenvalues --   -0.43914  -0.43819  -0.43753  -0.43715  -0.43556
 Alpha  occ. eigenvalues --   -0.43337  -0.43321  -0.43268  -0.42977  -0.42848
 Alpha  occ. eigenvalues --   -0.42671  -0.42493  -0.42272  -0.42090  -0.42006
 Alpha  occ. eigenvalues --   -0.41809  -0.41628  -0.41554  -0.41432  -0.41368
 Alpha  occ. eigenvalues --   -0.41125  -0.40879  -0.40640  -0.40416  -0.40413
 Alpha  occ. eigenvalues --   -0.40044  -0.39822  -0.39748  -0.39349  -0.38620
 Alpha  occ. eigenvalues --   -0.38440  -0.38267  -0.38097  -0.38061  -0.37478
 Alpha  occ. eigenvalues --   -0.37462  -0.36935  -0.36665  -0.36615  -0.36568
 Alpha  occ. eigenvalues --   -0.35941  -0.35663  -0.34218  -0.34186  -0.34010
 Alpha  occ. eigenvalues --   -0.33741  -0.33278  -0.32495  -0.31943  -0.31538
 Alpha  occ. eigenvalues --   -0.31461  -0.31246  -0.30651  -0.30623  -0.30477
 Alpha  occ. eigenvalues --   -0.30383  -0.29492  -0.29097  -0.24608  -0.23390
 Alpha  occ. eigenvalues --   -0.21381  -0.21116
 Alpha virt. eigenvalues --   -0.09070  -0.08270  -0.01546  -0.01093   0.00407
 Alpha virt. eigenvalues --    0.00552   0.02358   0.02407   0.02727   0.03413
 Alpha virt. eigenvalues --    0.04185   0.04658   0.05364   0.05702   0.05867

 Mulliken charges:
               1
     1  Mg  11.998563
     2  C    5.966661
     3  C    5.999376
     4  C    6.037208
     5  C    6.009178
     6  N    6.986506
     7  C    6.047328
     8  C    5.982206
     9  C    6.007076
    10  C    5.975449
    11  C    6.005090
    12  C    5.997477
    13  C    6.001911
    14  H    0.996117
    15  N    7.009339
    16  C    5.957515
    17  C    5.974948
    18  C    5.992083
    19  C    5.946664
    20  C    6.007045
    21  C    5.986299
    22  O    7.973707
    23  C    6.006543
    24  N    7.019361
    25  C    5.956402
    26  C    6.009005
    27  C    5.995098
    28  C    6.020887
    29  C    6.001586
    30  C    5.991313
    31  C    5.998881
    32  N    6.992732
    33  C    6.029358
    34  C    6.036267
    35  C    5.998745
    36  C    6.039999
    37  C    5.993654
    38  C    6.013594
    39  O    8.027199
    40  C    6.003789
    41  C    6.001524
    42  O    8.003792
    43  O    8.001718
    44  C    5.998544
    45  H    0.981609
    46  H    0.996584
    47  H    1.015253
    48  H    1.003302
    49  H    0.999182
    50  H    0.999877
    51  H    0.983997
    52  H    1.002165
    53  H    1.005922
    54  H    0.992656
    55  H    1.007971
    56  H    1.002822
    57  H    0.979060
    58  H    0.980210
    59  H    0.982323
    60  H    0.984789
    61  H    0.994002
    62  H    0.994212
    63  H    1.001536
    64  H    1.001482
    65  H    0.986365
    66  H    0.993759
    67  H    1.007893
    68  H    0.994856
    69  H    1.016995
    70  H    1.007924
    71  H    1.005061
    72  H    0.999409
    73  H    1.024509
    74  H    1.019923
    75  H    1.018213
    76  H    1.007560
    77  H    1.005211
    78  H    1.005366
    79  H    1.000264
    80  Mg  12.000015
    81  C    5.999977
    82  C    5.999954
    83  C    6.000003
    84  C    6.000012
    85  N    7.000024
    86  C    6.000022
    87  C    6.000016
    88  C    5.999987
    89  C    6.000024
    90  C    5.999967
    91  C    6.000019
    92  C    6.000013
    93  H    1.000087
    94  N    6.999991
    95  C    6.000082
    96  C    5.999976
    97  C    6.000014
    98  C    5.999992
    99  C    6.000001
   100  C    6.000041
   101  O    7.999976
   102  C    5.999985
   103  N    6.999987
   104  C    6.000009
   105  C    5.999981
   106  C    6.000016
   107  C    6.000000
   108  C    6.000002
   109  C    6.000021
   110  C    6.000009
   111  N    7.000020
   112  C    5.999972
   113  C    5.999999
   114  C    6.000007
   115  C    6.000020
   116  C    6.000005
   117  C    5.999960
   118  O    7.999980
   119  C    5.999997
   120  C    6.000010
   121  O    8.000080
   122  O    7.999962
   123  C    5.999967
   124  H    1.000076
   125  H    0.999966
   126  H    0.999942
   127  H    1.000049
   128  H    0.999973
   129  H    1.000029
   130  H    1.000086
   131  H    1.000081
   132  H    0.999952
   133  H    0.999955
   134  H    0.999956
   135  H    0.999937
   136  H    0.999999
   137  H    1.000103
   138  H    0.999979
   139  H    0.999956
   140  H    1.000075
   141  H    0.999983
   142  H    0.999952
   143  H    0.999988
   144  H    0.999955
   145  H    1.000069
   146  H    1.000022
   147  H    0.999962
   148  H    0.999993
   149  H    0.999981
   150  H    0.999992
   151  H    0.999915
   152  H    0.999934
   153  H    1.000010
   154  H    0.999939
   155  H    0.999945
   156  H    0.999946
   157  H    1.000060
   158  H    1.000060
 Sum of Mulliken charges = 624.00000

 Dipole moment (field-independent basis, Debye):
    X=             10.2321    Y=              0.9864    Z=             -4.3727  Tot=             11.1710
 Quadrupole moment (field-independent basis, Debye-Ang):
   XX=            415.9065   YY=              0.9553   ZZ=              1.7919
   XY=             13.3249   XZ=            -90.9504   YZ=              4.7066

 Normal termination of Gaussian 16 at Thu Sep 23 01:01:32 2021.
