 Gaussian 16, Revision A.03,
 Gaussian 16:  ES64L-G16RevA.03 25-Dec-2016

 -----------------------------------
 #p cam-b3lyp/Def2SVP td=(nstates=5)
 -----------------------------------

 --------------------------------
 TDDFT excited states in gaussian
 --------------------------------
 Symbolic Z-matrix:
 Charge =  0 Multiplicity = 1

                         Standard orientation:
 ---------------------------------------------------------------------
 Center     Atomic      Atomic             Coordinates (Angstroms)
 Number     Number       Type             X           Y           Z
 ---------------------------------------------------------------------
      1         12           0      -19.794813    0.680465    0.503381
      2          6           0      -18.872977   -2.263657   -1.321988
      3          6           0      -20.841859   -1.228892    2.960947
      4          6           0      -21.288888    3.411226    1.641412
      5          6           0      -18.896484    2.539716   -2.540454
      6          7           0      -19.800676   -1.499864    0.790464
      7          6           0      -19.414345   -2.540911   -0.077013
      8          6           0      -19.628444   -3.981565    0.523664
      9          6           0      -20.229796   -3.531784    1.992576
     10          6           0      -20.297904   -2.008179    1.961117
     11          6           0      -21.665556   -4.152220    2.272055
     12          6           0      -18.359676   -4.902952    0.558745
     13          6           0      -18.441910   -6.108671    1.487256
     14          1           0      -18.443860   -7.472009    0.771793
     15          7           0      -20.832476    1.054267    2.144405
     16          6           0      -21.191895    0.162118    3.127158
     17          6           0      -21.905821    0.797077    4.214806
     18          6           0      -22.011426    2.182857    3.797569
     19          6           0      -21.280774    2.265880    2.482938
     20          6           0      -22.335877    0.174364    5.458855
     21          6           0      -22.646121    3.368996    4.502632
     22          8           0      -22.570628    4.500918    4.114338
     23          6           0      -23.474461    3.014515    5.708926
     24          7           0      -20.112779    2.685327   -0.362388
     25          6           0      -20.749311    3.633908    0.369816
     26          6           0      -20.734303    5.003067   -0.361134
     27          6           0      -19.846559    4.702010   -1.618437
     28          6           0      -19.545646    3.221114   -1.490421
     29          6           0      -22.107880    5.654166   -0.740545
     30          6           0      -18.515172    5.524385   -1.738130
     31          6           0      -18.732572    6.972990   -2.228523
     32          7           0      -19.074706    0.307336   -1.507339
     33          6           0      -18.699790    1.123052   -2.549957
     34          6           0      -18.124945    0.333622   -3.565405
     35          6           0      -18.204429   -0.958067   -3.201037
     36          6           0      -18.823042   -0.974294   -1.914236
     37          6           0      -17.484308    0.969761   -4.792127
     38          6           0      -17.996299   -2.369572   -3.539580
     39          8           0      -17.545882   -2.878110   -4.533627
     40          6           0      -18.463333   -3.268894   -2.297804
     41          6           0      -19.686903   -4.014277   -2.726341
     42          8           0      -20.859883   -3.716074   -2.711221
     43          8           0      -19.217747   -5.243783   -3.144471
     44          6           0      -20.224785   -6.223971   -3.616013
     45          1           0      -21.264683   -1.779585    3.803666
     46          1           0      -21.923137    4.227099    1.996346
     47          1           0      -18.583020    3.245192   -3.313455
     48          1           0      -20.457426   -4.442914   -0.013291
     49          1           0      -19.563218   -3.924875    2.760560
     50          1           0      -21.702492   -4.530101    3.293673
     51          1           0      -22.050893   -4.919654    1.601273
     52          1           0      -22.418587   -3.365002    2.291842
     53          1           0      -17.602489   -4.163236    0.821967
     54          1           0      -17.969524   -5.285080   -0.384834
     55          1           0      -19.355169   -6.040449    2.077690
     56          1           0      -17.524301   -6.159281    2.072721
     57          1           0      -21.701051    0.720491    6.156560
     58          1           0      -22.174381   -0.903470    5.435834
     59          1           0      -23.368344    0.321713    5.775068
     60          1           0      -22.858121    3.093055    6.604402
     61          1           0      -24.168157    2.191047    5.536799
     62          1           0      -24.289629    3.736013    5.661497
     63          1           0      -20.064110    5.628387    0.229465
     64          1           0      -20.469195    4.756126   -2.511740
     65          1           0      -22.272193    5.853255   -1.799935
     66          1           0      -22.072447    6.657683   -0.317104
     67          1           0      -22.991314    5.110788   -0.405324
     68          1           0      -17.858300    5.041643   -2.460852
     69          1           0      -18.058552    5.461173   -0.749424
     70          1           0      -19.682634    7.057512   -2.756458
     71          1           0      -17.869132    7.207708   -2.850890
     72          1           0      -18.812007    7.708674   -1.427615
     73          1           0      -16.711007    0.326106   -5.211574
     74          1           0      -17.090724    1.947519   -4.514125
     75          1           0      -18.245398    1.214805   -5.533267
     76          1           0      -17.669276   -3.935922   -1.961333
     77          1           0      -19.771628   -6.713770   -4.477808
     78          1           0      -21.179495   -5.783954   -3.903751
     79          1           0      -20.274098   -6.861131   -2.732463
     80         12           0       20.449317    0.662056   -0.037400
     81          6           0       18.280850   -2.217435   -0.164280
     82          6           0       22.875728   -1.453522    1.353350
     83          6           0       22.479678    3.242237   -0.023276
     84          6           0       17.795412    2.652497   -1.140151
     85          7           0       20.499475   -1.626322    0.543724
     86          6           0       19.611368   -2.598555    0.207154
     87          6           0       20.196272   -3.990248    0.384701
     88          6           0       21.573650   -3.733917    1.216718
     89          6           0       21.655538   -2.187940    1.059921
     90          6           0       21.576155   -4.285630    2.664406
     91          6           0       20.418801   -4.731059   -0.977011
     92          6           0       19.694329   -6.098521   -1.076323
     93          1           0       20.710387   -7.373549   -1.212069
     94          7           0       22.349276    0.856685    0.555493
     95          6           0       23.243928   -0.096953    1.149066
     96          6           0       24.585590    0.459019    1.444627
     97          6           0       24.446833    1.806957    0.977371
     98          6           0       23.074261    2.006142    0.482645
     99          6           0       25.730761   -0.312997    2.103072
    100          6           0       25.432150    2.910926    1.045445
    101          8           0       25.361294    3.970477    0.432186
    102          6           0       26.729624    2.670484    1.841975
    103          7           0       20.209364    2.580718   -0.670804
    104          6           0       21.198225    3.493785   -0.536662
    105          6           0       20.731415    4.903604   -0.770807
    106          6           0       19.244992    4.753113   -1.178129
    107          6           0       19.048632    3.225411   -1.053051
    108          6           0       21.005744    5.860229    0.370572
    109          6           0       19.015595    5.251990   -2.723951
    110          6           0       17.857333    6.370320   -2.938510
    111          7           0       18.359348    0.375150   -0.303652
    112          6           0       17.435473    1.302163   -0.843418
    113          6           0       16.166320    0.595883   -1.052130
    114          6           0       16.528066   -0.771193   -0.925932
    115          6           0       17.803784   -0.837769   -0.363717
    116          6           0       14.785914    1.144215   -1.400907
    117          6           0       15.911417   -2.127184   -0.883470
    118          8           0       14.751444   -2.593545   -1.057867
    119          6           0       17.094775   -3.099246   -0.504457
    120          6           0       16.660506   -3.946306    0.655173
    121          8           0       16.084314   -3.527870    1.619178
    122          8           0       16.916298   -5.261293    0.381633
    123          6           0       16.216862   -6.182057    1.313050
    124          1           0       23.543596   -2.118781    1.904190
    125          1           0       23.103520    4.138642   -0.041282
    126          1           0       16.962684    3.246986   -1.521104
    127          1           0       19.505948   -4.523893    1.038033
    128          1           0       22.451354   -4.126036    0.702228
    129          1           0       21.630053   -3.473139    3.389606
    130          1           0       22.413633   -4.969123    2.810222
    131          1           0       20.736030   -4.927085    2.930646
    132          1           0       21.474768   -4.932592   -1.158927
    133          1           0       20.052389   -4.143078   -1.818932
    134          1           0       19.142610   -6.223894   -2.008347
    135          1           0       18.946322   -6.285047   -0.306383
    136          1           0       25.663143   -1.401343    2.097553
    137          1           0       25.974039   -0.012973    3.122288
    138          1           0       26.611188   -0.061407    1.510899
    139          1           0       26.501254    2.479014    2.890408
    140          1           0       27.439416    3.491651    1.736516
    141          1           0       27.215594    1.787718    1.426487
    142          1           0       21.335708    5.326842   -1.574319
    143          1           0       18.588199    5.263311   -0.474173
    144          1           0       21.801783    6.574280    0.157719
    145          1           0       21.363475    5.394358    1.288702
    146          1           0       20.073652    6.373872    0.607014
    147          1           0       18.771798    4.447671   -3.417256
    148          1           0       19.909842    5.702798   -3.153485
    149          1           0       17.723288    6.838820   -1.963303
    150          1           0       16.926825    5.927900   -3.296582
    151          1           0       18.207489    7.189355   -3.566200
    152          1           0       14.206970    0.447106   -2.006370
    153          1           0       14.934462    1.989609   -2.073735
    154          1           0       14.400220    1.484756   -0.439876
    155          1           0       17.191690   -3.783255   -1.347188
    156          1           0       16.485343   -5.883352    2.326177
    157          1           0       16.702678   -7.140565    1.131101
    158          1           0       15.128205   -6.232382    1.295194
 ---------------------------------------------------------------------

 SCF Done:  E(RCAM-B3LYP) =  -4069.81101053     A.U. after   18 cycles

 Excitation energies and oscillator strengths:

 Excited State   1:      Singlet-A      1.6721 eV  741.47 nm  f=0.3755  <S**2>=0.000
     309 -> 315        0.18795
     311 -> 313        0.68407
     309 <- 315        0.11179
 This state for optimization and/or second-order correction.
 Total Energy, E(TD-HF/TD-DFT) =  -4069.74956045
 Copying the excited state density for this state as the 1-particle RhoCI density.

 Excited State   2:      Singlet-A      1.6973 eV  730.48 nm  f=0.3946  <S**2>=0.000
     310 -> 316        0.17768
     312 -> 314        0.68616
     310 <- 316        0.10761

 Excited State   3:      Singlet-A      2.1741 eV  570.29 nm  f=0.1326  <S**2>=0.000
     309 -> 313        0.64727
     311 -> 315       -0.27762

 Excited State   4:      Singlet-A      2.2114 eV  560.67 nm  f=0.1395  <S**2>=0.000
     310 -> 314        0.65075
     312 -> 316       -0.26504

 Excited State   5:      Singlet-A      3.0204 eV  410.49 nm  f=0.0000  <S**2>=0.000
     312 -> 313        0.70710

 The electronic state is 1-A.
 Alpha  occ. eigenvalues --  -46.88536 -46.88530 -19.25646 -19.23807 -19.19887
 Alpha  occ. eigenvalues --  -19.19745 -19.19074 -19.18953 -19.18916 -19.18684
 Alpha  occ. eigenvalues --  -14.42607 -14.42155 -14.41935 -14.41287 -14.40716
 Alpha  occ. eigenvalues --  -14.39593 -14.39250 -14.38814 -10.38940 -10.38819
 Alpha  occ. eigenvalues --  -10.35232 -10.35141 -10.35123 -10.34738 -10.31925
 Alpha  occ. eigenvalues --  -10.31828 -10.31577 -10.31488 -10.31289 -10.31170
 Alpha  occ. eigenvalues --  -10.30878 -10.30866 -10.30830 -10.30799 -10.30667
 Alpha  occ. eigenvalues --  -10.30333 -10.30154 -10.30071 -10.30070 -10.29979
 Alpha  occ. eigenvalues --  -10.29343 -10.29099 -10.29055 -10.29040 -10.28994
 Alpha  occ. eigenvalues --  -10.28905 -10.28873 -10.28824 -10.28729 -10.28628
 Alpha  occ. eigenvalues --  -10.28531 -10.28453 -10.28450 -10.28239 -10.28083
 Alpha  occ. eigenvalues --  -10.27961 -10.27829 -10.27714 -10.27634 -10.27327
 Alpha  occ. eigenvalues --  -10.27238 -10.27147 -10.27144 -10.26963 -10.26907
 Alpha  occ. eigenvalues --  -10.26788 -10.26757 -10.26745 -10.26734 -10.26717
 Alpha  occ. eigenvalues --  -10.26705 -10.26671 -10.26595 -10.26124 -10.26121
 Alpha  occ. eigenvalues --  -10.26110 -10.26056 -10.25913 -10.25850 -10.25681
 Alpha  occ. eigenvalues --  -10.25562 -10.25531 -10.25515 -10.25491 -10.25188
 Alpha  occ. eigenvalues --  -10.24672  -3.17174  -3.17079  -1.92071  -1.91975
 Alpha  occ. eigenvalues --   -1.91628  -1.91515  -1.91495  -1.91403  -1.16962
 Alpha  occ. eigenvalues --   -1.15671  -1.11335  -1.10755  -1.09968  -1.08685
 Alpha  occ. eigenvalues --   -1.07432  -1.07064  -1.03999  -1.03773  -1.03267
 Alpha  occ. eigenvalues --   -1.03262  -1.02583  -1.02469  -1.02015  -1.01558
 Alpha  occ. eigenvalues --   -0.92980  -0.91575  -0.88897  -0.88641  -0.88496
 Alpha  occ. eigenvalues --   -0.88216  -0.88127  -0.88087  -0.87413  -0.87113
 Alpha  occ. eigenvalues --   -0.86994  -0.86811  -0.85987  -0.85635  -0.84021
 Alpha  occ. eigenvalues --   -0.83860  -0.83170  -0.83158  -0.82143  -0.82017
 Alpha  occ. eigenvalues --   -0.81816  -0.81393  -0.80675  -0.80675  -0.80042
 Alpha  occ. eigenvalues --   -0.79759  -0.79095  -0.78080  -0.77098  -0.76941
 Alpha  occ. eigenvalues --   -0.76785  -0.76607  -0.76035  -0.75509  -0.75226
 Alpha  occ. eigenvalues --   -0.74785  -0.72736  -0.72556  -0.71419  -0.71288
 Alpha  occ. eigenvalues --   -0.69609  -0.69175  -0.68746  -0.68716  -0.67687
 Alpha  occ. eigenvalues --   -0.67593  -0.67090  -0.66923  -0.65920  -0.65634
 Alpha  occ. eigenvalues --   -0.65010  -0.64575  -0.64386  -0.64379  -0.63996
 Alpha  occ. eigenvalues --   -0.63855  -0.62367  -0.61425  -0.60801  -0.60047
 Alpha  occ. eigenvalues --   -0.59439  -0.59262  -0.58785  -0.58736  -0.58347
 Alpha  occ. eigenvalues --   -0.58297  -0.57957  -0.57809  -0.57137  -0.56839
 Alpha  occ. eigenvalues --   -0.56138  -0.56095  -0.55734  -0.55276  -0.55063
 Alpha  occ. eigenvalues --   -0.54968  -0.54497  -0.54431  -0.54246  -0.54098
 Alpha  occ. eigenvalues --   -0.53778  -0.53625  -0.53394  -0.52667  -0.52625
 Alpha  occ. eigenvalues --   -0.52563  -0.52343  -0.52155  -0.51915  -0.51653
 Alpha  occ. eigenvalues --   -0.51587  -0.51450  -0.51375  -0.51304  -0.50961
 Alpha  occ. eigenvalues --   -0.50847  -0.50507  -0.50460  -0.50156  -0.50063
 Alpha  occ. eigenvalues --   -0.49968  -0.49802  -0.49767  -0.49640  -0.49450
 Alpha  occ. eigenvalues --   -0.49427  -0.49209  -0.49120  -0.48794  -0.48784
 Alpha  occ. eigenvalues --   -0.48372  -0.48244  -0.48113  -0.48006  -0.47935
 Alpha  occ. eigenvalues --   -0.47779  -0.47715  -0.47564  -0.47467  -0.47046
 Alpha  occ. eigenvalues --   -0.47021  -0.46841  -0.46722  -0.46567  -0.46304
 Alpha  occ. eigenvalues --   -0.46201  -0.45944  -0.45857  -0.45709  -0.45573
 Alpha  occ. eigenvalues --   -0.45413  -0.45265  -0.45140  -0.45006  -0.44987
 Alpha  occ. eigenvalues --   -0.44813  -0.44810  -0.44773  -0.44683  -0.44375
 Alpha  occ. eigenvalues --   -0.44098  -0.43945  -0.43882  -0.43786  -0.43779
 Alpha  occ. eigenvalues --   -0.43443  -0.43318  -0.43151  -0.42860  -0.42725
 Alpha  occ. eigenvalues --   -0.42607  -0.42515  -0.42216  -0.42037  -0.42035
 Alpha  occ. eigenvalues --   -0.41782  -0.41585  -0.41543  -0.41311  -0.41083
 Alpha  occ. eigenvalues --   -0.40913  -0.40792  -0.40742  -0.40694  -0.40440
 Alpha  occ. eigenvalues --   -0.40433  -0.40178  -0.39377  -0.39306  -0.38754
 Alpha  occ. eigenvalues --   -0.38598  -0.38232  -0.38069  -0.37719  -0.37488
 Alpha  occ. eigenvalues --   -0.37340  -0.36975  -0.36506  -0.36378  -0.36308
 Alpha  occ. eigenvalues --   -0.35699  -0.35501  -0.34639  -0.34604  -0.34420
 Alpha  occ. eigenvalues --   -0.33903  -0.33018  -0.32557  -0.31633  -0.31279
 Alpha  occ. eigenvalues --   -0.30992  -0.30798  -0.30595  -0.30533  -0.30271
 Alpha  occ. eigenvalues --   -0.30076  -0.29706  -0.29383  -0.23906  -0.23554
 Alpha  occ. eigenvalues --   -0.21305  -0.20926
 Alpha virt. eigenvalues --   -0.08980  -0.08499  -0.01834  -0.01096   0.00132
 Alpha virt. eigenvalues --    0.00915   0.02057   0.02502   0.02710   0.03557
 Alpha virt. eigenvalues --    0.04229   0.04981   0.05216   0.05699   0.05887

 Mulliken charges:
               1
     1  Mg   0.840114
     2  C   -0.023549
     3  C   -0.059927
     4  C   -0.059521
     5  C   -0.088204
     6  N   -0.312885
     7  C   -0.052876
     8  C    0.013273
     9  C   -0.070175
    10  C    0.084891
    11  C    0.032887
    12  C    0.022253
    13  C   -0.067094
    14  H    0.013108
    15  N   -0.403451
    16  C    0.093531
    17  C   -0.114452
    18  C   -0.089699
    19  C    0.139419
    20  C    0.129816
    21  C   -0.007908
    22  O   -0.175167
    23  C    0.037085
    24  N   -0.268484
    25  C    0.008191
    26  C    0.022482
    27  C   -0.064396
    28  C   -0.003248
    29  C    0.067822
    30  C    0.012957
    31  C    0.024886
    32  N   -0.316121
    33  C    0.150925
    34  C   -0.226489
    35  C    0.063325
    36  C    0.099525
    37  C    0.138222
    38  C    0.034491
    39  O   -0.135642
    40  C   -0.039701
    41  C    0.217465
    42  O   -0.203450
    43  O   -0.356802
    44  C    0.167138
    45  H   -0.052246
    46  H   -0.001854
    47  H   -0.022098
    48  H    0.024641
    49  H    0.022152
    50  H    0.009499
    51  H    0.028668
    52  H    0.021713
    53  H    0.009487
    54  H    0.037212
    55  H    0.040092
    56  H    0.040383
    57  H    0.035113
    58  H    0.015702
    59  H    0.025360
    60  H    0.055339
    61  H    0.027302
    62  H    0.014900
    63  H    0.011969
    64  H    0.007763
    65  H    0.012383
    66  H    0.017577
    67  H    0.029855
    68  H    0.004810
    69  H    0.008111
    70  H    0.011312
    71  H    0.020312
    72  H    0.015871
    73  H    0.034578
    74  H    0.007402
    75  H    0.021742
    76  H    0.051862
    77  H    0.045626
    78  H    0.055945
    79  H    0.036946
    80  Mg   0.847841
    81  C   -0.001759
    82  C   -0.070342
    83  C   -0.074614
    84  C   -0.071519
    85  N   -0.234922
    86  C   -0.059627
    87  C   -0.007884
    88  C   -0.060924
    89  C   -0.011741
    90  C    0.063512
    91  C    0.083073
    92  C   -0.087401
    93  H   -0.024406
    94  N   -0.426842
    95  C    0.167406
    96  C   -0.118199
    97  C   -0.023622
    98  C    0.155984
    99  C    0.116655
   100  C   -0.017489
   101  O   -0.205545
   102  C    0.043900
   103  N   -0.341306
   104  C    0.066799
   105  C   -0.028577
   106  C   -0.019890
   107  C    0.079949
   108  C    0.060059
   109  C    0.009268
   110  C   -0.025250
   111  N   -0.337590
   112  C    0.099384
   113  C   -0.169937
   114  C   -0.076874
   115  C    0.107714
   116  C    0.138074
   117  C    0.126519
   118  O   -0.213846
   119  C   -0.017320
   120  C    0.167621
   121  O   -0.184934
   122  O   -0.341775
   123  C    0.175214
   124  H   -0.029248
   125  H   -0.005848
   126  H   -0.030411
   127  H    0.018811
   128  H    0.016872
   129  H    0.026951
   130  H    0.012699
   131  H    0.019564
   132  H    0.025450
   133  H    0.021787
   134  H    0.031710
   135  H    0.040529
   136  H    0.023777
   137  H    0.039959
   138  H    0.023460
   139  H    0.031133
   140  H    0.026920
   141  H    0.018578
   142  H    0.019952
   143  H    0.024838
   144  H    0.017941
   145  H    0.020712
   146  H    0.007133
   147  H    0.019139
   148  H    0.011321
   149  H    0.007525
   150  H    0.031119
   151  H    0.018749
   152  H    0.040505
   153  H    0.005588
   154  H    0.045652
   155  H    0.036823
   156  H    0.033019
   157  H    0.034367
   158  H    0.058087
 Sum of Mulliken charges =  -0.00000

 Dipole moment (field-independent basis, Debye):
    X=              4.2848    Y=             -0.9726    Z=              4.5789  Tot=              6.3460
 Quadrupole moment (field-independent basis, Debye-Ang):
   XX=           -341.1124   YY=           -480.5744   ZZ=           -506.6654
   XY=            -14.5475   XZ=            -36.0856   YZ=            -37.8216

 Normal termination of Gaussian 16 at Wed Sep 15 08:15:54 2021.
