 Gaussian 16, Revision A.03,
 Gaussian 16:  ES64L-G16RevA.03 25-Dec-2016

 ----------------------------------------------------------
 #p cam-b3lyp/Def2SVP td=(nstates=5) density=(transition=1)
 ----------------------------------------------------------

 --------------------------------
 TDDFT excited states in gaussian
 --------------------------------
 Symbolic Z-matrix:
 Charge =  0 Multiplicity = 1

                         Standard orientation:
 ---------------------------------------------------------------------
 Center     Atomic      Atomic             Coordinates (Angstroms)
 Number     Number       Type             X           Y           Z
 ---------------------------------------------------------------------
      1         12           0      -24.318892   -0.867831    0.018785
      2          6           0      -25.657339    2.460607    0.322529
      3          6           0      -22.411312    0.312404   -2.554546
      4          6           0      -23.306378   -4.030592   -0.453680
      5          6           0      -26.649255   -1.904913    2.264899
      6          7           0      -24.036978    1.268115   -0.989142
      7          6           0      -24.679557    2.414259   -0.620524
      8          6           0      -24.050563    3.527715   -1.368802
      9          6           0      -23.104763    2.848055   -2.397341
     10          6           0      -23.171952    1.337362   -2.042706
     11          6           0      -23.571328    3.092850   -3.867664
     12          6           0      -23.359829    4.575940   -0.532820
     13          6           0      -22.896879    5.864709   -1.192891
     14          1           0      -23.274361    7.122827   -0.530641
     15          7           0      -22.972309   -1.704169   -1.227643
     16          6           0      -22.336686   -1.054994   -2.321873
     17          6           0      -21.387872   -2.029440   -2.892681
     18          6           0      -21.728619   -3.261778   -2.341196
     19          6           0      -22.770054   -3.039360   -1.321834
     20          6           0      -20.432883   -1.638551   -4.001149
     21          6           0      -21.123338   -4.658208   -2.601079
     22          8           0      -21.644791   -5.725601   -2.227607
     23          6           0      -19.832805   -4.702547   -3.312347
     24          7           0      -24.930988   -2.761116    0.746880
     25          6           0      -24.393753   -3.927533    0.453692
     26          6           0      -25.071462   -5.120446    1.182207
     27          6           0      -25.936845   -4.374848    2.200489
     28          6           0      -25.802461   -2.938733    1.748566
     29          6           0      -25.911744   -5.996998    0.193291
     30          6           0      -25.582118   -4.552476    3.659597
     31          6           0      -26.755080   -4.752655    4.635662
     32          7           0      -25.761398    0.089736    1.131400
     33          6           0      -26.634211   -0.491444    2.025096
     34          6           0      -27.498031    0.533131    2.685643
     35          6           0      -27.102922    1.653040    1.982100
     36          6           0      -26.114514    1.358778    1.035130
     37          6           0      -28.394249    0.374356    3.871637
     38          6           0      -27.368834    3.080198    1.877304
     39          8           0      -28.137136    3.749756    2.558559
     40          6           0      -26.443805    3.684252    0.795967
     41          6           0      -27.289755    4.445182   -0.087707
     42          8           0      -28.055242    3.993822   -0.973385
     43          8           0      -27.030743    5.775823    0.041798
     44          6           0      -27.571764    6.687716   -0.942300
     45          1           0      -21.733068    0.692088   -3.321205
     46          1           0      -23.103178   -5.071016   -0.715164
     47          1           0      -27.493637   -2.366047    2.781085
     48          1           0      -24.896972    3.972844   -1.890182
     49          1           0      -22.079705    3.211617   -2.323304
     50          1           0      -22.914156    3.467634   -4.653004
     51          1           0      -24.374401    3.823287   -3.770779
     52          1           0      -24.112944    2.264219   -4.324660
     53          1           0      -22.423618    4.198203   -0.121470
     54          1           0      -23.863030    4.733206    0.420799
     55          1           0      -23.292511    5.942452   -2.204469
     56          1           0      -21.818592    5.891575   -1.037963
     57          1           0      -20.397260   -2.343860   -4.831171
     58          1           0      -19.406869   -1.482753   -3.668409
     59          1           0      -20.690702   -0.718096   -4.525554
     60          1           0      -19.141679   -4.023096   -2.813354
     61          1           0      -20.100383   -4.322753   -4.297764
     62          1           0      -19.440507   -5.709015   -3.171389
     63          1           0      -24.264826   -5.683417    1.653027
     64          1           0      -27.007375   -4.573104    2.156387
     65          1           0      -26.979649   -5.916719    0.394191
     66          1           0      -25.677269   -7.055563    0.305494
     67          1           0      -25.691570   -5.601302   -0.798314
     68          1           0      -24.972468   -3.729428    4.031094
     69          1           0      -24.796230   -5.306970    3.646539
     70          1           0      -26.369672   -5.337159    5.470510
     71          1           0      -27.650449   -5.146449    4.153694
     72          1           0      -26.976065   -3.720730    4.907606
     73          1           0      -27.961286    0.720679    4.810281
     74          1           0      -28.733648   -0.660444    3.835773
     75          1           0      -29.350042    0.856710    3.663220
     76          1           0      -25.870947    4.444238    1.327265
     77          1           0      -28.062776    6.205417   -1.787939
     78          1           0      -26.814097    7.403223   -1.260647
     79          1           0      -28.336341    7.339292   -0.518440
     80         12           0       25.042393   -0.439564    0.035775
     81          6           0       24.003805    2.655694    0.990663
     82          6           0       25.520703    0.646688   -3.193492
     83          6           0       25.880079   -3.609439   -0.807399
     84          6           0       24.086647   -1.620708    3.226889
     85          7           0       24.574102    1.401433   -1.034559
     86          6           0       24.477070    2.578936   -0.361417
     87          6           0       24.713698    3.774849   -1.220088
     88          6           0       24.949884    3.041400   -2.640403
     89          6           0       25.025220    1.590922   -2.292582
     90          6           0       23.784672    3.338627   -3.689197
     91          6           0       26.027287    4.528493   -0.704972
     92          6           0       26.170805    6.010033   -1.060008
     93          1           0       25.313816    6.741921   -2.122746
     94          7           0       25.719868   -1.380565   -1.704898
     95          6           0       25.824840   -0.743057   -2.951915
     96          6           0       26.275404   -1.737666   -3.897665
     97          6           0       26.412355   -2.963786   -3.215583
     98          6           0       26.041010   -2.648383   -1.843051
     99          6           0       26.581660   -1.363370   -5.366653
    100          6           0       26.792150   -4.405682   -3.842729
    101          8           0       27.026647   -5.398272   -3.141842
    102          6           0       26.935560   -4.679832   -5.330683
    103          7           0       25.043571   -2.360676    1.135462
    104          6           0       25.405989   -3.505678    0.509195
    105          6           0       25.057552   -4.734653    1.347256
    106          6           0       24.778575   -4.062819    2.812620
    107          6           0       24.722430   -2.571312    2.446736
    108          6           0       23.926232   -5.693299    0.754188
    109          6           0       25.959486   -4.198823    3.901894
    110          6           0       25.640521   -4.683139    5.304338
    111          7           0       24.257721    0.298996    1.825094
    112          6           0       23.914638   -0.258564    2.999503
    113          6           0       23.473815    0.804899    3.955712
    114          6           0       23.563965    1.977181    3.168251
    115          6           0       23.923425    1.564576    1.861920
    116          6           0       23.079920    0.728388    5.388384
    117          6           0       23.350799    3.372116    3.271017
    118          8           0       22.975912    4.061793    4.241470
    119          6           0       23.622099    3.882573    1.858096
    120          6           0       22.422579    4.508006    1.349999
    121          8           0       21.313137    4.088746    1.238277
    122          8           0       22.811631    5.752450    0.863329
    123          6           0       21.839833    6.694803    0.187343
    124          1           0       25.906418    0.961614   -4.164940
    125          1           0       26.058702   -4.643019   -1.112278
    126          1           0       23.595443   -1.936660    4.148920
    127          1           0       23.960821    4.554541   -1.333953
    128          1           0       25.888817    3.354721   -3.096800
    129          1           0       24.093806    3.432458   -4.729965
    130          1           0       23.192870    4.182196   -3.334195
    131          1           0       23.122673    2.472499   -3.661991
    132          1           0       26.934299    4.032950   -1.051741
    133          1           0       26.001832    4.429536    0.380525
    134          1           0       27.220961    6.145916   -1.321567
    135          1           0       26.059526    6.595715   -0.148281
    136          1           0       26.479312   -0.301458   -5.589798
    137          1           0       25.913491   -1.962346   -5.984539
    138          1           0       27.597835   -1.698834   -5.575186
    139          1           0       27.835342   -4.138178   -5.620056
    140          1           0       26.203714   -4.136019   -5.928319
    141          1           0       26.813126   -5.743157   -5.535703
    142          1           0       25.963514   -5.334076    1.444472
    143          1           0       23.866867   -4.462143    3.257385
    144          1           0       23.090711   -5.795858    1.447040
    145          1           0       24.348140   -6.670404    0.521676
    146          1           0       23.487424   -5.259189   -0.144514
    147          1           0       26.543441   -3.282153    3.983134
    148          1           0       26.681418   -4.894226    3.474787
    149          1           0       25.991190   -3.907960    5.984792
    150          1           0       26.084799   -5.651712    5.531961
    151          1           0       24.558956   -4.725135    5.440411
    152          1           0       23.185501   -0.257153    5.841584
    153          1           0       22.035227    1.011376    5.519943
    154          1           0       23.698909    1.427202    5.950711
    155          1           0       24.435605    4.608131    1.831175
    156          1           0       20.857134    6.230300    0.103031
    157          1           0       22.173025    6.893387   -0.832185
    158          1           0       21.814678    7.583876    0.817379
 ---------------------------------------------------------------------

 SCF Done:  E(RCAM-B3LYP) =  -4069.82010805     A.U. after   19 cycles

 Excitation energies and oscillator strengths:

 Excited State   1:      Singlet-A      1.7389 eV  713.02 nm  f=0.3923  <S**2>=0.000
     310 -> 316        0.19176
     311 -> 313        0.68293
     310 <- 316        0.10976
 This state for optimization and/or second-order correction.
 Total Energy, E(TD-HF/TD-DFT) =  -4069.75620571
 Copying the excited state density for this state as the 1-particle RhoCI density.

 Excited State   2:      Singlet-A      1.7540 eV  706.87 nm  f=0.3830  <S**2>=0.000
     309 -> 315        0.19892
     312 -> 314        0.68125
     309 <- 315        0.11271

 Excited State   3:      Singlet-A      2.2287 eV  556.30 nm  f=0.1025  <S**2>=0.000
     310 -> 313        0.63901
     311 -> 316       -0.29487

 Excited State   4:      Singlet-A      2.3187 eV  534.70 nm  f=0.0718  <S**2>=0.000
     309 -> 314        0.61703
     312 -> 315       -0.33882

 Excited State   5:      Singlet-A      3.1788 eV  390.03 nm  f=0.0000  <S**2>=0.000
     312 -> 313        0.70711

 The electronic state is 1-A.
 Alpha  occ. eigenvalues --  -46.89423 -46.88504 -19.25166 -19.23709 -19.19617
 Alpha  occ. eigenvalues --  -19.19216 -19.19033 -19.18840 -19.18804 -19.18611
 Alpha  occ. eigenvalues --  -14.42501 -14.41910 -14.41693 -14.41106 -14.39768
 Alpha  occ. eigenvalues --  -14.39603 -14.39574 -14.39414 -10.39143 -10.38678
 Alpha  occ. eigenvalues --  -10.36252 -10.35251 -10.34498 -10.34454 -10.31928
 Alpha  occ. eigenvalues --  -10.31769 -10.31221 -10.30753 -10.30699 -10.30668
 Alpha  occ. eigenvalues --  -10.30610 -10.30563 -10.30478 -10.30409 -10.30397
 Alpha  occ. eigenvalues --  -10.30238 -10.30085 -10.30017 -10.29892 -10.29769
 Alpha  occ. eigenvalues --  -10.29038 -10.29036 -10.28878 -10.28797 -10.28603
 Alpha  occ. eigenvalues --  -10.28405 -10.28321 -10.28273 -10.28211 -10.28210
 Alpha  occ. eigenvalues --  -10.28123 -10.28015 -10.27995 -10.27986 -10.27983
 Alpha  occ. eigenvalues --  -10.27955 -10.27847 -10.27606 -10.27540 -10.27538
 Alpha  occ. eigenvalues --  -10.27484 -10.27421 -10.27387 -10.27329 -10.27226
 Alpha  occ. eigenvalues --  -10.27082 -10.26969 -10.26921 -10.26684 -10.26459
 Alpha  occ. eigenvalues --  -10.26287 -10.26234 -10.26219 -10.26193 -10.26137
 Alpha  occ. eigenvalues --  -10.26097 -10.26089 -10.25988 -10.25937 -10.25923
 Alpha  occ. eigenvalues --  -10.25916 -10.25768 -10.25699 -10.25384 -10.24771
 Alpha  occ. eigenvalues --  -10.24608  -3.17830  -3.17109  -1.92750  -1.92268
 Alpha  occ. eigenvalues --   -1.92142  -1.92018  -1.91556  -1.91422  -1.16114
 Alpha  occ. eigenvalues --   -1.15658  -1.09536  -1.09477  -1.09065  -1.08350
 Alpha  occ. eigenvalues --   -1.07228  -1.05961  -1.05770  -1.05586  -1.04582
 Alpha  occ. eigenvalues --   -1.04483  -1.03599  -1.03079  -1.02653  -1.02185
 Alpha  occ. eigenvalues --   -0.93517  -0.93166  -0.90095  -0.89319  -0.88631
 Alpha  occ. eigenvalues --   -0.88480  -0.88285  -0.87592  -0.87540  -0.87088
 Alpha  occ. eigenvalues --   -0.87084  -0.86929  -0.86627  -0.86245  -0.84676
 Alpha  occ. eigenvalues --   -0.84349  -0.84069  -0.83497  -0.82936  -0.82608
 Alpha  occ. eigenvalues --   -0.82388  -0.81631  -0.81245  -0.81212  -0.80881
 Alpha  occ. eigenvalues --   -0.80323  -0.78671  -0.78435  -0.77722  -0.77494
 Alpha  occ. eigenvalues --   -0.77445  -0.77148  -0.76577  -0.76226  -0.75249
 Alpha  occ. eigenvalues --   -0.75210  -0.72993  -0.72613  -0.72009  -0.71957
 Alpha  occ. eigenvalues --   -0.69547  -0.69281  -0.69265  -0.68661  -0.68248
 Alpha  occ. eigenvalues --   -0.68087  -0.66534  -0.66424  -0.66007  -0.65413
 Alpha  occ. eigenvalues --   -0.65361  -0.65228  -0.65111  -0.64561  -0.64538
 Alpha  occ. eigenvalues --   -0.64274  -0.62545  -0.61841  -0.60473  -0.60411
 Alpha  occ. eigenvalues --   -0.59949  -0.59907  -0.59491  -0.59206  -0.58819
 Alpha  occ. eigenvalues --   -0.58778  -0.58497  -0.58397  -0.57778  -0.57614
 Alpha  occ. eigenvalues --   -0.56469  -0.56050  -0.55753  -0.55525  -0.55519
 Alpha  occ. eigenvalues --   -0.55317  -0.54441  -0.54260  -0.54032  -0.53894
 Alpha  occ. eigenvalues --   -0.53793  -0.53490  -0.53170  -0.53067  -0.52999
 Alpha  occ. eigenvalues --   -0.52969  -0.52784  -0.52224  -0.52161  -0.51974
 Alpha  occ. eigenvalues --   -0.51882  -0.51717  -0.51690  -0.51654  -0.51430
 Alpha  occ. eigenvalues --   -0.51212  -0.50831  -0.50791  -0.50564  -0.50488
 Alpha  occ. eigenvalues --   -0.50295  -0.49933  -0.49828  -0.49727  -0.49654
 Alpha  occ. eigenvalues --   -0.49419  -0.49149  -0.49079  -0.48940  -0.48643
 Alpha  occ. eigenvalues --   -0.48384  -0.48344  -0.48329  -0.48168  -0.47974
 Alpha  occ. eigenvalues --   -0.47960  -0.47802  -0.47637  -0.47365  -0.47291
 Alpha  occ. eigenvalues --   -0.47235  -0.47007  -0.46951  -0.46615  -0.46541
 Alpha  occ. eigenvalues --   -0.46481  -0.46270  -0.46232  -0.46192  -0.46044
 Alpha  occ. eigenvalues --   -0.45607  -0.45573  -0.45212  -0.45142  -0.45055
 Alpha  occ. eigenvalues --   -0.44712  -0.44529  -0.44372  -0.44286  -0.44003
 Alpha  occ. eigenvalues --   -0.43963  -0.43920  -0.43862  -0.43714  -0.43709
 Alpha  occ. eigenvalues --   -0.43420  -0.43164  -0.43152  -0.42695  -0.42501
 Alpha  occ. eigenvalues --   -0.42435  -0.42347  -0.42044  -0.41770  -0.41754
 Alpha  occ. eigenvalues --   -0.41683  -0.41654  -0.41565  -0.41318  -0.41237
 Alpha  occ. eigenvalues --   -0.41158  -0.41075  -0.41069  -0.40870  -0.40835
 Alpha  occ. eigenvalues --   -0.40230  -0.40123  -0.39935  -0.39744  -0.39430
 Alpha  occ. eigenvalues --   -0.38816  -0.38442  -0.37913  -0.37809  -0.37559
 Alpha  occ. eigenvalues --   -0.37043  -0.36782  -0.36603  -0.36099  -0.36068
 Alpha  occ. eigenvalues --   -0.36004  -0.35644  -0.34516  -0.34255  -0.33815
 Alpha  occ. eigenvalues --   -0.33535  -0.33178  -0.33010  -0.31567  -0.31273
 Alpha  occ. eigenvalues --   -0.31122  -0.31047  -0.31044  -0.30591  -0.30542
 Alpha  occ. eigenvalues --   -0.30263  -0.30197  -0.30072  -0.24075  -0.23855
 Alpha  occ. eigenvalues --   -0.21154  -0.20913
 Alpha virt. eigenvalues --   -0.08537  -0.08150  -0.01794  -0.01724  -0.00026
 Alpha virt. eigenvalues --    0.00747   0.02286   0.02519   0.02772   0.03016
 Alpha virt. eigenvalues --    0.04556   0.04645   0.05310   0.05521   0.06127

 Mulliken charges:
               1
     1  Mg  12.000011
     2  C    5.999816
     3  C    6.000005
     4  C    6.000174
     5  C    6.000012
     6  N    6.999938
     7  C    6.000187
     8  C    5.999969
     9  C    6.000048
    10  C    5.999864
    11  C    6.000055
    12  C    5.999966
    13  C    6.000001
    14  H    1.000003
    15  N    7.000064
    16  C    5.999738
    17  C    5.999877
    18  C    5.999917
    19  C    5.999743
    20  C    6.000071
    21  C    5.999893
    22  O    7.999804
    23  C    6.000018
    24  N    7.000038
    25  C    5.999813
    26  C    6.000021
    27  C    5.999970
    28  C    6.000171
    29  C    6.000015
    30  C    5.999919
    31  C    6.000007
    32  N    7.000004
    33  C    6.000208
    34  C    6.000217
    35  C    5.999944
    36  C    6.000249
    37  C    5.999953
    38  C    6.000149
    39  O    8.000178
    40  C    6.000019
    41  C    6.000018
    42  O    8.000017
    43  O    8.000016
    44  C    5.999982
    45  H    0.999934
    46  H    0.999965
    47  H    1.000059
    48  H    0.999970
    49  H    1.000002
    50  H    0.999970
    51  H    0.999905
    52  H    0.999980
    53  H    1.000073
    54  H    0.999957
    55  H    1.000004
    56  H    1.000050
    57  H    0.999856
    58  H    0.999890
    59  H    0.999880
    60  H    0.999979
    61  H    0.999945
    62  H    0.999893
    63  H    1.000027
    64  H    0.999993
    65  H    0.999917
    66  H    0.999979
    67  H    1.000031
    68  H    1.000040
    69  H    1.000100
    70  H    1.000049
    71  H    1.000005
    72  H    0.999967
    73  H    1.000161
    74  H    1.000095
    75  H    1.000108
    76  H    1.000061
    77  H    1.000009
    78  H    1.000048
    79  H    1.000015
    80  Mg  12.001813
    81  C    6.026239
    82  C    5.973670
    83  C    5.977889
    84  C    6.016222
    85  N    6.999530
    86  C    5.958242
    87  C    6.019176
    88  C    5.984895
    89  C    6.041119
    90  C    5.997129
    91  C    6.004636
    92  C    6.000641
    93  H    0.993206
    94  N    6.990338
    95  C    6.058057
    96  C    6.008501
    97  C    6.025353
    98  C    6.031302
    99  C    5.998341
   100  C    6.012162
   101  O    8.028048
   102  C    5.997962
   103  N    6.998076
   104  C    6.033561
   105  C    5.988766
   106  C    6.010406
   107  C    5.969131
   108  C    5.997979
   109  C    6.009299
   110  C    5.998982
   111  N    7.007749
   112  C    5.954998
   113  C    5.967542
   114  C    5.997395
   115  C    5.965346
   116  C    6.006568
   117  C    5.985117
   118  O    7.970039
   119  C    6.000919
   120  C    5.995602
   121  O    7.996913
   122  O    7.998686
   123  C    6.001912
   124  H    1.009169
   125  H    1.005692
   126  H    0.991443
   127  H    0.995400
   128  H    1.002487
   129  H    1.000435
   130  H    1.016016
   131  H    1.000293
   132  H    0.987213
   133  H    1.007984
   134  H    0.995356
   135  H    1.003042
   136  H    1.018843
   137  H    1.017200
   138  H    1.017369
   139  H    1.007393
   140  H    1.006495
   141  H    1.014400
   142  H    0.999456
   143  H    0.995978
   144  H    1.011724
   145  H    1.000117
   146  H    0.995465
   147  H    1.000664
   148  H    0.985996
   149  H    1.002590
   150  H    0.993983
   151  H    1.000681
   152  H    0.979776
   153  H    0.978589
   154  H    0.981019
   155  H    0.990945
   156  H    0.996756
   157  H    0.993067
   158  H    0.997505
 Sum of Mulliken charges = 624.00000

 Dipole moment (field-independent basis, Debye):
    X=              3.3348    Y=             -4.7252    Z=             -9.2488  Tot=             10.9082
 Quadrupole moment (field-independent basis, Debye-Ang):
   XX=            170.2444   YY=              2.2125   ZZ=             -0.2438
   XY=           -120.6257   XZ=           -232.8203   YZ=              6.0853

 Normal termination of Gaussian 16 at Thu Sep 23 00:40:10 2021.
