 Gaussian 16, Revision A.03,
 Gaussian 16:  ES64L-G16RevA.03 25-Dec-2016

 -----------------------------------
 #p cam-b3lyp/Def2SVP td=(nstates=5)
 -----------------------------------

 --------------------------------
 TDDFT excited states in gaussian
 --------------------------------
 Symbolic Z-matrix:
 Charge =  0 Multiplicity = 1

                         Standard orientation:
 ---------------------------------------------------------------------
 Center     Atomic      Atomic             Coordinates (Angstroms)
 Number     Number       Type             X           Y           Z
 ---------------------------------------------------------------------
      1         12           0       20.586704   -0.952356   -0.219028
      2          6           0       21.387361    2.484068    0.087484
      3          6           0       17.558828   -0.137480    1.325817
      4          6           0       19.636552   -4.080385   -0.522635
      5          6           0       23.913544   -1.633924   -0.965703
      6          7           0       19.623113    0.967446    0.559995
      7          6           0       20.061081    2.252290    0.448230
      8          6           0       19.131843    3.333476    1.026117
      9          6           0       17.946892    2.360992    1.525051
     10          6           0       18.435111    1.002352    1.117709
     11          6           0       17.691714    2.392681    3.083910
     12          6           0       18.659030    4.369985   -0.044734
     13          6           0       19.065590    5.838348   -0.064848
     14          1           0       18.095961    6.920926   -0.520199
     15          7           0       18.812124   -1.987654    0.247952
     16          6           0       17.700408   -1.496272    0.947382
     17          6           0       16.810272   -2.611532    1.180655
     18          6           0       17.308008   -3.730591    0.517639
     19          6           0       18.612323   -3.279304   -0.005278
     20          6           0       15.494125   -2.346278    1.828238
     21          6           0       16.780994   -5.161093    0.409916
     22          8           0       17.351060   -6.075998   -0.192280
     23          6           0       15.428711   -5.420226    0.947172
     24          7           0       21.620504   -2.661764   -0.576086
     25          6           0       20.996136   -3.841363   -0.873511
     26          6           0       21.965796   -4.820186   -1.618544
     27          6           0       23.280852   -4.051802   -1.635044
     28          6           0       22.953870   -2.697732   -0.946202
     29          6           0       22.015911   -6.250695   -0.988999
     30          6           0       23.773713   -3.902487   -3.082433
     31          6           0       25.212044   -4.140560   -3.367302
     32          7           0       22.354131    0.127568   -0.316199
     33          6           0       23.623573   -0.264979   -0.657853
     34          6           0       24.527450    0.846059   -0.674912
     35          6           0       23.691792    2.052347   -0.479479
     36          6           0       22.359915    1.516556   -0.272569
     37          6           0       26.044665    0.769078   -0.916725
     38          6           0       23.640998    3.533181   -0.385804
     39          8           0       24.515479    4.382588   -0.626960
     40          6           0       22.132007    3.846880   -0.019641
     41          6           0       22.326451    4.573885    1.274198
     42          8           0       22.424646    4.108793    2.403276
     43          8           0       22.259457    5.864724    1.095001
     44          6           0       22.587206    6.780939    2.214253
     45          1           0       16.611183    0.282532    1.668393
     46          1           0       19.468487   -5.152868   -0.638125
     47          1           0       24.937160   -1.858465   -1.271508
     48          1           0       19.639806    3.782257    1.880657
     49          1           0       16.967457    2.457013    1.055426
     50          1           0       18.469596    2.834811    3.705821
     51          1           0       17.562878    1.377551    3.457792
     52          1           0       16.765944    2.938239    3.267622
     53          1           0       17.570627    4.391866    0.012403
     54          1           0       18.949423    4.040483   -1.041521
     55          1           0       19.814613    5.821268   -0.856673
     56          1           0       19.434423    5.976685    0.951532
     57          1           0       14.660781   -2.588522    1.170169
     58          1           0       15.398497   -1.296951    2.108433
     59          1           0       15.332963   -2.932383    2.732501
     60          1           0       14.735951   -4.670844    0.564061
     61          1           0       15.363824   -5.235375    2.019517
     62          1           0       15.009415   -6.385521    0.665250
     63          1           0       21.493069   -4.888477   -2.598186
     64          1           0       24.070295   -4.611819   -1.134059
     65          1           0       21.259854   -6.430541   -0.224854
     66          1           0       22.966192   -6.488484   -0.512395
     67          1           0       22.000588   -7.000703   -1.779656
     68          1           0       23.526505   -2.865473   -3.305964
     69          1           0       23.289892   -4.565792   -3.798977
     70          1           0       25.547153   -3.227239   -3.858318
     71          1           0       25.337153   -5.065974   -3.929407
     72          1           0       25.851751   -4.197359   -2.486327
     73          1           0       26.550185    0.653031    0.041254
     74          1           0       26.353127    1.676656   -1.435400
     75          1           0       26.323806   -0.103301   -1.508007
     76          1           0       21.757676    4.519044   -0.791548
     77          1           0       21.940025    6.668666    3.083422
     78          1           0       22.600504    7.835141    1.938216
     79          1           0       23.590536    6.706467    2.632520
     80         12           0      -21.474482    0.154391    0.309036
     81          6           0      -18.336402    1.270485   -0.831242
     82          6           0      -22.372232   -0.144196   -3.037410
     83          6           0      -24.308433   -1.326978    1.239535
     84          6           0      -20.042846   -0.329601    3.433066
     85          7           0      -20.345074    0.388219   -1.688241
     86          6           0      -19.120906    0.971058   -1.952064
     87          6           0      -18.908806    1.416870   -3.383601
     88          6           0      -20.216811    0.982737   -4.087081
     89          6           0      -21.042526    0.357515   -2.915322
     90          6           0      -20.984619    2.156745   -4.819704
     91          6           0      -17.635027    0.820654   -4.133371
     92          6           0      -17.167121   -0.592056   -3.747471
     93          1           0      -17.484689   -1.766784   -4.719450
     94          7           0      -23.077777   -0.600332   -0.733813
     95          6           0      -23.290534   -0.578028   -2.082875
     96          6           0      -24.634176   -1.090218   -2.386625
     97          6           0      -25.225764   -1.442490   -1.134970
     98          6           0      -24.166350   -1.127602   -0.127970
     99          6           0      -25.208622   -1.169775   -3.796041
    100          6           0      -26.644974   -2.123526   -1.122531
    101          8           0      -27.176505   -2.359222   -2.198623
    102          6           0      -27.306631   -2.567796    0.249285
    103          7           0      -22.018584   -0.798643    2.019608
    104          6           0      -23.330321   -1.209191    2.245971
    105          6           0      -23.529845   -1.668048    3.799055
    106          6           0      -22.025442   -1.441356    4.366160
    107          6           0      -21.335777   -0.814001    3.197690
    108          6           0      -24.618461   -0.833801    4.536281
    109          6           0      -21.277397   -2.756642    4.850612
    110          6           0      -20.643419   -2.779732    6.250092
    111          7           0      -19.604008    0.518856    1.218759
    112          6           0      -19.133420    0.273784    2.483330
    113          6           0      -17.714165    0.682535    2.543221
    114          6           0      -17.419865    1.195283    1.251361
    115          6           0      -18.608315    1.014633    0.490052
    116          6           0      -16.771371    0.564989    3.708619
    117          6           0      -16.311804    1.730046    0.437686
    118          8           0      -15.158675    2.089401    0.717004
    119          6           0      -16.961410    1.979925   -0.915228
    120          6           0      -17.003441    3.360035   -1.264133
    121          8           0      -17.865593    4.142702   -0.787234
    122          8           0      -16.006490    3.685805   -2.205042
    123          6           0      -16.017471    5.023484   -2.788366
    124          1           0      -22.770672   -0.097092   -4.052709
    125          1           0      -25.281960   -1.664204    1.600282
    126          1           0      -19.687249   -0.457226    4.457188
    127          1           0      -18.808019    2.496658   -3.280810
    128          1           0      -19.944149    0.128580   -4.705841
    129          1           0      -20.929406    2.008332   -5.898105
    130          1           0      -20.478924    3.075624   -4.521790
    131          1           0      -22.038273    2.179498   -4.539523
    132          1           0      -16.859836    1.518547   -3.814412
    133          1           0      -17.778290    0.916997   -5.209856
    134          1           0      -17.558227   -0.871876   -2.768725
    135          1           0      -16.090623   -0.557960   -3.585154
    136          1           0      -25.215476   -2.169246   -4.230964
    137          1           0      -24.801335   -0.382381   -4.430380
    138          1           0      -26.248317   -0.843136   -3.807676
    139          1           0      -27.214121   -1.722142    0.931184
    140          1           0      -26.756127   -3.436892    0.608467
    141          1           0      -28.296003   -3.012211    0.140945
    142          1           0      -23.935844   -2.678411    3.759755
    143          1           0      -22.096003   -0.696287    5.158945
    144          1           0      -24.109832   -0.021799    5.055525
    145          1           0      -25.252264   -1.441465    5.182248
    146          1           0      -25.371236   -0.401972    3.876976
    147          1           0      -20.538263   -2.992268    4.084262
    148          1           0      -22.091104   -3.481701    4.834647
    149          1           0      -19.884752   -3.557271    6.343437
    150          1           0      -21.502192   -2.988941    6.887535
    151          1           0      -20.217359   -1.782770    6.364464
    152          1           0      -17.172018   -0.266386    4.287989
    153          1           0      -16.962369    1.489692    4.253146
    154          1           0      -15.713007    0.521794    3.449837
    155          1           0      -16.300431    1.418807   -1.575429
    156          1           0      -15.830029    5.863751   -2.119796
    157          1           0      -16.970646    5.204070   -3.286171
    158          1           0      -15.343341    4.989083   -3.644365
 ---------------------------------------------------------------------

 SCF Done:  E(RCAM-B3LYP) =  -4069.79670853     A.U. after   17 cycles

 Excitation energies and oscillator strengths:

 Excited State   1:      Singlet-A      1.7180 eV  721.68 nm  f=0.3867  <S**2>=0.000
     309 -> 316       -0.18146
     312 -> 314        0.68497
     309 <- 316       -0.10789
 This state for optimization and/or second-order correction.
 Total Energy, E(TD-HF/TD-DFT) =  -4069.73357363
 Copying the excited state density for this state as the 1-particle RhoCI density.

 Excited State   2:      Singlet-A      1.7574 eV  705.51 nm  f=0.3718  <S**2>=0.000
     310 -> 315        0.18340
     311 -> 313        0.68365
     310 <- 315        0.10471

 Excited State   3:      Singlet-A      2.2203 eV  558.42 nm  f=0.1060  <S**2>=0.000
     310 -> 313        0.63626
     311 -> 315       -0.29385

 Excited State   4:      Singlet-A      2.3104 eV  536.64 nm  f=0.0713  <S**2>=0.000
     309 -> 314        0.61634
     312 -> 316        0.33580

 Excited State   5:      Singlet-A      3.1352 eV  395.46 nm  f=0.0000  <S**2>=0.000
     312 -> 313        0.70710

 The electronic state is 1-A.
 Alpha  occ. eigenvalues --  -46.88968 -46.88507 -19.25839 -19.25285 -19.20281
 Alpha  occ. eigenvalues --  -19.19653 -19.19561 -19.19238 -19.18853 -19.18169
 Alpha  occ. eigenvalues --  -14.42680 -14.42564 -14.42124 -14.41884 -14.39999
 Alpha  occ. eigenvalues --  -14.39803 -14.39357 -14.38966 -10.40069 -10.38627
 Alpha  occ. eigenvalues --  -10.36532 -10.35954 -10.35422 -10.35396 -10.32163
 Alpha  occ. eigenvalues --  -10.31927 -10.31921 -10.31616 -10.31392 -10.31384
 Alpha  occ. eigenvalues --  -10.31091 -10.30978 -10.30894 -10.30724 -10.30679
 Alpha  occ. eigenvalues --  -10.30627 -10.30504 -10.30130 -10.29882 -10.29407
 Alpha  occ. eigenvalues --  -10.29339 -10.29046 -10.29015 -10.28840 -10.28748
 Alpha  occ. eigenvalues --  -10.28713 -10.28603 -10.28507 -10.28411 -10.28377
 Alpha  occ. eigenvalues --  -10.28349 -10.28348 -10.28346 -10.28074 -10.28017
 Alpha  occ. eigenvalues --  -10.28009 -10.27934 -10.27858 -10.27806 -10.27784
 Alpha  occ. eigenvalues --  -10.27691 -10.27510 -10.27497 -10.27435 -10.27195
 Alpha  occ. eigenvalues --  -10.27176 -10.27039 -10.26965 -10.26837 -10.26772
 Alpha  occ. eigenvalues --  -10.26701 -10.26622 -10.26611 -10.26500 -10.26478
 Alpha  occ. eigenvalues --  -10.26382 -10.26096 -10.25905 -10.25837 -10.25804
 Alpha  occ. eigenvalues --  -10.25670 -10.25624 -10.25496 -10.25217 -10.25207
 Alpha  occ. eigenvalues --  -10.24846  -3.17594  -3.17104  -1.92453  -1.92066
 Alpha  occ. eigenvalues --   -1.92005  -1.91899  -1.91561  -1.91408  -1.17778
 Alpha  occ. eigenvalues --   -1.15018  -1.10453  -1.10063  -1.09102  -1.08369
 Alpha  occ. eigenvalues --   -1.07068  -1.06469  -1.05454  -1.04189  -1.03989
 Alpha  occ. eigenvalues --   -1.03589  -1.02759  -1.02655  -1.01922  -1.01341
 Alpha  occ. eigenvalues --   -0.93177  -0.91826  -0.89558  -0.89206  -0.89023
 Alpha  occ. eigenvalues --   -0.88891  -0.88772  -0.88090  -0.87699  -0.86848
 Alpha  occ. eigenvalues --   -0.86740  -0.86123  -0.85602  -0.85091  -0.84567
 Alpha  occ. eigenvalues --   -0.84320  -0.83956  -0.83462  -0.82857  -0.82843
 Alpha  occ. eigenvalues --   -0.82676  -0.81703  -0.81049  -0.80810  -0.80497
 Alpha  occ. eigenvalues --   -0.80125  -0.78755  -0.78211  -0.77478  -0.77260
 Alpha  occ. eigenvalues --   -0.76854  -0.76812  -0.76564  -0.76173  -0.75140
 Alpha  occ. eigenvalues --   -0.74945  -0.72375  -0.72209  -0.71796  -0.71792
 Alpha  occ. eigenvalues --   -0.69337  -0.69206  -0.68953  -0.68475  -0.68184
 Alpha  occ. eigenvalues --   -0.67593  -0.66909  -0.66852  -0.65852  -0.65820
 Alpha  occ. eigenvalues --   -0.65265  -0.65229  -0.64846  -0.64621  -0.64243
 Alpha  occ. eigenvalues --   -0.64183  -0.62485  -0.62384  -0.60927  -0.60274
 Alpha  occ. eigenvalues --   -0.59667  -0.59491  -0.59107  -0.58964  -0.58695
 Alpha  occ. eigenvalues --   -0.58478  -0.57830  -0.57782  -0.57622  -0.57225
 Alpha  occ. eigenvalues --   -0.56679  -0.56184  -0.55647  -0.55621  -0.54989
 Alpha  occ. eigenvalues --   -0.54954  -0.54475  -0.54290  -0.54234  -0.54161
 Alpha  occ. eigenvalues --   -0.53821  -0.53808  -0.53535  -0.53126  -0.52899
 Alpha  occ. eigenvalues --   -0.52656  -0.52622  -0.52546  -0.52383  -0.52167
 Alpha  occ. eigenvalues --   -0.52120  -0.51606  -0.51403  -0.51229  -0.50989
 Alpha  occ. eigenvalues --   -0.50749  -0.50559  -0.50429  -0.50341  -0.50020
 Alpha  occ. eigenvalues --   -0.50007  -0.49862  -0.49721  -0.49401  -0.49395
 Alpha  occ. eigenvalues --   -0.49392  -0.49297  -0.49042  -0.49005  -0.48692
 Alpha  occ. eigenvalues --   -0.48615  -0.48478  -0.48387  -0.48177  -0.48170
 Alpha  occ. eigenvalues --   -0.48014  -0.47789  -0.47413  -0.47407  -0.47240
 Alpha  occ. eigenvalues --   -0.46654  -0.46612  -0.46487  -0.46299  -0.46279
 Alpha  occ. eigenvalues --   -0.46201  -0.46070  -0.45818  -0.45810  -0.45561
 Alpha  occ. eigenvalues --   -0.45431  -0.45421  -0.45152  -0.45008  -0.45008
 Alpha  occ. eigenvalues --   -0.44831  -0.44651  -0.44637  -0.44596  -0.44338
 Alpha  occ. eigenvalues --   -0.44238  -0.44220  -0.44001  -0.43963  -0.43269
 Alpha  occ. eigenvalues --   -0.43175  -0.43074  -0.43041  -0.42967  -0.42793
 Alpha  occ. eigenvalues --   -0.42713  -0.42433  -0.42400  -0.42300  -0.42136
 Alpha  occ. eigenvalues --   -0.41882  -0.41626  -0.41601  -0.41390  -0.41215
 Alpha  occ. eigenvalues --   -0.41102  -0.40809  -0.40645  -0.40404  -0.40312
 Alpha  occ. eigenvalues --   -0.40050  -0.39894  -0.39825  -0.39735  -0.39493
 Alpha  occ. eigenvalues --   -0.38944  -0.38424  -0.37904  -0.37684  -0.37550
 Alpha  occ. eigenvalues --   -0.37220  -0.37118  -0.37050  -0.36668  -0.36609
 Alpha  occ. eigenvalues --   -0.36364  -0.35828  -0.34794  -0.34450  -0.34433
 Alpha  occ. eigenvalues --   -0.33424  -0.33234  -0.33072  -0.31900  -0.31761
 Alpha  occ. eigenvalues --   -0.31447  -0.31239  -0.31016  -0.30585  -0.30298
 Alpha  occ. eigenvalues --   -0.30295  -0.29640  -0.28697  -0.24177  -0.23897
 Alpha  occ. eigenvalues --   -0.21161  -0.20866
 Alpha virt. eigenvalues --   -0.08502  -0.08220  -0.01845  -0.01841  -0.00174
 Alpha virt. eigenvalues --    0.00240   0.01615   0.02018   0.02094   0.02711
 Alpha virt. eigenvalues --    0.03398   0.04997   0.05184   0.05261   0.05786

 Mulliken charges:
               1
     1  Mg   0.832075
     2  C    0.053294
     3  C   -0.082035
     4  C   -0.070467
     5  C   -0.080629
     6  N   -0.209706
     7  C   -0.071891
     8  C    0.011106
     9  C   -0.072290
    10  C   -0.024591
    11  C    0.046688
    12  C    0.028492
    13  C   -0.068371
    14  H    0.028070
    15  N   -0.362200
    16  C    0.170264
    17  C   -0.116428
    18  C   -0.037997
    19  C    0.148199
    20  C    0.098532
    21  C    0.036628
    22  O   -0.200909
    23  C    0.053959
    24  N   -0.348525
    25  C   -0.000983
    26  C   -0.010956
    27  C   -0.014554
    28  C    0.090614
    29  C    0.058957
    30  C    0.000446
    31  C    0.009600
    32  N   -0.370113
    33  C    0.134139
    34  C   -0.185275
    35  C   -0.007971
    36  C    0.094262
    37  C    0.119452
    38  C    0.044306
    39  O   -0.191220
    40  C   -0.048593
    41  C    0.168006
    42  O   -0.239947
    43  O   -0.279004
    44  C    0.189688
    45  H   -0.020122
    46  H   -0.008675
    47  H   -0.032272
    48  H    0.036455
    49  H    0.020298
    50  H    0.030103
    51  H    0.017488
    52  H    0.014757
    53  H    0.014843
    54  H    0.008452
    55  H    0.040726
    56  H    0.030042
    57  H    0.032486
    58  H    0.010847
    59  H    0.024910
    60  H    0.019529
    61  H    0.028254
    62  H    0.034473
    63  H    0.027677
    64  H    0.006896
    65  H    0.037055
    66  H    0.003319
    67  H    0.012689
    68  H    0.013024
    69  H    0.007173
    70  H    0.015191
    71  H    0.020874
    72  H    0.005596
    73  H    0.033348
    74  H    0.038374
    75  H    0.005093
    76  H    0.046517
    77  H    0.033308
    78  H    0.033828
    79  H    0.035321
    80  Mg   0.851613
    81  C   -0.100113
    82  C   -0.078305
    83  C   -0.099231
    84  C   -0.088975
    85  N   -0.279391
    86  C   -0.081240
    87  C   -0.019294
    88  C   -0.002841
    89  C   -0.000103
    90  C    0.073894
    91  C    0.027090
    92  C   -0.064882
    93  H    0.020892
    94  N   -0.362130
    95  C    0.140218
    96  C   -0.140664
    97  C   -0.078351
    98  C    0.187278
    99  C    0.142619
   100  C    0.026538
   101  O   -0.197098
   102  C    0.035341
   103  N   -0.347392
   104  C    0.055855
   105  C   -0.054213
   106  C   -0.028381
   107  C    0.061095
   108  C    0.055223
   109  C    0.021389
   110  C    0.018571
   111  N   -0.317875
   112  C    0.107221
   113  C   -0.195321
   114  C   -0.057908
   115  C    0.233638
   116  C    0.136017
   117  C    0.071804
   118  O   -0.182185
   119  C    0.008148
   120  C    0.252081
   121  O   -0.249941
   122  O   -0.351356
   123  C    0.193043
   124  H   -0.033170
   125  H   -0.057945
   126  H   -0.041255
   127  H    0.023635
   128  H    0.018850
   129  H    0.021293
   130  H    0.018757
   131  H    0.026187
   132  H    0.015676
   133  H    0.022983
   134  H    0.041907
   135  H    0.033065
   136  H    0.040432
   137  H    0.001814
   138  H    0.020883
   139  H    0.054670
   140  H    0.038702
   141  H    0.026120
   142  H    0.018382
   143  H    0.011711
   144  H    0.016651
   145  H    0.016036
   146  H    0.011128
   147  H    0.024222
   148  H    0.000225
   149  H    0.028331
   150  H    0.019673
   151  H    0.018961
   152  H    0.013660
   153  H    0.031437
   154  H    0.042782
   155  H    0.030516
   156  H    0.050908
   157  H    0.016667
   158  H    0.033729
 Sum of Mulliken charges =  -0.00000

 Dipole moment (field-independent basis, Debye):
    X=             -7.2314    Y=             -1.2447    Z=              0.9296  Tot=              7.3964
 Quadrupole moment (field-independent basis, Debye-Ang):
   XX=           -628.5153   YY=           -516.0961   ZZ=           -479.7346
   XY=            -44.0845   XZ=            -47.0973   YZ=            -16.5890

 Normal termination of Gaussian 16 at Thu Sep  2 22:21:20 2021.
