 Gaussian 16, Revision A.03,
 Gaussian 16:  ES64L-G16RevA.03 25-Dec-2016

 -----------------------------------
 #p cam-b3lyp/Def2SVP td=(nstates=5)
 -----------------------------------

 --------------------------------
 TDDFT excited states in gaussian
 --------------------------------
 Symbolic Z-matrix:
 Charge =  0 Multiplicity = 1

                         Standard orientation:
 ---------------------------------------------------------------------
 Center     Atomic      Atomic             Coordinates (Angstroms)
 Number     Number       Type             X           Y           Z
 ---------------------------------------------------------------------
      1         12           0      -11.664500    0.163400   -0.344695
      2          6           0       -8.799577   -1.814266    0.324468
      3          6           0      -13.564999   -2.476076    0.629412
      4          6           0      -14.302442    2.303208   -0.196814
      5          6           0       -9.557823    2.879049   -0.791804
      6          7           0      -11.101857   -1.840543    0.535197
      7          6           0       -9.908345   -2.505062    0.635321
      8          6           0      -10.089444   -3.913961    1.063290
      9          6           0      -11.650961   -4.169325    0.820112
     10          6           0      -12.148417   -2.772430    0.668345
     11          6           0      -11.898945   -5.053166   -0.391628
     12          6           0       -9.571708   -4.022836    2.506105
     13          6           0       -8.476006   -5.129149    2.811757
     14          1           0       -8.688936   -6.192831    3.930662
     15          7           0      -13.672445   -0.001588    0.092898
     16          6           0      -14.275589   -1.231139    0.391961
     17          6           0      -15.693342   -1.028996    0.399974
     18          6           0      -15.966830    0.365501    0.194536
     19          6           0      -14.617921    0.939757   -0.056892
     20          6           0      -16.647554   -2.200740    0.592041
     21          6           0      -17.298584    1.082162    0.185249
     22          8           0      -18.290904    0.301759    0.267401
     23          6           0      -17.580884    2.611209    0.196947
     24          7           0      -11.927025    2.324340   -0.484142
     25          6           0      -13.121700    2.952808   -0.423397
     26          6           0      -13.007272    4.495779   -0.541139
     27          6           0      -11.478640    4.662899   -0.846143
     28          6           0      -10.935992    3.170920   -0.640166
     29          6           0      -13.922064    4.992865   -1.646129
     30          6           0      -10.747075    5.621847    0.042677
     31          6           0      -10.274656    6.864848   -0.661379
     32          7           0       -9.668144    0.505887   -0.440374
     33          6           0       -8.889458    1.644761   -0.681991
     34          6           0       -7.565417    1.333323   -0.871712
     35          6           0       -7.480411   -0.029942   -0.522562
     36          6           0       -8.764769   -0.458877   -0.195657
     37          6           0       -6.554240    2.290401   -1.466583
     38          6           0       -6.547612   -1.186630   -0.463418
     39          8           0       -5.387775   -1.235478   -0.733366
     40          6           0       -7.432010   -2.322051    0.177627
     41          6           0       -7.087118   -3.608146   -0.541157
     42          8           0       -6.380666   -4.502329   -0.075530
     43          8           0       -7.734580   -3.657367   -1.799577
     44          6           0       -7.534092   -4.936340   -2.480212
     45          1           0      -14.187477   -3.368654    0.723151
     46          1           0      -15.131569    3.012096   -0.257433
     47          1           0       -8.846741    3.702222   -0.702781
     48          1           0       -9.490815   -4.565782    0.426867
     49          1           0      -12.051275   -4.678143    1.696607
     50          1           0      -11.209271   -4.860929   -1.212366
     51          1           0      -12.880754   -4.807707   -0.797848
     52          1           0      -11.927975   -6.118023   -0.160789
     53          1           0      -10.437485   -4.207877    3.141779
     54          1           0       -9.213843   -3.079362    2.918287
     55          1           0       -7.642566   -4.488900    3.101985
     56          1           0       -8.106465   -5.571172    1.887220
     57          1           0      -16.372658   -2.791153    1.466095
     58          1           0      -16.531061   -2.831230   -0.289360
     59          1           0      -17.692727   -1.970308    0.802996
     60          1           0      -17.260647    2.928815   -0.794849
     61          1           0      -16.969239    3.070495    0.973595
     62          1           0      -18.625796    2.842776    0.405136
     63          1           0      -13.295420    5.033317    0.361904
     64          1           0      -11.331176    4.851939   -1.909138
     65          1           0      -14.912934    4.575117   -1.467104
     66          1           0      -13.532531    4.629038   -2.597456
     67          1           0      -13.987730    6.061644   -1.846301
     68          1           0       -9.837666    5.207768    0.478131
     69          1           0      -11.277964    5.973790    0.926988
     70          1           0      -10.655965    7.724839   -0.112199
     71          1           0      -10.694944    6.969584   -1.661624
     72          1           0       -9.194198    6.917704   -0.799418
     73          1           0       -5.717225    1.674358   -1.796788
     74          1           0       -6.202545    3.024191   -0.741741
     75          1           0       -7.084523    2.778110   -2.284228
     76          1           0       -6.959573   -2.447564    1.152557
     77          1           0       -8.364192   -5.143755   -3.155634
     78          1           0       -7.597809   -5.771410   -1.784016
     79          1           0       -6.576486   -4.999981   -2.997706
     80         12           0       10.814686    0.867446   -0.225853
     81          6           0       12.421640   -2.165939    0.043516
     82          6           0        7.859916   -0.719796    0.417803
     83          6           0        9.619862    3.793401    0.735342
     84          6           0       13.943761    2.340321   -0.831667
     85          7           0       10.347707   -1.157342    0.638569
     86          6           0       11.105233   -2.263563    0.423066
     87          6           0       10.363059   -3.537872    0.698263
     88          6           0        8.904823   -3.070565    0.384862
     89          6           0        9.042668   -1.555405    0.404391
     90          6           0        8.342674   -3.671084   -0.935507
     91          6           0       10.514062   -4.012395    2.229918
     92          6           0       10.567554   -5.594332    2.455986
     93          1           0        9.404460   -5.976940    3.337386
     94          7           0        8.926561    1.469725    0.289407
     95          6           0        7.848691    0.715114    0.596514
     96          6           0        6.731164    1.556002    1.006671
     97          6           0        7.222854    2.875996    1.070580
     98          6           0        8.657746    2.745703    0.691124
     99          6           0        5.350865    0.944116    1.348202
    100          6           0        6.430815    4.014820    1.649926
    101          8           0        5.296464    3.827665    2.005544
    102          6           0        6.979774    5.435837    1.880036
    103          7           0       11.604997    2.871923   -0.178444
    104          6           0       10.935392    3.844722    0.256418
    105          6           0       11.724820    5.094451    0.387892
    106          6           0       13.148413    4.653269   -0.134308
    107          6           0       12.917477    3.229016   -0.398724
    108          6           0       11.038631    6.294251   -0.348616
    109          6           0       14.291228    4.898915    0.956245
    110          6           0       15.777346    4.939919    0.451178
    111          7           0       12.777520    0.272518   -0.455466
    112          6           0       13.916190    0.976734   -0.802482
    113          6           0       15.011834    0.079321   -1.043677
    114          6           0       14.446568   -1.214209   -0.765132
    115          6           0       13.152441   -1.022511   -0.321180
    116          6           0       16.399537    0.422178   -1.480803
    117          6           0       14.733357   -2.607194   -0.767229
    118          8           0       15.729065   -3.295999   -1.024459
    119          6           0       13.502476   -3.266016   -0.060894
    120          6           0       13.148328   -4.474664   -0.861475
    121          8           0       13.550358   -5.622603   -0.625216
    122          8           0       12.364088   -4.113499   -1.922059
    123          6           0       12.061779   -5.324850   -2.735141
    124          1           0        6.851588   -1.135436    0.478867
    125          1           0        9.213729    4.733034    1.114139
    126          1           0       14.930306    2.806982   -0.885781
    127          1           0       10.725382   -4.221966   -0.068056
    128          1           0        8.238421   -3.441572    1.163730
    129          1           0        7.493412   -4.313729   -0.705231
    130          1           0        9.113823   -4.326155   -1.342182
    131          1           0        8.131668   -2.840578   -1.608454
    132          1           0        9.808171   -3.581969    2.940076
    133          1           0       11.444415   -3.633723    2.651958
    134          1           0       11.481331   -5.747846    3.030241
    135          1           0       10.662515   -6.261120    1.598893
    136          1           0        4.997066    1.144399    2.359477
    137          1           0        5.282538   -0.128804    1.165150
    138          1           0        4.641772    1.351423    0.628286
    139          1           0        7.248203    5.948355    0.956834
    140          1           0        7.819918    5.474299    2.573875
    141          1           0        6.206267    5.934133    2.465199
    142          1           0       11.759029    5.253780    1.465560
    143          1           0       13.492229    5.040132   -1.093293
    144          1           0       10.859377    7.063219    0.402501
    145          1           0       10.109782    5.996017   -0.835158
    146          1           0       11.703146    6.851063   -1.009100
    147          1           0       14.244176    4.128392    1.726068
    148          1           0       14.037726    5.849010    1.424235
    149          1           0       16.395040    5.826771    0.590087
    150          1           0       15.816740    4.809471   -0.629407
    151          1           0       16.347821    4.123930    0.894854
    152          1           0       16.574715    1.452737   -1.788987
    153          1           0       16.503814   -0.290176   -2.298211
    154          1           0       16.959616    0.058898   -0.619057
    155          1           0       13.675313   -3.537619    0.981028
    156          1           0       12.969989   -5.658820   -3.235846
    157          1           0       11.428573   -5.107803   -3.595426
    158          1           0       11.609802   -6.061956   -2.071119
 ---------------------------------------------------------------------

 SCF Done:  E(RCAM-B3LYP) =  -4069.79721641     A.U. after   19 cycles

 Excitation energies and oscillator strengths:

 Excited State   1:      Singlet-A      1.6801 eV  737.95 nm  f=0.6396  <S**2>=0.000
     309 -> 315       -0.15056
     311 -> 313        0.59756
     312 -> 314        0.33974
 This state for optimization and/or second-order correction.
 Total Energy, E(TD-HF/TD-DFT) =  -4069.73547297
 Copying the excited state density for this state as the 1-particle RhoCI density.

 Excited State   2:      Singlet-A      1.6942 eV  731.83 nm  f=0.1015  <S**2>=0.000
     310 -> 316        0.14355
     311 -> 313       -0.33867
     312 -> 314        0.59819

 Excited State   3:      Singlet-A      2.2124 eV  560.41 nm  f=0.0782  <S**2>=0.000
     310 -> 314        0.63560
     312 -> 316       -0.27709

 Excited State   4:      Singlet-A      2.2198 eV  558.54 nm  f=0.1840  <S**2>=0.000
     309 -> 313        0.64301
     311 -> 315        0.26460

 Excited State   5:      Singlet-A      2.7621 eV  448.87 nm  f=0.0000  <S**2>=0.000
     312 -> 313        0.70700

 The electronic state is 1-A.
 Alpha  occ. eigenvalues --  -46.89092 -46.89048 -19.25684 -19.25437 -19.21065
 Alpha  occ. eigenvalues --  -19.19900 -19.19382 -19.18921 -19.18341 -19.17775
 Alpha  occ. eigenvalues --  -14.42410 -14.42269 -14.41986 -14.41774 -14.40176
 Alpha  occ. eigenvalues --  -14.40128 -14.39039 -14.38461 -10.40408 -10.38539
 Alpha  occ. eigenvalues --  -10.35701 -10.35619 -10.35525 -10.33948 -10.32182
 Alpha  occ. eigenvalues --  -10.32026 -10.31724 -10.31591 -10.31585 -10.31162
 Alpha  occ. eigenvalues --  -10.30895 -10.30850 -10.30706 -10.30675 -10.30592
 Alpha  occ. eigenvalues --  -10.30564 -10.30126 -10.29832 -10.29232 -10.29101
 Alpha  occ. eigenvalues --  -10.28902 -10.28642 -10.28612 -10.28582 -10.28576
 Alpha  occ. eigenvalues --  -10.28444 -10.28374 -10.28359 -10.28286 -10.28258
 Alpha  occ. eigenvalues --  -10.28246 -10.28079 -10.28056 -10.28025 -10.27899
 Alpha  occ. eigenvalues --  -10.27766 -10.27716 -10.27635 -10.27534 -10.27520
 Alpha  occ. eigenvalues --  -10.27489 -10.27430 -10.27410 -10.27339 -10.27293
 Alpha  occ. eigenvalues --  -10.27135 -10.27073 -10.27038 -10.27011 -10.26901
 Alpha  occ. eigenvalues --  -10.26798 -10.26629 -10.26544 -10.26538 -10.26531
 Alpha  occ. eigenvalues --  -10.26482 -10.26381 -10.26328 -10.26191 -10.26110
 Alpha  occ. eigenvalues --  -10.26050 -10.25988 -10.25405 -10.25239 -10.25124
 Alpha  occ. eigenvalues --  -10.24303  -3.17666  -3.17611  -1.92553  -1.92492
 Alpha  occ. eigenvalues --   -1.92135  -1.92072  -1.91957  -1.91916  -1.15826
 Alpha  occ. eigenvalues --   -1.15646  -1.12088  -1.11817  -1.08008  -1.07983
 Alpha  occ. eigenvalues --   -1.07667  -1.06930  -1.06305  -1.05294  -1.04458
 Alpha  occ. eigenvalues --   -1.04314  -1.03803  -1.03398  -1.02793  -1.02697
 Alpha  occ. eigenvalues --   -0.93362  -0.92369  -0.89974  -0.89617  -0.89363
 Alpha  occ. eigenvalues --   -0.89104  -0.88574  -0.88112  -0.87907  -0.87167
 Alpha  occ. eigenvalues --   -0.87053  -0.86733  -0.86501  -0.85994  -0.84880
 Alpha  occ. eigenvalues --   -0.84322  -0.84170  -0.83690  -0.82677  -0.82154
 Alpha  occ. eigenvalues --   -0.81992  -0.81695  -0.80789  -0.80746  -0.80546
 Alpha  occ. eigenvalues --   -0.80217  -0.78309  -0.77855  -0.77694  -0.77508
 Alpha  occ. eigenvalues --   -0.76942  -0.76663  -0.76547  -0.75849  -0.75552
 Alpha  occ. eigenvalues --   -0.75356  -0.73569  -0.72563  -0.72271  -0.72089
 Alpha  occ. eigenvalues --   -0.70385  -0.69456  -0.69177  -0.69032  -0.68024
 Alpha  occ. eigenvalues --   -0.67760  -0.67611  -0.67281  -0.66708  -0.66394
 Alpha  occ. eigenvalues --   -0.65741  -0.65400  -0.65218  -0.64981  -0.64721
 Alpha  occ. eigenvalues --   -0.64331  -0.63177  -0.62295  -0.60577  -0.60380
 Alpha  occ. eigenvalues --   -0.60141  -0.59641  -0.59491  -0.59051  -0.59007
 Alpha  occ. eigenvalues --   -0.58676  -0.58104  -0.57846  -0.56941  -0.56869
 Alpha  occ. eigenvalues --   -0.56566  -0.56273  -0.56091  -0.55881  -0.55677
 Alpha  occ. eigenvalues --   -0.55540  -0.55002  -0.54920  -0.54399  -0.54019
 Alpha  occ. eigenvalues --   -0.53950  -0.53636  -0.53453  -0.53257  -0.52820
 Alpha  occ. eigenvalues --   -0.52747  -0.52530  -0.52332  -0.52258  -0.52092
 Alpha  occ. eigenvalues --   -0.51847  -0.51760  -0.51589  -0.51169  -0.51115
 Alpha  occ. eigenvalues --   -0.51072  -0.50924  -0.50590  -0.50525  -0.50337
 Alpha  occ. eigenvalues --   -0.50267  -0.50089  -0.50070  -0.49917  -0.49782
 Alpha  occ. eigenvalues --   -0.49703  -0.49553  -0.49016  -0.48957  -0.48827
 Alpha  occ. eigenvalues --   -0.48701  -0.48493  -0.48387  -0.48229  -0.48043
 Alpha  occ. eigenvalues --   -0.47774  -0.47626  -0.47551  -0.47264  -0.47259
 Alpha  occ. eigenvalues --   -0.46931  -0.46778  -0.46681  -0.46651  -0.46506
 Alpha  occ. eigenvalues --   -0.46151  -0.46090  -0.46064  -0.45954  -0.45795
 Alpha  occ. eigenvalues --   -0.45695  -0.45678  -0.45545  -0.45353  -0.45234
 Alpha  occ. eigenvalues --   -0.45197  -0.44970  -0.44932  -0.44532  -0.44286
 Alpha  occ. eigenvalues --   -0.44184  -0.44097  -0.44076  -0.44013  -0.43840
 Alpha  occ. eigenvalues --   -0.43717  -0.43313  -0.43252  -0.43038  -0.42788
 Alpha  occ. eigenvalues --   -0.42697  -0.42554  -0.42486  -0.42485  -0.42454
 Alpha  occ. eigenvalues --   -0.42117  -0.42061  -0.41858  -0.41780  -0.41762
 Alpha  occ. eigenvalues --   -0.41624  -0.41437  -0.41321  -0.41157  -0.41030
 Alpha  occ. eigenvalues --   -0.40659  -0.40174  -0.39926  -0.39514  -0.39081
 Alpha  occ. eigenvalues --   -0.38818  -0.38479  -0.38266  -0.38148  -0.37854
 Alpha  occ. eigenvalues --   -0.37575  -0.37377  -0.37309  -0.36689  -0.36576
 Alpha  occ. eigenvalues --   -0.36468  -0.36350  -0.35468  -0.34833  -0.34742
 Alpha  occ. eigenvalues --   -0.33467  -0.33259  -0.33231  -0.31791  -0.31767
 Alpha  occ. eigenvalues --   -0.31237  -0.31172  -0.30622  -0.30466  -0.30059
 Alpha  occ. eigenvalues --   -0.29926  -0.29830  -0.28831  -0.24454  -0.24051
 Alpha  occ. eigenvalues --   -0.21684  -0.21034
 Alpha virt. eigenvalues --   -0.09368  -0.08661  -0.01874  -0.01671   0.00187
 Alpha virt. eigenvalues --    0.00339   0.01759   0.01800   0.02361   0.02492
 Alpha virt. eigenvalues --    0.04094   0.04757   0.04978   0.05666   0.05935

 Mulliken charges:
               1
     1  Mg   0.834307
     2  C    0.054447
     3  C   -0.069501
     4  C   -0.042595
     5  C   -0.089404
     6  N   -0.294806
     7  C   -0.091720
     8  C   -0.014690
     9  C   -0.026198
    10  C    0.046666
    11  C    0.078053
    12  C    0.043266
    13  C   -0.061172
    14  H    0.031881
    15  N   -0.389547
    16  C    0.137855
    17  C   -0.128916
    18  C   -0.023645
    19  C    0.152782
    20  C    0.116425
    21  C   -0.020007
    22  O   -0.248416
    23  C    0.085884
    24  N   -0.230517
    25  C   -0.019173
    26  C    0.006711
    27  C   -0.010723
    28  C    0.025304
    29  C    0.055040
    30  C    0.043098
    31  C   -0.008603
    32  N   -0.375673
    33  C    0.100449
    34  C   -0.182858
    35  C   -0.033734
    36  C    0.116687
    37  C    0.133533
    38  C    0.043067
    39  O   -0.120639
    40  C    0.002786
    41  C    0.187290
    42  O   -0.212403
    43  O   -0.363311
    44  C    0.180041
    45  H   -0.018601
    46  H   -0.075968
    47  H   -0.016114
    48  H    0.012550
    49  H    0.010864
    50  H    0.015948
    51  H    0.003213
    52  H    0.023987
    53  H    0.007032
    54  H    0.023868
    55  H    0.028342
    56  H    0.032972
    57  H    0.012536
    58  H    0.023897
    59  H    0.040170
    60  H    0.042566
    61  H    0.043406
    62  H    0.036506
    63  H    0.016316
    64  H    0.018776
    65  H    0.011204
    66  H    0.003329
    67  H    0.016371
    68  H    0.007622
    69  H    0.001257
    70  H    0.009127
    71  H    0.000841
    72  H    0.018490
    73  H    0.037186
    74  H    0.029132
    75  H    0.024861
    76  H    0.038923
    77  H    0.028922
    78  H    0.028204
    79  H    0.044942
    80  Mg   0.827798
    81  C    0.029847
    82  C   -0.080191
    83  C   -0.070375
    84  C   -0.085348
    85  N   -0.279629
    86  C   -0.085707
    87  C    0.013210
    88  C   -0.095924
    89  C    0.096975
    90  C    0.091158
    91  C    0.062655
    92  C   -0.075276
    93  H    0.013807
    94  N   -0.375498
    95  C    0.100271
    96  C   -0.121753
    97  C   -0.020273
    98  C    0.147940
    99  C    0.132764
   100  C   -0.028609
   101  O   -0.180823
   102  C    0.044415
   103  N   -0.219556
   104  C   -0.003838
   105  C   -0.028915
   106  C    0.001974
   107  C   -0.020864
   108  C    0.065927
   109  C    0.026850
   110  C   -0.008531
   111  N   -0.362041
   112  C    0.142861
   113  C   -0.190148
   114  C    0.039403
   115  C    0.070709
   116  C    0.143833
   117  C    0.011036
   118  O   -0.190195
   119  C    0.005492
   120  C    0.179270
   121  O   -0.228372
   122  O   -0.342805
   123  C    0.180453
   124  H   -0.021482
   125  H   -0.067353
   126  H   -0.047294
   127  H    0.007575
   128  H    0.015937
   129  H    0.019836
   130  H    0.006425
   131  H    0.019790
   132  H    0.017431
   133  H    0.007835
   134  H    0.034962
   135  H    0.040800
   136  H    0.046300
   137  H   -0.002622
   138  H    0.029729
   139  H    0.045173
   140  H    0.039280
   141  H    0.024394
   142  H    0.019900
   143  H    0.015736
   144  H    0.008652
   145  H    0.036979
   146  H    0.015247
   147  H    0.016345
   148  H    0.011323
   149  H    0.015735
   150  H    0.014992
   151  H    0.022377
   152  H    0.021286
   153  H    0.042050
   154  H    0.041609
   155  H    0.047991
   156  H    0.046125
   157  H    0.028367
   158  H    0.044594
 Sum of Mulliken charges =  -0.00000

 Dipole moment (field-independent basis, Debye):
    X=             -4.7457    Y=              8.0972    Z=             -2.4812  Tot=              9.7079
 Quadrupole moment (field-independent basis, Debye-Ang):
   XX=           -604.8084   YY=           -473.2733   ZZ=           -503.1620
   XY=             81.8727   XZ=             15.9999   YZ=              5.6091

 Normal termination of Gaussian 16 at Wed Sep 15 19:18:46 2021.
