 Gaussian 16, Revision A.03,
 Gaussian 16:  ES64L-G16RevA.03 25-Dec-2016

 -----------------------------------------------------------
 #p cam-b3lyp/Def2SVP td=(nstates=5, root=1) density=current
 -----------------------------------------------------------

 --------------------------------
 TDDFT excited states in gaussian
 --------------------------------
 Symbolic Z-matrix:
 Charge =  0 Multiplicity = 1

                         Standard orientation:
 ---------------------------------------------------------------------
 Center     Atomic      Atomic             Coordinates (Angstroms)
 Number     Number       Type             X           Y           Z
 ---------------------------------------------------------------------
      1         12           0        0.654819   -0.015130   -0.247535
      2          6           0       -2.758113    0.280607   -0.247671
      3          6           0        0.380389   -3.350382   -0.259888
      4          6           0        4.014337   -0.139307    0.000204
      5          6           0        0.869672    3.574171    0.291008
      6          7           0       -1.066208   -1.385484    0.020938
      7          6           0       -2.358869   -1.066871   -0.117169
      8          6           0       -3.274630   -2.396065   -0.134951
      9          6           0       -2.150134   -3.498057   -0.145144
     10          6           0       -0.819537   -2.721245   -0.082949
     11          6           0       -2.338042   -4.584945    0.931106
     12          6           0       -4.238548   -2.478088   -1.352509
     13          6           0       -4.905095   -3.854272   -1.679233
     14          1           0       -6.415504   -4.050381   -1.274884
     15          7           0        2.019125   -1.554659   -0.094302
     16          6           0        1.737254   -2.834899   -0.218819
     17          6           0        2.980309   -3.590137   -0.178665
     18          6           0        4.082491   -2.702833    0.008840
     19          6           0        3.392492   -1.394659   -0.027841
     20          6           0        3.091706   -5.105657   -0.157644
     21          6           0        5.563205   -2.987988    0.237421
     22          8           0        6.316242   -2.119321    0.667980
     23          6           0        6.085291   -4.348345   -0.067524
     24          7           0        2.215906    1.512544    0.144340
     25          6           0        3.505707    1.197539    0.146488
     26          6           0        4.405033    2.444153    0.187321
     27          6           0        3.362701    3.552466    0.063656
     28          6           0        2.076784    2.828066    0.209931
     29          6           0        5.367006    2.601204    1.374335
     30          6           0        3.576519    4.471267   -1.112541
     31          6           0        3.879509    5.974177   -0.772708
     32          7           0       -0.607238    1.584197   -0.077507
     33          6           0       -0.403950    2.998885    0.054093
     34          6           0       -1.655899    3.717405   -0.037614
     35          6           0       -2.573806    2.638979   -0.173424
     36          6           0       -1.897722    1.412418   -0.179262
     37          6           0       -1.955743    5.170852   -0.146661
     38          6           0       -3.964290    2.436111   -0.493291
     39          8           0       -4.891812    3.185180   -0.834541
     40          6           0       -4.220731    0.950826   -0.438287
     41          6           0       -5.041546    0.644992    0.833961
     42          8           0       -4.880914    1.116263    1.970239
     43          8           0       -5.999006   -0.264700    0.495913
     44          6           0       -6.955930   -0.697796    1.562997
     45          1           0        0.431123   -4.433822   -0.386614
     46          1           0        5.067950   -0.093376    0.283488
     47          1           0        1.020561    4.654833    0.318050
     48          1           0       -3.793454   -2.364039    0.822432
     49          1           0       -2.164412   -3.969454   -1.127810
     50          1           0       -2.123454   -5.540898    0.454637
     51          1           0       -3.368300   -4.636398    1.283443
     52          1           0       -1.669148   -4.416781    1.775233
     53          1           0       -3.602821   -2.328950   -2.225253
     54          1           0       -5.050663   -1.760996   -1.233263
     55          1           0       -4.401774   -4.600749   -1.063931
     56          1           0       -4.847021   -4.022792   -2.754009
     57          1           0        2.110640   -5.577353   -0.212983
     58          1           0        3.575951   -5.423308    0.765456
     59          1           0        3.695583   -5.479812   -0.983375
     60          1           0        5.714747   -4.576773   -1.067226
     61          1           0        5.856054   -5.222858    0.540632
     62          1           0        7.173884   -4.391869   -0.070576
     63          1           0        5.025112    2.430618   -0.708366
     64          1           0        3.468231    4.191076    0.940484
     65          1           0        6.272652    3.008550    0.925599
     66          1           0        5.492816    1.652089    1.895144
     67          1           0        4.984279    3.221627    2.184643
     68          1           0        2.604061    4.487338   -1.603619
     69          1           0        4.374740    4.148353   -1.780253
     70          1           0        3.861034    6.122853    0.307276
     71          1           0        3.078240    6.570678   -1.209971
     72          1           0        4.786133    6.381873   -1.220059
     73          1           0       -1.034457    5.733902   -0.293673
     74          1           0       -2.306726    5.463064    0.842377
     75          1           0       -2.641776    5.249708   -0.991248
     76          1           0       -4.786161    0.745205   -1.347390
     77          1           0       -6.499095   -0.957593    2.518248
     78          1           0       -7.623334   -1.506699    1.267601
     79          1           0       -7.557617    0.183705    1.783768
 ---------------------------------------------------------------------

 SCF Done:  E(RCAM-B3LYP) =  -2034.90734627     A.U. after   19 cycles

 Excitation energies and oscillator strengths:

 Excited State   1:      Singlet-A      1.7216 eV  720.19 nm  f=0.4027  <S**2>=0.000
     155 ->158        -0.17586
     156 ->157         0.68383
     155 <-158        -0.10321
 This state for optimization and/or second-order correction.
 Total Energy, E(TD-HF/TD-DFT) =  -2034.84408032
 Copying the excited state density for this state as the 1-particle RhoCI density.

 Excited State   2:      Singlet-A      2.2690 eV  546.43 nm  f=0.1130  <S**2>=0.000
     155 ->157         0.63898
     156 ->158         0.28665

 Excited State   3:      Singlet-A      3.3983 eV  364.84 nm  f=0.0012  <S**2>=0.000
     153 ->157         0.50453
     153 ->159        -0.21368
     153 ->161         0.24653
     154 ->157        -0.32496

 Excited State   4:      Singlet-A      3.4746 eV  356.83 nm  f=0.0248  <S**2>=0.000
     153 ->157         0.31752
     154 ->157         0.56005
     156 ->158        -0.20693

 Excited State   5:      Singlet-A      3.5258 eV  351.65 nm  f=0.6100  <S**2>=0.000
     152 ->157        -0.17568
     154 ->157         0.18566
     155 ->157        -0.27410
     156 ->158         0.59177
     155 <-157         0.10073

 The electronic state is 1-A.
 Alpha  occ. eigenvalues --  -46.89186 -19.25622 -19.19537 -19.19450 -19.17674
 Alpha  occ. eigenvalues --  -14.42066 -14.41729 -14.40086 -14.39276 -10.39552
 Alpha  occ. eigenvalues --  -10.36095 -10.33340 -10.32178 -10.31679 -10.30967
 Alpha  occ. eigenvalues --  -10.30487 -10.30382 -10.30309 -10.30019 -10.29983
 Alpha  occ. eigenvalues --  -10.29349 -10.28802 -10.28580 -10.28384 -10.28096
 Alpha  occ. eigenvalues --  -10.28063 -10.27988 -10.27769 -10.27537 -10.27491
 Alpha  occ. eigenvalues --  -10.27025 -10.27023 -10.26751 -10.26705 -10.26525
 Alpha  occ. eigenvalues --  -10.26492 -10.26256 -10.26242 -10.26224 -10.26179
 Alpha  occ. eigenvalues --  -10.25712 -10.25661 -10.24396  -3.17711  -1.92603
 Alpha  occ. eigenvalues --   -1.92160  -1.92025  -1.15556  -1.10386  -1.07964
 Alpha  occ. eigenvalues --   -1.06535  -1.05727  -1.04383  -1.03874  -1.02954
 Alpha  occ. eigenvalues --   -0.91268  -0.89918  -0.88727  -0.88168  -0.87550
 Alpha  occ. eigenvalues --   -0.87154  -0.87000  -0.84187  -0.83331  -0.82357
 Alpha  occ. eigenvalues --   -0.82164  -0.81105  -0.80038  -0.78533  -0.77555
 Alpha  occ. eigenvalues --   -0.76737  -0.76095  -0.75349  -0.72631  -0.71683
 Alpha  occ. eigenvalues --   -0.69442  -0.69109  -0.67708  -0.67574  -0.65843
 Alpha  occ. eigenvalues --   -0.64886  -0.64459  -0.63942  -0.62633  -0.60728
 Alpha  occ. eigenvalues --   -0.59655  -0.58879  -0.58636  -0.57985  -0.57436
 Alpha  occ. eigenvalues --   -0.56308  -0.55658  -0.55141  -0.54538  -0.54191
 Alpha  occ. eigenvalues --   -0.53740  -0.53399  -0.52799  -0.52572  -0.52163
 Alpha  occ. eigenvalues --   -0.51681  -0.51186  -0.51112  -0.50704  -0.50481
 Alpha  occ. eigenvalues --   -0.49967  -0.49788  -0.49691  -0.49365  -0.49040
 Alpha  occ. eigenvalues --   -0.48967  -0.48568  -0.48165  -0.47791  -0.47656
 Alpha  occ. eigenvalues --   -0.47299  -0.46786  -0.46381  -0.46139  -0.45967
 Alpha  occ. eigenvalues --   -0.44982  -0.44695  -0.44517  -0.44405  -0.44128
 Alpha  occ. eigenvalues --   -0.44007  -0.43861  -0.43591  -0.42920  -0.42757
 Alpha  occ. eigenvalues --   -0.42207  -0.42017  -0.41986  -0.41835  -0.41527
 Alpha  occ. eigenvalues --   -0.41095  -0.40838  -0.40425  -0.39276  -0.39089
 Alpha  occ. eigenvalues --   -0.38265  -0.37867  -0.37051  -0.36678  -0.36203
 Alpha  occ. eigenvalues --   -0.35956  -0.34286  -0.34001  -0.33358  -0.31967
 Alpha  occ. eigenvalues --   -0.31107  -0.30590  -0.29969  -0.29668  -0.23913
 Alpha  occ. eigenvalues --   -0.21105
 Alpha virt. eigenvalues --   -0.08552  -0.01771   0.00575   0.01894   0.02551
 Alpha virt. eigenvalues --    0.04901   0.05679   0.06294   0.07160   0.07563
 Alpha virt. eigenvalues --    0.08466   0.08982   0.09075   0.09972   0.10546

 Mulliken charges:
               1
     1  Mg   0.821217
     2  C   -0.067073
     3  C   -0.073657
     4  C   -0.060109
     5  C   -0.076533
     6  N   -0.293151
     7  C   -0.058870
     8  C    0.034581
     9  C   -0.104907
    10  C    0.106063
    11  C    0.074531
    12  C    0.030433
    13  C   -0.078903
    14  H    0.000110
    15  N   -0.354226
    16  C    0.094588
    17  C   -0.162679
    18  C   -0.026013
    19  C    0.124446
    20  C    0.116011
    21  C    0.039054
    22  O   -0.201148
    23  C    0.028209
    24  N   -0.215075
    25  C   -0.011059
    26  C   -0.068074
    27  C   -0.016243
    28  C    0.005160
    29  C    0.083841
    30  C    0.049245
    31  C   -0.015350
    32  N   -0.365914
    33  C    0.127241
    34  C   -0.169558
    35  C   -0.026835
    36  C    0.169220
    37  C    0.155668
    38  C    0.026680
    39  O   -0.205934
    40  C    0.012693
    41  C    0.226463
    42  O   -0.238167
    43  O   -0.334866
    44  C    0.179440
    45  H   -0.046929
    46  H    0.003337
    47  H   -0.023638
    48  H    0.015209
    49  H    0.014749
    50  H    0.013061
    51  H    0.020646
    52  H    0.027536
    53  H    0.008297
    54  H    0.052162
    55  H    0.027543
    56  H    0.042832
    57  H    0.006110
    58  H    0.028882
    59  H    0.018781
    60  H    0.027409
    61  H    0.040092
    62  H    0.023829
    63  H    0.018461
    64  H    0.005418
    65  H    0.026583
    66  H    0.027369
    67  H    0.009861
    68  H    0.009538
    69  H    0.014701
    70  H    0.014241
    71  H    0.014206
    72  H    0.020953
    73  H   -0.004431
    74  H    0.040821
    75  H    0.058239
    76  H    0.039406
    77  H    0.040810
    78  H    0.044922
    79  H    0.038445
 Sum of Mulliken charges =  -0.00000

 Dipole moment (field-independent basis, Debye):
    X=              2.6789    Y=             -3.4428    Z=             -1.8234  Tot=              4.7280
 Quadrupole moment (field-independent basis, Debye-Ang):
   XX=           -272.1169   YY=           -229.3110   ZZ=           -258.8737
   XY=             30.3989   XZ=            -10.2014   YZ=              0.2965

 Normal termination of Gaussian 16 at Tue Oct 12 14:04:21 2021.
