 Gaussian 16, Revision A.03,
 Gaussian 16:  ES64L-G16RevA.03 25-Dec-2016

 -----------------------------------
 #p cam-b3lyp/Def2SVP td=(nstates=5)
 -----------------------------------

 --------------------------------
 TDDFT excited states in gaussian
 --------------------------------
 Symbolic Z-matrix:
 Charge =  0 Multiplicity = 1

                         Standard orientation:
 ---------------------------------------------------------------------
 Center     Atomic      Atomic             Coordinates (Angstroms)
 Number     Number       Type             X           Y           Z
 ---------------------------------------------------------------------
      1         12           0       -8.658928    0.423920   -0.424652
      2          6           0       -7.382948   -0.589418    2.564498
      3          6           0       -7.214382    3.521081    0.167057
      4          6           0       -9.589518    1.295125   -3.530711
      5          6           0       -9.491249   -2.902815   -1.215756
      6          7           0       -7.210112    1.268098    1.085403
      7          6           0       -6.895791    0.632944    2.232207
      8          6           0       -5.939570    1.404128    3.066648
      9          6           0       -6.209623    2.908874    2.437910
     10          6           0       -6.937660    2.575881    1.118590
     11          6           0       -6.995725    3.837971    3.409413
     12          6           0       -4.523452    0.912991    2.811394
     13          6           0       -3.960700    0.894271    1.315166
     14          1           0       -2.521659    1.303844    1.027404
     15          7           0       -8.439513    2.149659   -1.531528
     16          6           0       -7.928976    3.386483   -1.062596
     17          6           0       -8.223084    4.363185   -2.057435
     18          6           0       -8.850669    3.777102   -3.149675
     19          6           0       -9.041210    2.361823   -2.790148
     20          6           0       -7.810374    5.796574   -1.791249
     21          6           0       -9.200139    4.425192   -4.468037
     22          8           0       -8.895051    5.639188   -4.574578
     23          6           0       -9.640118    3.751696   -5.643561
     24          7           0       -9.230636   -0.718246   -2.200000
     25          6           0       -9.627342   -0.090516   -3.344066
     26          6           0      -10.105681   -1.109345   -4.406083
     27          6           0      -10.059939   -2.463618   -3.621328
     28          6           0       -9.490051   -2.027761   -2.282054
     29          6           0      -11.460442   -0.777789   -4.994512
     30          6           0       -9.155006   -3.561377   -4.398219
     31          6           0       -9.751126   -4.973685   -4.400971
     32          7           0       -8.510439   -1.474516    0.460448
     33          6           0       -9.051936   -2.678954    0.143034
     34          6           0       -8.952487   -3.504112    1.316106
     35          6           0       -8.331647   -2.746104    2.368472
     36          6           0       -8.063662   -1.525985    1.770188
     37          6           0       -9.187461   -4.975333    1.355679
     38          6           0       -7.796349   -2.717601    3.691607
     39          8           0       -7.862897   -3.656952    4.494445
     40          6           0       -7.207199   -1.330620    3.870651
     41          6           0       -7.880610   -0.676343    5.018794
     42          8           0       -7.856252   -1.216750    6.107066
     43          8           0       -8.404250    0.550391    4.745840
     44          6           0       -9.051531    1.216501    5.877758
     45          1           0       -7.008239    4.550512    0.467056
     46          1           0      -10.095796    1.646276   -4.432093
     47          1           0       -9.885485   -3.916494   -1.316388
     48          1           0       -6.064725    1.379863    4.149215
     49          1           0       -5.276195    3.466426    2.350487
     50          1           0       -6.412299    4.733087    3.621893
     51          1           0       -7.112900    3.288744    4.343986
     52          1           0       -7.991541    4.119816    3.064880
     53          1           0       -4.433287   -0.060368    3.294059
     54          1           0       -3.944391    1.519692    3.507496
     55          1           0       -4.499281    1.515370    0.599316
     56          1           0       -4.014411   -0.167524    1.076503
     57          1           0       -6.769550    5.860674   -2.109102
     58          1           0       -7.848925    5.980887   -0.718363
     59          1           0       -8.399789    6.570394   -2.283988
     60          1           0       -9.325853    4.270704   -6.549632
     61          1           0      -10.700651    3.497031   -5.630184
     62          1           0       -9.040086    2.843452   -5.679861
     63          1           0       -9.316365   -1.068333   -5.157495
     64          1           0      -11.076984   -2.796176   -3.414555
     65          1           0      -11.862551    0.181486   -4.669719
     66          1           0      -12.273807   -1.502872   -4.986481
     67          1           0      -11.212487   -0.536561   -6.028574
     68          1           0       -8.146010   -3.664141   -3.998747
     69          1           0       -8.947728   -3.266795   -5.426831
     70          1           0      -10.114347   -5.183682   -5.406623
     71          1           0      -10.635507   -4.970243   -3.763465
     72          1           0       -9.033997   -5.739288   -4.104460
     73          1           0      -10.212724   -5.325111    1.241046
     74          1           0       -8.780531   -5.301647    2.313515
     75          1           0       -8.656170   -5.497237    0.559712
     76          1           0       -6.153534   -1.478668    4.109030
     77          1           0       -8.314119    1.306487    6.675913
     78          1           0       -9.966126    0.722878    6.206709
     79          1           0       -9.469361    2.175313    5.571189
     80         12           0        8.911904    0.137986    0.024537
     81          6           0        6.508669   -2.359867    0.304918
     82          6           0        6.770069    2.309067    1.587167
     83          6           0       11.174511    2.617011   -0.566454
     84          6           0       10.853733   -2.218353   -1.794884
     85          7           0        6.871335    0.003310    0.815925
     86          6           0        6.156493   -1.160926    0.917592
     87          6           0        4.877754   -0.818369    1.686015
     88          6           0        4.859560    0.695337    1.802781
     89          6           0        6.293476    1.024242    1.403182
     90          6           0        3.828167    1.493173    1.051001
     91          6           0        4.677319   -1.594552    3.073679
     92          6           0        3.496668   -1.097733    3.968601
     93          1           0        2.107007   -1.766333    3.801629
     94          7           0        9.003828    2.132657    0.589922
     95          6           0        8.023012    2.849395    1.193106
     96          6           0        8.504014    4.202747    1.293822
     97          6           0        9.779242    4.282445    0.660850
     98          6           0       10.037308    3.003386    0.171198
     99          6           0        7.676010    5.253248    1.967347
    100          6           0       10.610278    5.576432    0.420771
    101          8           0       11.499165    5.623204   -0.410650
    102          6           0       10.323850    6.847624    1.065677
    103          7           0       10.641975    0.164450   -0.969186
    104          6           0       11.461062    1.289319   -1.061354
    105          6           0       12.772435    1.003441   -1.813543
    106          6           0       12.740994   -0.559299   -1.918731
    107          6           0       11.323233   -0.894096   -1.485453
    108          6           0       13.042679    1.823641   -3.006499
    109          6           0       13.881691   -1.434164   -1.154829
    110          6           0       14.802989   -2.371065   -1.941771
    111          7           0        8.722729   -1.926756   -0.698714
    112          6           0        9.591772   -2.694660   -1.421847
    113          6           0        9.062661   -3.997196   -1.649031
    114          6           0        7.825953   -3.952589   -0.898682
    115          6           0        7.641641   -2.625859   -0.418074
    116          6           0        9.771221   -5.070339   -2.384130
    117          6           0        6.727099   -4.766506   -0.432127
    118          8           0        6.456223   -5.948515   -0.513305
    119          6           0        5.793636   -3.700012    0.393122
    120          6           0        4.377794   -3.757651   -0.051705
    121          8           0        4.004012   -3.416090   -1.152320
    122          8           0        3.554814   -4.217415    0.907025
    123          6           0        2.067043   -4.081305    0.665847
    124          1           0        6.113721    2.991275    2.131967
    125          1           0       11.879243    3.430936   -0.748079
    126          1           0       11.602553   -2.791994   -2.345361
    127          1           0        4.133320   -1.175002    0.974300
    128          1           0        4.667104    0.973673    2.838623
    129          1           0        4.468300    1.914272    0.276364
    130          1           0        3.317528    2.220739    1.682036
    131          1           0        3.119386    0.859254    0.517767
    132          1           0        5.629890   -1.403189    3.568187
    133          1           0        4.543169   -2.659084    2.885296
    134          1           0        3.286300   -0.041241    3.807048
    135          1           0        3.802195   -1.201511    5.009739
    136          1           0        6.746836    4.948371    2.449797
    137          1           0        7.357041    5.926170    1.172085
    138          1           0        8.248999    5.871143    2.658998
    139          1           0        9.305647    7.235028    1.080675
    140          1           0       10.958008    7.680619    0.762538
    141          1           0       10.658146    6.659985    2.085824
    142          1           0       13.457083    1.285129   -1.013071
    143          1           0       12.747144   -0.653492   -3.004517
    144          1           0       13.909859    2.483423   -2.967534
    145          1           0       12.160726    2.439219   -3.185408
    146          1           0       13.237226    1.245145   -3.909514
    147          1           0       13.373365   -2.056490   -0.418586
    148          1           0       14.606889   -0.892150   -0.546675
    149          1           0       14.557607   -3.430390   -1.861779
    150          1           0       15.868237   -2.185975   -1.806543
    151          1           0       14.613546   -2.194867   -3.000711
    152          1           0       10.190907   -4.644849   -3.295373
    153          1           0        9.137222   -5.934238   -2.581885
    154          1           0       10.689588   -5.283857   -1.836273
    155          1           0        5.807702   -4.046283    1.426055
    156          1           0        1.659232   -4.819909    1.355591
    157          1           0        1.860925   -4.314740   -0.378527
    158          1           0        1.791495   -3.075034    0.981772
 ---------------------------------------------------------------------

 SCF Done:  E(RCAM-B3LYP) =  -4069.81299602     A.U. after   18 cycles

 Excitation energies and oscillator strengths:

 Excited State   1:      Singlet-A      1.6975 eV  730.41 nm  f=0.3339  <S**2>=0.000
     310 -> 316       -0.17812
     312 -> 314        0.68233
     310 <- 316       -0.10775
 This state for optimization and/or second-order correction.
 Total Energy, E(TD-HF/TD-DFT) =  -4069.75061518
 Copying the excited state density for this state as the 1-particle RhoCI density.

 Excited State   2:      Singlet-A      1.7425 eV  711.55 nm  f=0.4349  <S**2>=0.000
     309 -> 315        0.17632
     311 -> 313        0.68176
     309 <- 315        0.10355

 Excited State   3:      Singlet-A      2.2170 eV  559.25 nm  f=0.1376  <S**2>=0.000
     309 -> 313        0.61600
     310 -> 314       -0.20468
     311 -> 315       -0.23959

 Excited State   4:      Singlet-A      2.2227 eV  557.82 nm  f=0.0900  <S**2>=0.000
     309 -> 313        0.20892
     310 -> 314        0.59832
     312 -> 316        0.28572

 Excited State   5:      Singlet-A      2.7020 eV  458.86 nm  f=0.0000  <S**2>=0.000
     312 -> 313        0.70699

 The electronic state is 1-A.
 Alpha  occ. eigenvalues --  -46.89180 -46.87836 -19.26493 -19.24323 -19.19578
 Alpha  occ. eigenvalues --  -19.19050 -19.18608 -19.18358 -19.18215 -19.18179
 Alpha  occ. eigenvalues --  -14.42674 -14.42144 -14.42142 -14.41998 -14.39859
 Alpha  occ. eigenvalues --  -14.39009 -14.38677 -14.38396 -10.39566 -10.37887
 Alpha  occ. eigenvalues --  -10.35555 -10.34888 -10.34593 -10.34530 -10.32843
 Alpha  occ. eigenvalues --  -10.31986 -10.31736 -10.31557 -10.31283 -10.31278
 Alpha  occ. eigenvalues --  -10.31091 -10.31068 -10.30574 -10.30464 -10.30397
 Alpha  occ. eigenvalues --  -10.30302 -10.29764 -10.29655 -10.29517 -10.29265
 Alpha  occ. eigenvalues --  -10.29248 -10.28956 -10.28659 -10.28488 -10.28471
 Alpha  occ. eigenvalues --  -10.28401 -10.28345 -10.28283 -10.28257 -10.28159
 Alpha  occ. eigenvalues --  -10.28095 -10.28078 -10.28033 -10.27800 -10.27486
 Alpha  occ. eigenvalues --  -10.27470 -10.27465 -10.27446 -10.27438 -10.27414
 Alpha  occ. eigenvalues --  -10.27357 -10.27257 -10.27198 -10.27181 -10.27101
 Alpha  occ. eigenvalues --  -10.27025 -10.26996 -10.26995 -10.26927 -10.26891
 Alpha  occ. eigenvalues --  -10.26832 -10.26824 -10.26817 -10.26569 -10.26502
 Alpha  occ. eigenvalues --  -10.26468 -10.26215 -10.26132 -10.25705 -10.25627
 Alpha  occ. eigenvalues --  -10.25605 -10.25561 -10.25462 -10.25199 -10.25020
 Alpha  occ. eigenvalues --  -10.24623  -3.17632  -3.16496  -1.92508  -1.92107
 Alpha  occ. eigenvalues --   -1.91914  -1.91411  -1.90953  -1.90798  -1.17517
 Alpha  occ. eigenvalues --   -1.15758  -1.10953  -1.09436  -1.09144  -1.08449
 Alpha  occ. eigenvalues --   -1.08083  -1.06648  -1.05195  -1.05073  -1.04603
 Alpha  occ. eigenvalues --   -1.04069  -1.03277  -1.02803  -1.02312  -1.01585
 Alpha  occ. eigenvalues --   -0.94157  -0.92384  -0.89361  -0.89159  -0.89082
 Alpha  occ. eigenvalues --   -0.88856  -0.88676  -0.88290  -0.87882  -0.87531
 Alpha  occ. eigenvalues --   -0.86938  -0.86665  -0.86391  -0.85906  -0.85171
 Alpha  occ. eigenvalues --   -0.84598  -0.84175  -0.83659  -0.83419  -0.82889
 Alpha  occ. eigenvalues --   -0.82614  -0.82408  -0.81548  -0.81355  -0.80988
 Alpha  occ. eigenvalues --   -0.80683  -0.78755  -0.78694  -0.78063  -0.77756
 Alpha  occ. eigenvalues --   -0.77228  -0.77106  -0.76297  -0.75825  -0.75109
 Alpha  occ. eigenvalues --   -0.75036  -0.72738  -0.72589  -0.72204  -0.71772
 Alpha  occ. eigenvalues --   -0.70281  -0.69336  -0.69171  -0.68906  -0.68890
 Alpha  occ. eigenvalues --   -0.68179  -0.67198  -0.66878  -0.66601  -0.65503
 Alpha  occ. eigenvalues --   -0.65422  -0.65386  -0.65312  -0.64624  -0.64497
 Alpha  occ. eigenvalues --   -0.64158  -0.63910  -0.61342  -0.60495  -0.60312
 Alpha  occ. eigenvalues --   -0.59828  -0.59703  -0.59406  -0.58925  -0.58911
 Alpha  occ. eigenvalues --   -0.58783  -0.58470  -0.58093  -0.57915  -0.57238
 Alpha  occ. eigenvalues --   -0.56928  -0.56647  -0.56321  -0.55885  -0.55719
 Alpha  occ. eigenvalues --   -0.55331  -0.55232  -0.54742  -0.54621  -0.54518
 Alpha  occ. eigenvalues --   -0.54334  -0.53839  -0.53747  -0.53530  -0.53145
 Alpha  occ. eigenvalues --   -0.53108  -0.52934  -0.52565  -0.52544  -0.52309
 Alpha  occ. eigenvalues --   -0.52018  -0.51974  -0.51853  -0.51551  -0.51262
 Alpha  occ. eigenvalues --   -0.51143  -0.50959  -0.50939  -0.50793  -0.50459
 Alpha  occ. eigenvalues --   -0.50403  -0.50268  -0.49894  -0.49674  -0.49539
 Alpha  occ. eigenvalues --   -0.49387  -0.49285  -0.49194  -0.49074  -0.48939
 Alpha  occ. eigenvalues --   -0.48834  -0.48746  -0.48565  -0.48561  -0.48274
 Alpha  occ. eigenvalues --   -0.48192  -0.47702  -0.47689  -0.47413  -0.47171
 Alpha  occ. eigenvalues --   -0.47057  -0.46802  -0.46788  -0.46553  -0.46503
 Alpha  occ. eigenvalues --   -0.46489  -0.46460  -0.46197  -0.46120  -0.46024
 Alpha  occ. eigenvalues --   -0.45797  -0.45721  -0.45348  -0.45105  -0.45056
 Alpha  occ. eigenvalues --   -0.44939  -0.44741  -0.44737  -0.44685  -0.44620
 Alpha  occ. eigenvalues --   -0.44363  -0.44194  -0.43972  -0.43802  -0.43638
 Alpha  occ. eigenvalues --   -0.43634  -0.43340  -0.42914  -0.42758  -0.42651
 Alpha  occ. eigenvalues --   -0.42511  -0.42352  -0.42307  -0.41964  -0.41923
 Alpha  occ. eigenvalues --   -0.41842  -0.41785  -0.41431  -0.41369  -0.41286
 Alpha  occ. eigenvalues --   -0.41224  -0.41059  -0.40920  -0.40535  -0.40327
 Alpha  occ. eigenvalues --   -0.40164  -0.39551  -0.39454  -0.39236  -0.39236
 Alpha  occ. eigenvalues --   -0.38800  -0.38746  -0.37934  -0.37805  -0.37687
 Alpha  occ. eigenvalues --   -0.37608  -0.37221  -0.36984  -0.36841  -0.36242
 Alpha  occ. eigenvalues --   -0.36079  -0.35964  -0.34786  -0.34073  -0.34024
 Alpha  occ. eigenvalues --   -0.33934  -0.33181  -0.32917  -0.31855  -0.31278
 Alpha  occ. eigenvalues --   -0.30931  -0.30924  -0.30525  -0.30168  -0.30154
 Alpha  occ. eigenvalues --   -0.29681  -0.29057  -0.29004  -0.24369  -0.24162
 Alpha  occ. eigenvalues --   -0.21739  -0.21086
 Alpha virt. eigenvalues --   -0.09211  -0.08756  -0.01948  -0.01833   0.00072
 Alpha virt. eigenvalues --    0.00659   0.01275   0.01945   0.02770   0.03420
 Alpha virt. eigenvalues --    0.04786   0.04875   0.05297   0.05385   0.05953

 Mulliken charges:
               1
     1  Mg   0.798294
     2  C    0.011923
     3  C   -0.058046
     4  C   -0.074534
     5  C   -0.069014
     6  N   -0.239929
     7  C   -0.031984
     8  C   -0.029850
     9  C   -0.077556
    10  C    0.066859
    11  C    0.065675
    12  C    0.047366
    13  C   -0.074325
    14  H    0.017308
    15  N   -0.433606
    16  C    0.129168
    17  C   -0.132426
    18  C   -0.006446
    19  C    0.148082
    20  C    0.133159
    21  C   -0.016078
    22  O   -0.242149
    23  C    0.083832
    24  N   -0.253724
    25  C    0.012261
    26  C   -0.005305
    27  C   -0.034359
    28  C    0.078964
    29  C    0.065102
    30  C    0.032547
    31  C   -0.000172
    32  N   -0.354090
    33  C    0.076864
    34  C   -0.160841
    35  C    0.052200
    36  C    0.082254
    37  C    0.092084
    38  C   -0.004455
    39  O   -0.166125
    40  C   -0.005094
    41  C    0.184368
    42  O   -0.197411
    43  O   -0.322792
    44  C    0.181828
    45  H   -0.029192
    46  H   -0.058225
    47  H   -0.032681
    48  H   -0.003398
    49  H    0.009980
    50  H    0.015349
    51  H    0.005684
    52  H    0.018344
    53  H   -0.000385
    54  H    0.006511
    55  H    0.058153
    56  H    0.043861
    57  H    0.028917
    58  H    0.008931
    59  H    0.039566
    60  H    0.034272
    61  H    0.054699
    62  H    0.027491
    63  H    0.023740
    64  H    0.016354
    65  H    0.015812
    66  H    0.029257
    67  H    0.005400
    68  H    0.012062
    69  H    0.004658
    70  H    0.012870
    71  H    0.012282
    72  H    0.025377
    73  H    0.015656
    74  H    0.034390
    75  H    0.016165
    76  H    0.059026
    77  H    0.045398
    78  H    0.040852
    79  H    0.032999
    80  Mg   0.828787
    81  C    0.048397
    82  C   -0.079055
    83  C   -0.067551
    84  C   -0.103453
    85  N   -0.255724
    86  C   -0.051882
    87  C   -0.000743
    88  C   -0.103360
    89  C    0.035615
    90  C    0.099498
    91  C    0.042586
    92  C   -0.062713
    93  H    0.014969
    94  N   -0.403891
    95  C    0.147211
    96  C   -0.142865
    97  C   -0.017925
    98  C    0.106258
    99  C    0.100527
   100  C    0.025199
   101  O   -0.202250
   102  C    0.059545
   103  N   -0.343337
   104  C    0.041627
   105  C   -0.041101
   106  C   -0.002486
   107  C    0.023008
   108  C    0.094466
   109  C    0.043920
   110  C   -0.014143
   111  N   -0.286909
   112  C    0.153075
   113  C   -0.160800
   114  C   -0.026638
   115  C    0.074259
   116  C    0.149319
   117  C    0.065583
   118  O   -0.154641
   119  C   -0.074440
   120  C    0.174458
   121  O   -0.224300
   122  O   -0.340724
   123  C    0.172852
   124  H   -0.041723
   125  H    0.001574
   126  H   -0.024327
   127  H    0.009590
   128  H   -0.002423
   129  H    0.017392
   130  H    0.021076
   131  H    0.015634
   132  H    0.008980
   133  H    0.039421
   134  H    0.022805
   135  H    0.035949
   136  H    0.015471
   137  H    0.027150
   138  H    0.024973
   139  H    0.035922
   140  H    0.022951
   141  H    0.027258
   142  H    0.010674
   143  H    0.007941
   144  H    0.017662
   145  H    0.025415
   146  H    0.006051
   147  H    0.012139
   148  H    0.010570
   149  H    0.018389
   150  H    0.023239
   151  H   -0.001828
   152  H    0.012603
   153  H    0.047942
   154  H    0.021426
   155  H    0.037506
   156  H    0.045407
   157  H    0.064791
   158  H    0.042168
 Sum of Mulliken charges =  -0.00000

 Dipole moment (field-independent basis, Debye):
    X=             -1.4290    Y=              5.7555    Z=             -0.2766  Tot=              5.9366
 Quadrupole moment (field-independent basis, Debye-Ang):
   XX=           -426.0312   YY=           -556.1027   ZZ=           -514.4568
   XY=              1.3674   XZ=             47.5989   YZ=             62.3106

 Normal termination of Gaussian 16 at Wed Sep 15 19:02:02 2021.
