 Gaussian 16, Revision A.03,
 Gaussian 16:  ES64L-G16RevA.03 25-Dec-2016

 ----------------------------------------------------------
 #p cam-b3lyp/Def2SVP td=(nstates=5) density=(transition=1)
 ----------------------------------------------------------

 --------------------------------
 TDDFT excited states in gaussian
 --------------------------------
 Symbolic Z-matrix:
 Charge =  0 Multiplicity = 1

                         Standard orientation:
 ---------------------------------------------------------------------
 Center     Atomic      Atomic             Coordinates (Angstroms)
 Number     Number       Type             X           Y           Z
 ---------------------------------------------------------------------
      1         12           0      -17.809904   -0.676301    0.137971
      2          6           0      -17.446932    2.726432   -0.269081
      3          6           0      -16.875901   -0.248624    3.401677
      4          6           0      -17.879749   -4.035909    0.473484
      5          6           0      -18.170905   -1.052291   -3.299679
      6          7           0      -17.094265    1.113992    1.339483
      7          6           0      -17.219807    2.350897    1.046560
      8          6           0      -16.893768    3.408365    2.222928
      9          6           0      -16.415901    2.375437    3.318516
     10          6           0      -16.727552    0.953976    2.648745
     11          6           0      -14.836079    2.423044    3.663456
     12          6           0      -18.114817    4.317177    2.682719
     13          6           0      -17.794634    5.764488    3.199817
     14          1           0      -16.352960    6.081190    3.460396
     15          7           0      -17.517446   -1.934172    1.684879
     16          6           0      -17.202809   -1.571744    3.053390
     17          6           0      -17.180805   -2.802708    3.836670
     18          6           0      -17.358252   -3.919222    2.982060
     19          6           0      -17.641666   -3.322455    1.657233
     20          6           0      -17.007194   -2.664391    5.306355
     21          6           0      -17.406573   -5.435400    3.283945
     22          8           0      -17.463365   -6.307752    2.469087
     23          6           0      -17.186545   -5.809962    4.763594
     24          7           0      -17.890280   -2.379875   -1.200971
     25          6           0      -17.903356   -3.629792   -0.860659
     26          6           0      -17.784046   -4.564809   -2.097487
     27          6           0      -17.991938   -3.614448   -3.300991
     28          6           0      -18.043550   -2.243476   -2.586476
     29          6           0      -16.428029   -5.302118   -2.106838
     30          6           0      -19.256270   -3.978096   -4.138485
     31          6           0      -19.134943   -5.263774   -4.972447
     32          7           0      -17.817320    0.566256   -1.509051
     33          6           0      -18.079305    0.264341   -2.833609
     34          6           0      -18.109222    1.517277   -3.541195
     35          6           0      -17.826540    2.564794   -2.614204
     36          6           0      -17.699237    1.866670   -1.382453
     37          6           0      -18.315248    1.658469   -4.935852
     38          6           0      -17.708957    3.968249   -2.376897
     39          8           0      -17.717710    4.913235   -3.220996
     40          6           0      -17.338549    4.097118   -0.848491
     41          6           0      -16.048663    4.748995   -0.770801
     42          8           0      -14.969396    4.174649   -0.912427
     43          8           0      -16.282826    6.096996   -0.672895
     44          6           0      -15.061400    6.911544   -0.845381
     45          1           0      -16.556065   -0.146673    4.440353
     46          1           0      -17.911422   -5.111486    0.663074
     47          1           0      -18.359006   -1.219213   -4.362757
     48          1           0      -16.039546    3.962839    1.833552
     49          1           0      -16.944503    2.551982    4.255063
     50          1           0      -14.326634    2.916263    2.835140
     51          1           0      -14.455486    1.408463    3.780228
     52          1           0      -14.556601    2.941896    4.580981
     53          1           0      -18.548764    3.758193    3.511345
     54          1           0      -18.994820    4.307707    2.038677
     55          1           0      -18.329308    6.034114    4.110520
     56          1           0      -18.062579    6.483646    2.425735
     57          1           0      -15.949885   -2.594667    5.563567
     58          1           0      -17.581759   -3.396276    5.874264
     59          1           0      -17.479176   -1.724072    5.590202
     60          1           0      -18.036808   -5.606847    5.415415
     61          1           0      -16.314279   -5.204669    5.008246
     62          1           0      -16.880368   -6.838378    4.952883
     63          1           0      -18.638555   -5.228970   -1.970077
     64          1           0      -17.097578   -3.614141   -3.924020
     65          1           0      -15.619773   -4.813873   -1.561936
     66          1           0      -15.928501   -5.444129   -3.065749
     67          1           0      -16.629085   -6.275841   -1.660231
     68          1           0      -19.442188   -3.179434   -4.855254
     69          1           0      -20.124261   -4.050431   -3.482280
     70          1           0      -18.181405   -5.728778   -4.722133
     71          1           0      -18.957089   -4.991214   -6.012834
     72          1           0      -19.963396   -5.971713   -4.975442
     73          1           0      -19.143573    0.985338   -5.157262
     74          1           0      -17.489581    1.355888   -5.579709
     75          1           0      -18.462968    2.715866   -5.157784
     76          1           0      -18.103407    4.776412   -0.471206
     77          1           0      -14.748266    6.768794   -1.880013
     78          1           0      -14.316656    6.696290   -0.079858
     79          1           0      -15.350347    7.955283   -0.721030
     80         12           0       17.674162   -0.828365    0.104833
     81          6           0       15.923224    2.449258    0.174973
     82          6           0       20.486677    1.045052    0.167923
     83          6           0       19.056600   -3.658870   -0.248341
     84          6           0       14.517702   -2.224282   -0.768150
     85          7           0       18.108051    1.464269    0.111936
     86          6           0       17.260973    2.538973    0.323218
     87          6           0       17.971487    3.856718    0.652976
     88          6           0       19.410185    3.469688    0.190697
     89          6           0       19.375162    1.893382    0.135533
     90          6           0       19.839560    4.057195   -1.116735
     91          6           0       17.844919    4.390748    2.119162
     92          6           0       17.880099    5.866916    2.334596
     93          1           0       18.602582    6.324739    3.597620
     94          7           0       19.572491   -1.289533    0.019081
     95          6           0       20.644198   -0.378055    0.121419
     96          6           0       21.855127   -1.140022    0.225943
     97          6           0       21.393086   -2.527091    0.260919
     98          6           0       19.996043   -2.505704    0.016705
     99          6           0       23.289459   -0.533264    0.450400
    100          6           0       22.264048   -3.722139    0.500929
    101          8           0       21.815115   -4.893410    0.456325
    102          6           0       23.702093   -3.622437    0.858255
    103          7           0       16.984328   -2.657839   -0.578674
    104          6           0       17.768027   -3.737137   -0.622051
    105          6           0       17.022868   -5.045088   -1.040459
    106          6           0       15.548005   -4.585222   -0.738358
    107          6           0       15.663095   -3.036266   -0.733692
    108          6           0       17.223725   -5.382035   -2.553048
    109          6           0       15.034097   -5.096639    0.672692
    110          6           0       15.111235   -6.600970    1.008007
    111          7           0       15.625634   -0.089217   -0.191166
    112          6           0       14.473435   -0.813680   -0.474574
    113          6           0       13.349135    0.086310   -0.582680
    114          6           0       13.862814    1.358287   -0.299463
    115          6           0       15.271202    1.231956   -0.149595
    116          6           0       11.919824   -0.287065   -0.790031
    117          6           0       13.496546    2.760096   -0.145577
    118          8           0       12.435286    3.369130   -0.173180
    119          6           0       14.886938    3.472033    0.268370
    120          6           0       15.027396    4.605622   -0.629383
    121          8           0       15.143520    4.568237   -1.864453
    122          8           0       14.576059    5.713875    0.028330
    123          6           0       14.542740    6.967832   -0.653538
    124          1           0       21.343811    1.700123    0.338257
    125          1           0       19.490508   -4.652830   -0.374232
    126          1           0       13.574713   -2.713036   -1.023321
    127          1           0       17.574583    4.612042   -0.025630
    128          1           0       20.133575    3.676310    0.978884
    129          1           0       19.822498    3.249273   -1.848249
    130          1           0       20.874411    4.391903   -1.046393
    131          1           0       19.242320    4.876004   -1.517449
    132          1           0       18.699864    3.999907    2.670163
    133          1           0       16.951295    3.940650    2.550705
    134          1           0       16.826900    6.136749    2.409824
    135          1           0       18.151504    6.415908    1.432799
    136          1           0       23.699445   -0.654246    1.452648
    137          1           0       23.331186    0.511628    0.144060
    138          1           0       23.873347   -1.098925   -0.276750
    139          1           0       24.260069   -3.363860   -0.042054
    140          1           0       23.984939   -4.614108    1.212417
    141          1           0       23.767694   -2.905896    1.676339
    142          1           0       17.422120   -5.831543   -0.399114
    143          1           0       14.805702   -4.856363   -1.488458
    144          1           0       17.818269   -6.295300   -2.587479
    145          1           0       17.658317   -4.591316   -3.163738
    146          1           0       16.200458   -5.597709   -2.863736
    147          1           0       13.971129   -4.870566    0.753458
    148          1           0       15.530429   -4.473490    1.416416
    149          1           0       15.728330   -6.650796    1.904995
    150          1           0       15.653809   -7.031872    0.166069
    151          1           0       14.132426   -7.037663    1.205760
    152          1           0       11.896046   -1.363144   -0.616485
    153          1           0       11.697790   -0.056290   -1.831887
    154          1           0       11.218402    0.277237   -0.175507
    155          1           0       14.832335    3.801876    1.305670
    156          1           0       14.935616    6.887771   -1.667355
    157          1           0       15.213007    7.614154   -0.086734
    158          1           0       13.558751    7.429529   -0.585166
 ---------------------------------------------------------------------

 SCF Done:  E(RCAM-B3LYP) =  -4069.82127892     A.U. after   18 cycles

 Excitation energies and oscillator strengths:

 Excited State   1:      Singlet-A      1.6590 eV  747.34 nm  f=0.3899  <S**2>=0.000
     309 -> 316       -0.15615
     311 -> 313        0.69166
     309 <- 316       -0.10434
 This state for optimization and/or second-order correction.
 Total Energy, E(TD-HF/TD-DFT) =  -4069.76031181
 Copying the excited state density for this state as the 1-particle RhoCI density.

 Excited State   2:      Singlet-A      1.7724 eV  699.54 nm  f=0.3808  <S**2>=0.000
     310 -> 315       -0.19902
     312 -> 314        0.67935
     310 <- 315       -0.10975

 Excited State   3:      Singlet-A      2.1782 eV  569.21 nm  f=0.2130  <S**2>=0.000
     309 -> 313        0.66757
     311 -> 316        0.21707

 Excited State   4:      Singlet-A      2.2144 eV  559.90 nm  f=0.1130  <S**2>=0.000
     310 -> 314        0.64301
     312 -> 315        0.28128

 Excited State   5:      Singlet-A      2.8752 eV  431.23 nm  f=0.0000  <S**2>=0.000
     312 -> 313        0.70710

 The electronic state is 1-A.
 Alpha  occ. eigenvalues --  -46.88893 -46.88359 -19.24803 -19.24753 -19.20129
 Alpha  occ. eigenvalues --  -19.19886 -19.19411 -19.19264 -19.18200 -19.17432
 Alpha  occ. eigenvalues --  -14.42304 -14.42181 -14.41500 -14.41427 -14.39701
 Alpha  occ. eigenvalues --  -14.39640 -14.39566 -14.38905 -10.39136 -10.38511
 Alpha  occ. eigenvalues --  -10.36238 -10.35972 -10.34721 -10.33990 -10.31800
 Alpha  occ. eigenvalues --  -10.31404 -10.31226 -10.31114 -10.30798 -10.30729
 Alpha  occ. eigenvalues --  -10.30694 -10.30644 -10.30632 -10.30447 -10.30438
 Alpha  occ. eigenvalues --  -10.30386 -10.30360 -10.30299 -10.29847 -10.29397
 Alpha  occ. eigenvalues --  -10.29176 -10.29069 -10.29053 -10.28954 -10.28948
 Alpha  occ. eigenvalues --  -10.28889 -10.28885 -10.28307 -10.28149 -10.28117
 Alpha  occ. eigenvalues --  -10.28111 -10.28106 -10.28056 -10.28011 -10.27996
 Alpha  occ. eigenvalues --  -10.27920 -10.27765 -10.27749 -10.27729 -10.27579
 Alpha  occ. eigenvalues --  -10.27522 -10.27419 -10.27380 -10.27141 -10.27097
 Alpha  occ. eigenvalues --  -10.27065 -10.27048 -10.26880 -10.26711 -10.26643
 Alpha  occ. eigenvalues --  -10.26527 -10.26386 -10.26242 -10.26186 -10.26116
 Alpha  occ. eigenvalues --  -10.25939 -10.25728 -10.25630 -10.25617 -10.25593
 Alpha  occ. eigenvalues --  -10.25536 -10.25534 -10.25360 -10.25291 -10.24613
 Alpha  occ. eigenvalues --  -10.24414  -3.17554  -3.16972  -1.92424  -1.92006
 Alpha  occ. eigenvalues --   -1.91877  -1.91865  -1.91433  -1.91275  -1.16530
 Alpha  occ. eigenvalues --   -1.15479  -1.12482  -1.10219  -1.07465  -1.07182
 Alpha  occ. eigenvalues --   -1.07012  -1.06708  -1.05346  -1.04910  -1.04279
 Alpha  occ. eigenvalues --   -1.04030  -1.03657  -1.03420  -1.02530  -1.00835
 Alpha  occ. eigenvalues --   -0.93699  -0.92484  -0.89551  -0.89284  -0.88794
 Alpha  occ. eigenvalues --   -0.88323  -0.88043  -0.87805  -0.87458  -0.87445
 Alpha  occ. eigenvalues --   -0.86924  -0.86834  -0.86818  -0.86238  -0.84740
 Alpha  occ. eigenvalues --   -0.84036  -0.83874  -0.83445  -0.83143  -0.82288
 Alpha  occ. eigenvalues --   -0.82071  -0.81704  -0.81061  -0.81012  -0.80850
 Alpha  occ. eigenvalues --   -0.80241  -0.78564  -0.78512  -0.77485  -0.77353
 Alpha  occ. eigenvalues --   -0.77284  -0.76345  -0.76223  -0.75713  -0.75442
 Alpha  occ. eigenvalues --   -0.74803  -0.73354  -0.72169  -0.71426  -0.70941
 Alpha  occ. eigenvalues --   -0.69378  -0.69288  -0.68753  -0.68643  -0.68171
 Alpha  occ. eigenvalues --   -0.68145  -0.66955  -0.66940  -0.65783  -0.65698
 Alpha  occ. eigenvalues --   -0.65371  -0.65133  -0.64900  -0.64717  -0.64476
 Alpha  occ. eigenvalues --   -0.64043  -0.62052  -0.61512  -0.60749  -0.59987
 Alpha  occ. eigenvalues --   -0.59778  -0.59520  -0.59331  -0.59094  -0.58859
 Alpha  occ. eigenvalues --   -0.58395  -0.58243  -0.57841  -0.57678  -0.57627
 Alpha  occ. eigenvalues --   -0.55954  -0.55903  -0.55679  -0.55629  -0.55122
 Alpha  occ. eigenvalues --   -0.54883  -0.54623  -0.54512  -0.54196  -0.53939
 Alpha  occ. eigenvalues --   -0.53696  -0.53316  -0.53230  -0.53119  -0.52911
 Alpha  occ. eigenvalues --   -0.52873  -0.52689  -0.52560  -0.52413  -0.52031
 Alpha  occ. eigenvalues --   -0.51871  -0.51757  -0.51419  -0.51334  -0.51223
 Alpha  occ. eigenvalues --   -0.51079  -0.51019  -0.50904  -0.50678  -0.50349
 Alpha  occ. eigenvalues --   -0.50299  -0.49904  -0.49844  -0.49717  -0.49492
 Alpha  occ. eigenvalues --   -0.49395  -0.49208  -0.49104  -0.48918  -0.48731
 Alpha  occ. eigenvalues --   -0.48493  -0.48426  -0.48328  -0.48154  -0.48150
 Alpha  occ. eigenvalues --   -0.47858  -0.47796  -0.47748  -0.47570  -0.47261
 Alpha  occ. eigenvalues --   -0.46998  -0.46592  -0.46526  -0.46415  -0.46381
 Alpha  occ. eigenvalues --   -0.46196  -0.46193  -0.45995  -0.45948  -0.45566
 Alpha  occ. eigenvalues --   -0.45393  -0.45115  -0.45083  -0.44976  -0.44838
 Alpha  occ. eigenvalues --   -0.44819  -0.44370  -0.44362  -0.44244  -0.44127
 Alpha  occ. eigenvalues --   -0.43949  -0.43704  -0.43703  -0.43486  -0.43271
 Alpha  occ. eigenvalues --   -0.43170  -0.43089  -0.42884  -0.42844  -0.42739
 Alpha  occ. eigenvalues --   -0.42681  -0.42628  -0.42226  -0.42111  -0.42010
 Alpha  occ. eigenvalues --   -0.41671  -0.41629  -0.41629  -0.41426  -0.41336
 Alpha  occ. eigenvalues --   -0.41151  -0.40683  -0.40633  -0.40617  -0.40166
 Alpha  occ. eigenvalues --   -0.39812  -0.39772  -0.39486  -0.39356  -0.39266
 Alpha  occ. eigenvalues --   -0.38577  -0.38240  -0.38181  -0.37944  -0.37761
 Alpha  occ. eigenvalues --   -0.37581  -0.37181  -0.36844  -0.36515  -0.36401
 Alpha  occ. eigenvalues --   -0.36283  -0.35819  -0.34612  -0.34308  -0.34272
 Alpha  occ. eigenvalues --   -0.33853  -0.33400  -0.33133  -0.31720  -0.31565
 Alpha  occ. eigenvalues --   -0.31393  -0.31161  -0.30346  -0.30130  -0.30108
 Alpha  occ. eigenvalues --   -0.29888  -0.29806  -0.29130  -0.24268  -0.23631
 Alpha  occ. eigenvalues --   -0.21726  -0.21203
 Alpha virt. eigenvalues --   -0.09655  -0.08384  -0.01656  -0.00774   0.00004
 Alpha virt. eigenvalues --    0.00294   0.01745   0.02129   0.02257   0.02638
 Alpha virt. eigenvalues --    0.03932   0.04977   0.05506   0.05976   0.05978

 Mulliken charges:
               1
     1  Mg  12.000001
     2  C    5.999948
     3  C    5.999970
     4  C    6.000061
     5  C    6.000044
     6  N    6.999980
     7  C    6.000034
     8  C    5.999991
     9  C    6.000040
    10  C    5.999961
    11  C    6.000045
    12  C    5.999951
    13  C    6.000021
    14  H    0.999855
    15  N    7.000000
    16  C    5.999993
    17  C    5.999990
    18  C    5.999973
    19  C    5.999971
    20  C    5.999996
    21  C    6.000007
    22  O    8.000008
    23  C    6.000011
    24  N    7.000020
    25  C    5.999963
    26  C    6.000008
    27  C    5.999998
    28  C    5.999983
    29  C    6.000034
    30  C    5.999962
    31  C    5.999993
    32  N    6.999991
    33  C    5.999971
    34  C    6.000058
    35  C    5.999935
    36  C    6.000029
    37  C    5.999982
    38  C    6.000048
    39  O    8.000031
    40  C    5.999985
    41  C    6.000004
    42  O    7.999861
    43  O    8.000061
    44  C    6.000025
    45  H    0.999973
    46  H    1.000040
    47  H    1.000027
    48  H    0.999920
    49  H    1.000060
    50  H    0.999861
    51  H    0.999898
    52  H    0.999955
    53  H    1.000076
    54  H    1.000084
    55  H    1.000100
    56  H    1.000037
    57  H    0.999881
    58  H    1.000078
    59  H    1.000059
    60  H    1.000103
    61  H    0.999900
    62  H    1.000017
    63  H    1.000099
    64  H    0.999923
    65  H    0.999865
    66  H    0.999932
    67  H    1.000047
    68  H    1.000046
    69  H    1.000090
    70  H    0.999935
    71  H    1.000019
    72  H    1.000117
    73  H    1.000101
    74  H    0.999942
    75  H    1.000048
    76  H    1.000084
    77  H    0.999939
    78  H    0.999883
    79  H    1.000073
    80  Mg  11.997468
    81  C    5.963121
    82  C    5.984358
    83  C    6.037608
    84  C    6.004444
    85  N    6.970776
    86  C    6.036398
    87  C    5.985441
    88  C    6.001038
    89  C    5.987896
    90  C    6.004227
    91  C    5.997936
    92  C    6.001135
    93  H    1.004491
    94  N    7.006150
    95  C    5.963814
    96  C    5.979229
    97  C    5.985911
    98  C    5.967064
    99  C    6.000850
   100  C    5.988070
   101  O    7.964206
   102  C    6.005414
   103  N    7.025691
   104  C    5.961954
   105  C    6.005128
   106  C    5.995385
   107  C    6.018537
   108  C    6.000322
   109  C    5.995105
   110  C    6.000376
   111  N    6.995760
   112  C    6.034310
   113  C    6.033301
   114  C    5.998311
   115  C    6.045663
   116  C    5.996062
   117  C    6.012745
   118  O    8.025960
   119  C    6.008290
   120  C    6.005902
   121  O    8.003224
   122  O    8.000415
   123  C    5.996577
   124  H    0.977072
   125  H    1.002625
   126  H    1.017729
   127  H    0.999633
   128  H    0.999784
   129  H    1.000332
   130  H    0.998537
   131  H    0.983461
   132  H    1.012006
   133  H    0.993387
   134  H    0.994540
   135  H    1.002137
   136  H    0.979491
   137  H    0.985378
   138  H    0.983365
   139  H    0.991400
   140  H    0.984439
   141  H    0.995240
   142  H    1.005793
   143  H    1.002140
   144  H    1.004733
   145  H    1.003181
   146  H    0.991827
   147  H    0.998140
   148  H    1.006983
   149  H    1.008055
   150  H    1.005983
   151  H    1.002473
   152  H    1.014758
   153  H    1.022701
   154  H    1.020607
   155  H    1.005170
   156  H    1.003690
   157  H    1.006116
   158  H    1.001032
 Sum of Mulliken charges = 624.00000

 Dipole moment (field-independent basis, Debye):
    X=            -11.0459    Y=              1.0385    Z=             -0.9319  Tot=             11.1337
 Quadrupole moment (field-independent basis, Debye-Ang):
   XX=           -389.4995   YY=              2.4522   ZZ=              0.7373
   XY=             25.8684   XZ=            -15.0091   YZ=              1.6085

 Normal termination of Gaussian 16 at Thu Sep 23 05:22:05 2021.
