 Gaussian 16, Revision A.03,
 Gaussian 16:  ES64L-G16RevA.03 25-Dec-2016

 -----------------------------------
 #p cam-b3lyp/Def2SVP td=(nstates=5)
 -----------------------------------

 --------------------------------
 TDDFT excited states in gaussian
 --------------------------------
 Symbolic Z-matrix:
 Charge =  0 Multiplicity = 1

                         Standard orientation:
 ---------------------------------------------------------------------
 Center     Atomic      Atomic             Coordinates (Angstroms)
 Number     Number       Type             X           Y           Z
 ---------------------------------------------------------------------
      1         12           0       17.937490   -0.660478    0.005107
      2          6           0       15.984587    2.106406    0.553107
      3          6           0       20.714782    1.342604    0.183262
      4          6           0       19.921632   -3.426149   -0.660024
      5          6           0       15.095110   -2.550000   -0.603946
      6          7           0       18.339450    1.529254    0.285230
      7          6           0       17.345042    2.418218    0.579034
      8          6           0       17.886132    3.741849    0.830023
      9          6           0       19.372441    3.637005    0.526849
     10          6           0       19.531879    2.074040    0.274879
     11          6           0       19.966110    4.495054   -0.643300
     12          6           0       17.569426    4.231432    2.284167
     13          6           0       17.347079    5.770259    2.485523
     14          1           0       18.072125    6.719970    1.511874
     15          7           0       20.050628   -0.983865   -0.089966
     16          6           0       21.016390    0.000338    0.032785
     17          6           0       22.349492   -0.618075   -0.115161
     18          6           0       22.131903   -2.042157   -0.361003
     19          6           0       20.669090   -2.217324   -0.356782
     20          6           0       23.665625    0.140126   -0.058209
     21          6           0       23.175519   -3.130321   -0.458860
     22          8           0       22.806477   -4.310383   -0.591915
     23          6           0       24.640453   -2.900555   -0.443628
     24          7           0       17.580024   -2.686128   -0.630088
     25          6           0       18.547149   -3.597543   -0.768456
     26          6           0       17.949944   -4.995149   -1.002478
     27          6           0       16.357597   -4.806207   -0.738921
     28          6           0       16.351361   -3.246421   -0.566299
     29          6           0       18.318898   -5.541575   -2.416077
     30          6           0       15.803021   -5.503553    0.533464
     31          6           0       14.850233   -6.682451    0.284907
     32          7           0       15.917428   -0.324803   -0.099507
     33          6           0       14.855399   -1.189180   -0.375145
     34          6           0       13.570529   -0.459616   -0.293983
     35          6           0       14.015643    0.837835    0.052882
     36          6           0       15.432710    0.867816    0.148087
     37          6           0       12.226944   -0.976157   -0.459723
     38          6           0       13.537857    2.176732    0.455652
     39          8           0       12.429839    2.613334    0.621234
     40          6           0       14.807236    3.052635    0.750861
     41          6           0       14.725022    4.278307   -0.059533
     42          8           0       14.894781    4.229411   -1.288484
     43          8           0       14.595407    5.430161    0.654328
     44          6           0       14.709953    6.705598   -0.045883
     45          1           0       21.578548    2.007692    0.246786
     46          1           0       20.562016   -4.276709   -0.903735
     47          1           0       14.228799   -3.210663   -0.676631
     48          1           0       17.424665    4.430709    0.121638
     49          1           0       19.971648    3.769462    1.428437
     50          1           0       19.349931    5.183303   -1.222776
     51          1           0       20.430848    3.812538   -1.354420
     52          1           0       20.827519    5.094729   -0.348215
     53          1           0       18.323662    3.847864    2.971371
     54          1           0       16.733659    3.651049    2.674549
     55          1           0       17.627299    6.057871    3.499256
     56          1           0       16.317144    6.077177    2.305909
     57          1           0       23.551004    1.182998    0.235381
     58          1           0       24.143981    0.169844   -1.037589
     59          1           0       24.275562   -0.232024    0.764750
     60          1           0       25.104426   -3.886409   -0.440419
     61          1           0       24.982021   -2.321073    0.415060
     62          1           0       24.917843   -2.273663   -1.291245
     63          1           0       18.295083   -5.625613   -0.182927
     64          1           0       15.756612   -5.062671   -1.611286
     65          1           0       18.717019   -6.556218   -2.399421
     66          1           0       19.077869   -4.916598   -2.887469
     67          1           0       17.393365   -5.444516   -2.984086
     68          1           0       15.265215   -4.826363    1.195947
     69          1           0       16.602756   -5.886946    1.167510
     70          1           0       15.089755   -7.146512   -0.671916
     71          1           0       13.836248   -6.287636    0.229546
     72          1           0       14.909934   -7.320454    1.165698
     73          1           0       11.468325   -0.328809   -0.020350
     74          1           0       12.094351   -1.974513   -0.043284
     75          1           0       11.970836   -0.892618   -1.516010
     76          1           0       14.689008    3.229615    1.820419
     77          1           0       13.908165    6.899442   -0.758909
     78          1           0       15.697868    6.818791   -0.492227
     79          1           0       14.616094    7.521618    0.670468
     80         12           0      -17.863755   -0.780852    0.071177
     81          6           0      -17.340179    2.756931   -0.556475
     82          6           0      -16.871939   -0.125792    3.225870
     83          6           0      -18.273214   -3.906646    0.585508
     84          6           0      -18.541457   -1.212840   -3.377153
     85          7           0      -17.186952    1.220429    1.228915
     86          6           0      -17.154738    2.489168    0.786065
     87          6           0      -16.880908    3.454728    1.954947
     88          6           0      -16.298658    2.374875    2.981315
     89          6           0      -16.856998    1.103394    2.496387
     90          6           0      -14.828551    2.455804    3.357084
     91          6           0      -18.200266    4.141249    2.348523
     92          6           0      -17.983126    5.526132    3.026449
     93          1           0      -16.577332    6.286814    3.030878
     94          7           0      -17.653454   -1.914000    1.725997
     95          6           0      -17.145354   -1.502755    2.943310
     96          6           0      -17.059000   -2.672815    3.811834
     97          6           0      -17.541585   -3.781571    3.073607
     98          6           0      -17.838314   -3.205766    1.731334
     99          6           0      -16.551655   -2.646281    5.184731
    100          6           0      -17.771332   -5.315705    3.531547
    101          8           0      -18.354408   -6.099060    2.833135
    102          6           0      -17.531562   -5.765952    4.983799
    103          7           0      -18.078326   -2.368431   -1.293353
    104          6           0      -18.381016   -3.558213   -0.780235
    105          6           0      -18.811981   -4.581758   -1.796058
    106          6           0      -19.265245   -3.625964   -2.926585
    107          6           0      -18.430307   -2.352086   -2.556080
    108          6           0      -17.643494   -5.560002   -2.281650
    109          6           0      -20.827429   -3.379894   -3.050283
    110          6           0      -21.825338   -4.492974   -2.616978
    111          7           0      -17.831295    0.429652   -1.645367
    112          6           0      -18.172514    0.178426   -2.933470
    113          6           0      -18.227938    1.344457   -3.692687
    114          6           0      -17.864328    2.326896   -2.816519
    115          6           0      -17.645093    1.772605   -1.570904
    116          6           0      -18.671645    1.448315   -5.149293
    117          6           0      -17.678196    3.784464   -2.756640
    118          8           0      -17.609216    4.652371   -3.613973
    119          6           0      -17.404001    4.092086   -1.219988
    120          6           0      -16.194456    4.892708   -1.145246
    121          8           0      -15.030430    4.491637   -1.243735
    122          8           0      -16.575740    6.185303   -1.213397
    123          6           0      -15.472613    7.074986   -1.529083
    124          1           0      -16.379917    0.057835    4.183368
    125          1           0      -18.364433   -4.975144    0.788811
    126          1           0      -18.850461   -1.381827   -4.410618
    127          1           0      -16.071032    4.146480    1.722912
    128          1           0      -16.793974    2.577757    3.929861
    129          1           0      -14.686684    2.736135    4.400384
    130          1           0      -14.317774    3.181759    2.724754
    131          1           0      -14.271160    1.537389    3.172743
    132          1           0      -18.662228    3.530978    3.124899
    133          1           0      -18.925434    4.208659    1.537753
    134          1           0      -18.380951    5.545344    4.041584
    135          1           0      -18.774400    6.120198    2.569418
    136          1           0      -16.638756   -1.654985    5.629026
    137          1           0      -15.508856   -2.954249    5.106494
    138          1           0      -17.076080   -3.316848    5.865834
    139          1           0      -18.213997   -5.313849    5.703473
    140          1           0      -16.463785   -5.613198    5.142229
    141          1           0      -17.617973   -6.850626    5.053088
    142          1           0      -19.583270   -5.137729   -1.263573
    143          1           0      -18.945060   -3.951994   -3.915874
    144          1           0      -18.139345   -6.529302   -2.235109
    145          1           0      -16.767111   -5.572447   -1.632704
    146          1           0      -17.297570   -5.414134   -3.304248
    147          1           0      -21.049488   -3.069466   -4.070287
    148          1           0      -20.964044   -2.600834   -2.300068
    149          1           0      -22.037574   -4.418457   -1.550715
    150          1           0      -21.339775   -5.408585   -2.956396
    151          1           0      -22.759699   -4.448884   -3.175485
    152          1           0      -19.381850    0.630873   -5.276018
    153          1           0      -17.866613    1.258659   -5.858661
    154          1           0      -19.133239    2.424635   -5.295950
    155          1           0      -18.267780    4.653338   -0.861427
    156          1           0      -15.769378    8.120290   -1.610056
    157          1           0      -14.808149    6.762614   -2.334865
    158          1           0      -14.773574    7.122948   -0.693420
 ---------------------------------------------------------------------

 SCF Done:  E(RCAM-B3LYP) =  -4069.82470186     A.U. after   18 cycles

 Excitation energies and oscillator strengths:

 Excited State   1:      Singlet-A      1.7299 eV  716.71 nm  f=0.3911  <S**2>=0.000
     309 -> 315        0.18860
     312 -> 313        0.68240
     309 <- 315        0.10885
 This state for optimization and/or second-order correction.
 Total Energy, E(TD-HF/TD-DFT) =  -4069.76112928
 Copying the excited state density for this state as the 1-particle RhoCI density.

 Excited State   2:      Singlet-A      1.8346 eV  675.83 nm  f=0.3709  <S**2>=0.000
     310 -> 316        0.18805
     311 -> 314        0.68158
     310 <- 316        0.10394

 Excited State   3:      Singlet-A      2.2402 eV  553.46 nm  f=0.1539  <S**2>=0.000
     310 -> 314        0.65514
     311 -> 316       -0.25323

 Excited State   4:      Singlet-A      2.2550 eV  549.81 nm  f=0.0874  <S**2>=0.000
     309 -> 313        0.62540
     312 -> 315       -0.31650

 Excited State   5:      Singlet-A      3.1564 eV  392.80 nm  f=0.0000  <S**2>=0.000
     312 -> 314        0.70710

 The electronic state is 1-A.
 Alpha  occ. eigenvalues --  -46.89329 -46.88876 -19.25959 -19.24854 -19.20495
 Alpha  occ. eigenvalues --  -19.19286 -19.19032 -19.18825 -19.18725 -19.18358
 Alpha  occ. eigenvalues --  -14.41820 -14.41711 -14.41448 -14.41097 -14.39921
 Alpha  occ. eigenvalues --  -14.39481 -14.39235 -14.38610 -10.39545 -10.38175
 Alpha  occ. eigenvalues --  -10.36948 -10.34954 -10.34840 -10.34782 -10.32302
 Alpha  occ. eigenvalues --  -10.31215 -10.30905 -10.30761 -10.30701 -10.30638
 Alpha  occ. eigenvalues --  -10.30600 -10.30589 -10.30488 -10.30405 -10.30097
 Alpha  occ. eigenvalues --  -10.30007 -10.29910 -10.29570 -10.29553 -10.29395
 Alpha  occ. eigenvalues --  -10.29296 -10.29171 -10.29144 -10.28684 -10.28468
 Alpha  occ. eigenvalues --  -10.28385 -10.28376 -10.28271 -10.27990 -10.27933
 Alpha  occ. eigenvalues --  -10.27893 -10.27803 -10.27757 -10.27673 -10.27517
 Alpha  occ. eigenvalues --  -10.27492 -10.27473 -10.27449 -10.27448 -10.27381
 Alpha  occ. eigenvalues --  -10.27370 -10.27337 -10.27263 -10.27231 -10.27208
 Alpha  occ. eigenvalues --  -10.27093 -10.27093 -10.26978 -10.26474 -10.26468
 Alpha  occ. eigenvalues --  -10.26184 -10.26097 -10.26055 -10.26055 -10.26047
 Alpha  occ. eigenvalues --  -10.26007 -10.26003 -10.25958 -10.25512 -10.25500
 Alpha  occ. eigenvalues --  -10.25436 -10.25348 -10.25336 -10.25241 -10.25190
 Alpha  occ. eigenvalues --  -10.23686  -3.17830  -3.17299  -1.92731  -1.92303
 Alpha  occ. eigenvalues --   -1.92221  -1.92115  -1.91739  -1.91606  -1.16446
 Alpha  occ. eigenvalues --   -1.16423  -1.12578  -1.10935  -1.09417  -1.08912
 Alpha  occ. eigenvalues --   -1.07111  -1.06595  -1.05750  -1.05168  -1.05110
 Alpha  occ. eigenvalues --   -1.04602  -1.04041  -1.03378  -1.03366  -1.00947
 Alpha  occ. eigenvalues --   -0.92476  -0.92309  -0.89136  -0.89117  -0.88711
 Alpha  occ. eigenvalues --   -0.88271  -0.88075  -0.87698  -0.87488  -0.87183
 Alpha  occ. eigenvalues --   -0.86870  -0.86723  -0.86249  -0.85554  -0.84336
 Alpha  occ. eigenvalues --   -0.83934  -0.83556  -0.83069  -0.82348  -0.82315
 Alpha  occ. eigenvalues --   -0.81909  -0.81865  -0.81204  -0.80695  -0.80540
 Alpha  occ. eigenvalues --   -0.80059  -0.78572  -0.78426  -0.77544  -0.77298
 Alpha  occ. eigenvalues --   -0.76802  -0.76602  -0.76226  -0.75676  -0.75227
 Alpha  occ. eigenvalues --   -0.74880  -0.72721  -0.72585  -0.71626  -0.71497
 Alpha  occ. eigenvalues --   -0.69628  -0.69230  -0.68727  -0.68347  -0.68018
 Alpha  occ. eigenvalues --   -0.67543  -0.66910  -0.66735  -0.65826  -0.65436
 Alpha  occ. eigenvalues --   -0.65407  -0.65036  -0.65016  -0.64634  -0.64317
 Alpha  occ. eigenvalues --   -0.63649  -0.62712  -0.61768  -0.60780  -0.59839
 Alpha  occ. eigenvalues --   -0.59577  -0.59470  -0.59208  -0.59206  -0.58738
 Alpha  occ. eigenvalues --   -0.58372  -0.58213  -0.57881  -0.57442  -0.57278
 Alpha  occ. eigenvalues --   -0.56504  -0.56040  -0.55952  -0.55440  -0.55332
 Alpha  occ. eigenvalues --   -0.55152  -0.54707  -0.54593  -0.54006  -0.53963
 Alpha  occ. eigenvalues --   -0.53752  -0.53571  -0.53436  -0.52924  -0.52912
 Alpha  occ. eigenvalues --   -0.52836  -0.52772  -0.52404  -0.52237  -0.52205
 Alpha  occ. eigenvalues --   -0.51652  -0.51641  -0.51492  -0.51266  -0.51256
 Alpha  occ. eigenvalues --   -0.51156  -0.51126  -0.50622  -0.50427  -0.50197
 Alpha  occ. eigenvalues --   -0.50002  -0.49951  -0.49830  -0.49674  -0.49355
 Alpha  occ. eigenvalues --   -0.49051  -0.48980  -0.48885  -0.48731  -0.48575
 Alpha  occ. eigenvalues --   -0.48527  -0.48462  -0.48261  -0.48100  -0.47938
 Alpha  occ. eigenvalues --   -0.47869  -0.47468  -0.47459  -0.47357  -0.47186
 Alpha  occ. eigenvalues --   -0.47093  -0.47013  -0.46698  -0.46685  -0.46276
 Alpha  occ. eigenvalues --   -0.46174  -0.45857  -0.45724  -0.45692  -0.45500
 Alpha  occ. eigenvalues --   -0.45401  -0.45186  -0.44907  -0.44899  -0.44612
 Alpha  occ. eigenvalues --   -0.44516  -0.44343  -0.44314  -0.44292  -0.44026
 Alpha  occ. eigenvalues --   -0.43865  -0.43791  -0.43769  -0.43587  -0.43478
 Alpha  occ. eigenvalues --   -0.43273  -0.43218  -0.43152  -0.42997  -0.42929
 Alpha  occ. eigenvalues --   -0.42624  -0.42607  -0.42442  -0.42221  -0.42130
 Alpha  occ. eigenvalues --   -0.42040  -0.41827  -0.41477  -0.41378  -0.41320
 Alpha  occ. eigenvalues --   -0.41143  -0.40899  -0.40675  -0.40370  -0.40325
 Alpha  occ. eigenvalues --   -0.39980  -0.39701  -0.39527  -0.39300  -0.38569
 Alpha  occ. eigenvalues --   -0.38218  -0.38176  -0.38047  -0.37463  -0.37416
 Alpha  occ. eigenvalues --   -0.37206  -0.36699  -0.36611  -0.36566  -0.36012
 Alpha  occ. eigenvalues --   -0.35884  -0.35615  -0.34137  -0.34027  -0.33955
 Alpha  occ. eigenvalues --   -0.33685  -0.33102  -0.32446  -0.31898  -0.31490
 Alpha  occ. eigenvalues --   -0.31122  -0.30883  -0.30681  -0.30574  -0.30331
 Alpha  occ. eigenvalues --   -0.30051  -0.29494  -0.29443  -0.23870  -0.23341
 Alpha  occ. eigenvalues --   -0.21332  -0.20791
 Alpha virt. eigenvalues --   -0.08278  -0.08221  -0.01710  -0.01045   0.00557
 Alpha virt. eigenvalues --    0.00600   0.02454   0.02557   0.02777   0.03101
 Alpha virt. eigenvalues --    0.04237   0.04482   0.05248   0.05756   0.05918

 Mulliken charges:
               1
     1  Mg   0.814802
     2  C   -0.017276
     3  C   -0.070465
     4  C   -0.047057
     5  C   -0.073577
     6  N   -0.243875
     7  C   -0.051352
     8  C   -0.008496
     9  C    0.010429
    10  C   -0.041606
    11  C    0.066173
    12  C    0.061631
    13  C   -0.064246
    14  H    0.001638
    15  N   -0.381026
    16  C    0.179979
    17  C   -0.151801
    18  C   -0.018599
    19  C    0.094769
    20  C    0.107333
    21  C   -0.005735
    22  O   -0.232229
    23  C    0.074379
    24  N   -0.261005
    25  C    0.046033
    26  C   -0.044090
    27  C   -0.048509
    28  C    0.017403
    29  C    0.079027
    30  C    0.027484
    31  C    0.003018
    32  N   -0.356668
    33  C    0.120868
    34  C   -0.149995
    35  C   -0.006733
    36  C    0.104781
    37  C    0.121490
    38  C    0.014261
    39  O   -0.146031
    40  C    0.025563
    41  C    0.218353
    42  O   -0.248881
    43  O   -0.321530
    44  C    0.184503
    45  H   -0.049209
    46  H    0.001120
    47  H   -0.028710
    48  H    0.022866
    49  H    0.008006
    50  H    0.027399
    51  H    0.010405
    52  H    0.004925
    53  H   -0.006465
    54  H    0.001639
    55  H    0.031367
    56  H    0.046818
    57  H    0.002014
    58  H    0.041592
    59  H    0.029925
    60  H    0.037742
    61  H    0.020604
    62  H    0.031157
    63  H    0.014315
    64  H    0.014697
    65  H    0.025688
    66  H    0.024997
    67  H    0.008118
    68  H    0.007513
    69  H    0.001666
    70  H    0.019708
    71  H    0.010883
    72  H    0.018575
    73  H    0.025126
    74  H    0.026342
    75  H    0.033709
    76  H    0.036784
    77  H    0.048330
    78  H    0.035140
    79  H    0.032078
    80  Mg   0.824302
    81  C    0.010076
    82  C   -0.058312
    83  C   -0.077532
    84  C   -0.071163
    85  N   -0.187769
    86  C   -0.104827
    87  C   -0.021619
    88  C   -0.036007
    89  C   -0.028550
    90  C    0.088072
    91  C    0.049004
    92  C   -0.037964
    93  H    0.035355
    94  N   -0.382882
    95  C    0.143294
    96  C   -0.138006
    97  C   -0.053150
    98  C    0.096507
    99  C    0.105630
   100  C    0.029680
   101  O   -0.167295
   102  C    0.040806
   103  N   -0.248123
   104  C    0.043904
   105  C   -0.049686
   106  C   -0.064500
   107  C    0.033802
   108  C    0.074636
   109  C    0.034653
   110  C    0.005247
   111  N   -0.317553
   112  C    0.075680
   113  C   -0.206278
   114  C    0.001047
   115  C    0.122212
   116  C    0.136337
   117  C    0.060785
   118  O   -0.161542
   119  C   -0.025067
   120  C    0.186378
   121  O   -0.243470
   122  O   -0.299449
   123  C    0.194916
   124  H   -0.035344
   125  H   -0.014049
   126  H   -0.022083
   127  H    0.018048
   128  H   -0.009377
   129  H    0.017782
   130  H    0.020750
   131  H    0.014803
   132  H    0.007766
   133  H    0.024731
   134  H    0.015675
   135  H    0.014626
   136  H    0.021414
   137  H    0.041774
   138  H    0.018399
   139  H    0.065161
   140  H    0.023205
   141  H    0.023971
   142  H    0.019476
   143  H   -0.009338
   144  H    0.020062
   145  H    0.023966
   146  H    0.021322
   147  H    0.012412
   148  H    0.003374
   149  H    0.029263
   150  H    0.014348
   151  H    0.015660
   152  H    0.005749
   153  H    0.029875
   154  H    0.032423
   155  H    0.043010
   156  H    0.030113
   157  H    0.042774
   158  H    0.006681
 Sum of Mulliken charges =  -0.00000

 Dipole moment (field-independent basis, Debye):
    X=              1.6663    Y=             -0.8426    Z=              7.5616  Tot=              7.7887
 Quadrupole moment (field-independent basis, Debye-Ang):
   XX=           -363.3300   YY=           -499.3206   ZZ=           -494.2943
   XY=             83.7507   XZ=            -49.7614   YZ=             24.2388

 Normal termination of Gaussian 16 at Wed Sep 15 21:35:26 2021.
