 Gaussian 16, Revision A.03,
 Gaussian 16:  ES64L-G16RevA.03 25-Dec-2016

 -----------------------------------
 #p cam-b3lyp/Def2SVP td=(nstates=5)
 -----------------------------------

 --------------------------------
 TDDFT excited states in gaussian
 --------------------------------
 Symbolic Z-matrix:
 Charge =  0 Multiplicity = 1

                         Standard orientation:
 ---------------------------------------------------------------------
 Center     Atomic      Atomic             Coordinates (Angstroms)
 Number     Number       Type             X           Y           Z
 ---------------------------------------------------------------------
      1         12           0       24.805449   -0.680041    0.348842
      2          6           0       25.534336    1.967665   -1.802089
      3          6           0       24.068698    1.483273    2.768376
      4          6           0       25.437184   -3.174255    2.599375
      5          6           0       25.635888   -2.904727   -2.200161
      6          7           0       24.642879    1.511227    0.414737
      7          6           0       24.967717    2.345829   -0.565115
      8          6           0       24.583376    3.808497   -0.137761
      9          6           0       24.227394    3.627635    1.357328
     10          6           0       24.334224    2.119388    1.561462
     11          6           0       25.281060    4.303954    2.367731
     12          6           0       23.380849    4.463274   -0.957837
     13          6           0       23.633804    5.894471   -1.287376
     14          1           0       22.578311    6.937854   -0.954919
     15          7           0       24.730945   -0.813052    2.396755
     16          6           0       24.375925    0.205264    3.241260
     17          6           0       24.117788   -0.359259    4.573258
     18          6           0       24.522708   -1.721803    4.509762
     19          6           0       24.970829   -1.927722    3.122467
     20          6           0       23.628133    0.497764    5.783955
     21          6           0       24.575316   -2.776594    5.655821
     22          8           0       24.936471   -3.938464    5.505902
     23          6           0       24.136150   -2.356176    7.007352
     24          7           0       25.453755   -2.669403    0.242227
     25          6           0       25.720437   -3.532018    1.309701
     26          6           0       26.404327   -4.818842    0.778385
     27          6           0       25.854797   -4.921994   -0.711651
     28          6           0       25.625719   -3.392611   -0.874828
     29          6           0       27.939555   -4.804064    0.940255
     30          6           0       24.581153   -5.690257   -0.922820
     31          6           0       23.247862   -5.083199   -0.601216
     32          7           0       25.260155   -0.588552   -1.663746
     33          6           0       25.614332   -1.554886   -2.576655
     34          6           0       25.908792   -0.984431   -3.893175
     35          6           0       25.993187    0.455325   -3.623234
     36          6           0       25.593651    0.608354   -2.238589
     37          6           0       26.293301   -1.710149   -5.078725
     38          6           0       26.312680    1.763301   -4.182194
     39          8           0       26.743204    2.098400   -5.221420
     40          6           0       25.940989    2.816755   -3.013342
     41          6           0       27.005166    3.851432   -2.747772
     42          8           0       27.900072    3.749107   -1.913896
     43          8           0       26.740758    4.971655   -3.535070
     44          6           0       27.649353    6.125413   -3.407004
     45          1           0       23.624719    2.017352    3.611477
     46          1           0       25.635775   -3.916795    3.375524
     47          1           0       25.790014   -3.657586   -2.975514
     48          1           0       25.437086    4.485585   -0.175888
     49          1           0       23.265733    4.028784    1.677257
     50          1           0       24.912950    5.308305    2.578181
     51          1           0       26.283109    4.452540    1.966163
     52          1           0       25.282051    3.719406    3.288479
     53          1           0       22.444166    4.422819   -0.401631
     54          1           0       23.120489    3.962746   -1.890567
     55          1           0       23.667354    5.891737   -2.376514
     56          1           0       24.569438    6.339212   -0.949574
     57          1           0       24.532742    0.849999    6.278858
     58          1           0       22.955820   -0.066751    6.430483
     59          1           0       23.219080    1.469191    5.504243
     60          1           0       24.396654   -1.379925    7.415918
     61          1           0       24.488539   -3.075185    7.746495
     62          1           0       23.076024   -2.582699    7.124557
     63          1           0       25.953333   -5.608510    1.378639
     64          1           0       26.595313   -5.331077   -1.398725
     65          1           0       28.527359   -4.988884    0.041107
     66          1           0       28.294301   -5.377838    1.796727
     67          1           0       28.269628   -3.810032    1.241486
     68          1           0       24.539149   -6.641338   -0.393366
     69          1           0       24.534809   -5.966792   -1.976238
     70          1           0       22.932934   -4.695603   -1.569912
     71          1           0       23.262424   -4.237150    0.086221
     72          1           0       22.575404   -5.863025   -0.242306
     73          1           0       25.848885   -1.167805   -5.913463
     74          1           0       25.837502   -2.697656   -5.011175
     75          1           0       27.378320   -1.722784   -5.177233
     76          1           0       25.050664    3.352493   -3.342626
     77          1           0       28.662116    5.747910   -3.550640
     78          1           0       27.599451    6.549106   -2.404305
     79          1           0       27.522652    6.986314   -4.063640
     80         12           0      -24.893250   -0.772246   -0.281134
     81          6           0      -25.524212    2.157903    1.595316
     82          6           0      -23.807454    1.220646   -2.845993
     83          6           0      -24.923774   -3.441401   -2.241365
     84          6           0      -26.478715   -2.610394    2.240565
     85          7           0      -24.844456    1.453668   -0.643182
     86          6           0      -25.052629    2.432665    0.331995
     87          6           0      -24.509633    3.795316   -0.164571
     88          6           0      -23.979646    3.467327   -1.608169
     89          6           0      -24.168035    1.930869   -1.743415
     90          6           0      -24.460740    4.356198   -2.741732
     91          6           0      -23.455689    4.477852    0.721203
     92          6           0      -23.825250    5.928429    1.136337
     93          1           0      -22.805539    6.986970    0.779049
     94          7           0      -24.338356   -1.056743   -2.259864
     95          6           0      -23.948231   -0.131921   -3.183405
     96          6           0      -23.521889   -0.844463   -4.364209
     97          6           0      -23.988166   -2.223990   -4.254035
     98          6           0      -24.459728   -2.245057   -2.877874
     99          6           0      -22.930820   -0.092002   -5.666118
    100          6           0      -24.245946   -3.254104   -5.267760
    101          8           0      -24.626960   -4.375502   -5.087351
    102          6           0      -24.012419   -2.835969   -6.716432
    103          7           0      -25.810888   -2.718753   -0.079665
    104          6           0      -25.613566   -3.658519   -1.024705
    105          6           0      -26.018548   -5.040536   -0.506691
    106          6           0      -26.161274   -4.807851    1.005994
    107          6           0      -26.114465   -3.299214    1.101856
    108          6           0      -27.381611   -5.537697   -1.174912
    109          6           0      -24.881882   -5.454269    1.745474
    110          6           0      -23.541449   -4.691182    1.563358
    111          7           0      -25.735853   -0.421417    1.628570
    112          6           0      -26.312125   -1.255942    2.508730
    113          6           0      -26.714891   -0.488865    3.656729
    114          6           0      -26.383668    0.820554    3.362886
    115          6           0      -25.838647    0.851992    2.076359
    116          6           0      -27.391767   -0.956323    4.931132
    117          6           0      -26.496003    2.166399    3.931552
    118          8           0      -26.985835    2.699582    4.886929
    119          6           0      -25.872808    3.083791    2.846464
    120          6           0      -26.937047    4.053385    2.486398
    121          8           0      -28.027183    3.685776    2.126647
    122          8           0      -26.574065    5.374650    2.692380
    123          6           0      -27.682084    6.386191    2.639231
    124          1           0      -23.273780    1.843828   -3.566781
    125          1           0      -24.846563   -4.375502   -2.802370
    126          1           0      -26.785773   -3.120464    3.156021
    127          1           0      -25.351476    4.471826   -0.313459
    128          1           0      -22.913711    3.694710   -1.631890
    129          1           0      -25.337874    4.930357   -2.446957
    130          1           0      -24.673948    3.815311   -3.664077
    131          1           0      -23.672408    5.092775   -2.894875
    132          1           0      -22.454165    4.613714    0.313014
    133          1           0      -23.283987    3.901103    1.629755
    134          1           0      -24.128523    5.979688    2.181991
    135          1           0      -24.708626    6.215515    0.567383
    136          1           0      -22.025293   -0.616800   -5.970395
    137          1           0      -22.616571    0.941412   -5.524783
    138          1           0      -23.575341    0.034008   -6.536038
    139          1           0      -22.948140   -2.600536   -6.739481
    140          1           0      -24.637530   -1.954158   -6.853352
    141          1           0      -24.180350   -3.623896   -7.451301
    142          1           0      -25.243051   -5.797141   -0.630721
    143          1           0      -27.071867   -5.106244    1.525971
    144          1           0      -27.343879   -6.627202   -1.193609
    145          1           0      -27.603860   -5.231621   -2.197736
    146          1           0      -28.151243   -5.209067   -0.476678
    147          1           0      -24.719358   -6.497007    1.473443
    148          1           0      -24.999307   -5.357669    2.824904
    149          1           0      -22.653033   -5.214756    1.914877
    150          1           0      -23.613333   -3.764674    2.133247
    151          1           0      -23.445857   -4.445249    0.505273
    152          1           0      -26.800662   -1.653594    5.524421
    153          1           0      -28.280664   -1.474122    4.571736
    154          1           0      -27.755202   -0.130227    5.542318
    155          1           0      -25.078252    3.599797    3.385165
    156          1           0      -27.179330    7.148559    2.044141
    157          1           0      -27.936590    6.792926    3.617776
    158          1           0      -28.645786    6.123962    2.203352
 ---------------------------------------------------------------------

 SCF Done:  E(RCAM-B3LYP) =  -4069.82742691     A.U. after   19 cycles

 Excitation energies and oscillator strengths:

 Excited State   1:      Singlet-A      1.6811 eV  737.52 nm  f=0.3703  <S**2>=0.000
     310 -> 316       -0.17702
     312 -> 314        0.68650
     310 <- 316       -0.10855
 This state for optimization and/or second-order correction.
 Total Energy, E(TD-HF/TD-DFT) =  -4069.76564750
 Copying the excited state density for this state as the 1-particle RhoCI density.

 Excited State   2:      Singlet-A      1.7037 eV  727.75 nm  f=0.4103  <S**2>=0.000
     309 -> 315       -0.17556
     311 -> 313        0.68728
     309 <- 315       -0.10763

 Excited State   3:      Singlet-A      2.1918 eV  565.68 nm  f=0.1387  <S**2>=0.000
     309 -> 313        0.65684
     311 -> 315        0.24837

 Excited State   4:      Singlet-A      2.2559 eV  549.59 nm  f=0.1052  <S**2>=0.000
     310 -> 314        0.63272
     312 -> 316        0.30598

 Excited State   5:      Singlet-A      2.9704 eV  417.39 nm  f=0.0000  <S**2>=0.000
     312 -> 313        0.70711

 The electronic state is 1-A.
 Alpha  occ. eigenvalues --  -46.89572 -46.87938 -19.25170 -19.25037 -19.20117
 Alpha  occ. eigenvalues --  -19.19705 -19.19634 -19.19306 -19.19201 -19.18427
 Alpha  occ. eigenvalues --  -14.42212 -14.42139 -14.41950 -14.41442 -14.39800
 Alpha  occ. eigenvalues --  -14.39302 -14.39258 -14.39244 -10.39709 -10.38821
 Alpha  occ. eigenvalues --  -10.35666 -10.35540 -10.35183 -10.34402 -10.31834
 Alpha  occ. eigenvalues --  -10.31816 -10.31556 -10.31351 -10.30803 -10.30787
 Alpha  occ. eigenvalues --  -10.30783 -10.30609 -10.30605 -10.30269 -10.30020
 Alpha  occ. eigenvalues --  -10.29991 -10.29903 -10.29768 -10.29656 -10.29494
 Alpha  occ. eigenvalues --  -10.29406 -10.29381 -10.29189 -10.28798 -10.28705
 Alpha  occ. eigenvalues --  -10.28682 -10.28398 -10.28317 -10.28310 -10.28236
 Alpha  occ. eigenvalues --  -10.28215 -10.28060 -10.28055 -10.28025 -10.27927
 Alpha  occ. eigenvalues --  -10.27919 -10.27793 -10.27685 -10.27578 -10.27556
 Alpha  occ. eigenvalues --  -10.27537 -10.27422 -10.27097 -10.27059 -10.27016
 Alpha  occ. eigenvalues --  -10.26909 -10.26722 -10.26676 -10.26582 -10.26539
 Alpha  occ. eigenvalues --  -10.26301 -10.26201 -10.26139 -10.26104 -10.26071
 Alpha  occ. eigenvalues --  -10.25990 -10.25984 -10.25949 -10.25830 -10.25638
 Alpha  occ. eigenvalues --  -10.25586 -10.25556 -10.25393 -10.25090 -10.25070
 Alpha  occ. eigenvalues --  -10.24568  -3.17975  -3.16640  -1.92858  -1.92444
 Alpha  occ. eigenvalues --   -1.92268  -1.91544  -1.91072  -1.90968  -1.15717
 Alpha  occ. eigenvalues --   -1.15172  -1.12963  -1.11698  -1.11096  -1.10178
 Alpha  occ. eigenvalues --   -1.07649  -1.07469  -1.05216  -1.05199  -1.04319
 Alpha  occ. eigenvalues --   -1.03863  -1.03597  -1.02887  -1.02155  -1.02027
 Alpha  occ. eigenvalues --   -0.92389  -0.91888  -0.89050  -0.88907  -0.88841
 Alpha  occ. eigenvalues --   -0.88651  -0.88247  -0.88038  -0.87770  -0.87201
 Alpha  occ. eigenvalues --   -0.86916  -0.86572  -0.86359  -0.86324  -0.84440
 Alpha  occ. eigenvalues --   -0.84197  -0.83614  -0.83526  -0.82559  -0.82536
 Alpha  occ. eigenvalues --   -0.81884  -0.81239  -0.81017  -0.80892  -0.80382
 Alpha  occ. eigenvalues --   -0.80195  -0.78407  -0.78263  -0.77450  -0.77289
 Alpha  occ. eigenvalues --   -0.76791  -0.76751  -0.76194  -0.75867  -0.75252
 Alpha  occ. eigenvalues --   -0.74882  -0.73132  -0.72264  -0.71793  -0.71486
 Alpha  occ. eigenvalues --   -0.69396  -0.69245  -0.69226  -0.68515  -0.68106
 Alpha  occ. eigenvalues --   -0.67770  -0.67330  -0.66776  -0.65725  -0.65513
 Alpha  occ. eigenvalues --   -0.65350  -0.65186  -0.64633  -0.64469  -0.64256
 Alpha  occ. eigenvalues --   -0.64115  -0.62307  -0.61820  -0.60441  -0.60166
 Alpha  occ. eigenvalues --   -0.59748  -0.59612  -0.59313  -0.58893  -0.58780
 Alpha  occ. eigenvalues --   -0.58154  -0.58120  -0.57784  -0.57565  -0.57250
 Alpha  occ. eigenvalues --   -0.56015  -0.55824  -0.55542  -0.55398  -0.55366
 Alpha  occ. eigenvalues --   -0.55252  -0.54855  -0.54606  -0.54226  -0.54116
 Alpha  occ. eigenvalues --   -0.53586  -0.53455  -0.53396  -0.52983  -0.52971
 Alpha  occ. eigenvalues --   -0.52700  -0.52530  -0.52468  -0.52185  -0.52156
 Alpha  occ. eigenvalues --   -0.51914  -0.51792  -0.51641  -0.51522  -0.51400
 Alpha  occ. eigenvalues --   -0.51289  -0.51256  -0.50793  -0.50424  -0.50193
 Alpha  occ. eigenvalues --   -0.50089  -0.50060  -0.49827  -0.49634  -0.49542
 Alpha  occ. eigenvalues --   -0.49535  -0.49411  -0.49348  -0.49166  -0.49062
 Alpha  occ. eigenvalues --   -0.48624  -0.48435  -0.48334  -0.48317  -0.48008
 Alpha  occ. eigenvalues --   -0.47968  -0.47818  -0.47604  -0.47498  -0.47036
 Alpha  occ. eigenvalues --   -0.46981  -0.46810  -0.46612  -0.46460  -0.46297
 Alpha  occ. eigenvalues --   -0.46161  -0.46127  -0.46114  -0.45926  -0.45766
 Alpha  occ. eigenvalues --   -0.45623  -0.45523  -0.45335  -0.45213  -0.45132
 Alpha  occ. eigenvalues --   -0.44969  -0.44652  -0.44546  -0.44407  -0.44183
 Alpha  occ. eigenvalues --   -0.44084  -0.43747  -0.43714  -0.43414  -0.43359
 Alpha  occ. eigenvalues --   -0.43343  -0.43268  -0.43084  -0.42928  -0.42820
 Alpha  occ. eigenvalues --   -0.42682  -0.42465  -0.42338  -0.42101  -0.42015
 Alpha  occ. eigenvalues --   -0.41900  -0.41592  -0.41546  -0.41492  -0.41397
 Alpha  occ. eigenvalues --   -0.41384  -0.41204  -0.40951  -0.40517  -0.40344
 Alpha  occ. eigenvalues --   -0.40253  -0.39762  -0.39149  -0.39111  -0.38682
 Alpha  occ. eigenvalues --   -0.38356  -0.38094  -0.38085  -0.37868  -0.37697
 Alpha  occ. eigenvalues --   -0.37052  -0.36996  -0.36605  -0.36550  -0.36391
 Alpha  occ. eigenvalues --   -0.36263  -0.35930  -0.34480  -0.34431  -0.34302
 Alpha  occ. eigenvalues --   -0.34110  -0.33425  -0.32826  -0.31646  -0.31426
 Alpha  occ. eigenvalues --   -0.31248  -0.31238  -0.31032  -0.30419  -0.30329
 Alpha  occ. eigenvalues --   -0.30179  -0.30043  -0.29575  -0.24206  -0.24003
 Alpha  occ. eigenvalues --   -0.21609  -0.20797
 Alpha virt. eigenvalues --   -0.09201  -0.08483  -0.01457  -0.01399   0.00383
 Alpha virt. eigenvalues --    0.00530   0.01656   0.02401   0.02482   0.02771
 Alpha virt. eigenvalues --    0.04546   0.05280   0.05562   0.05644   0.06044

 Mulliken charges:
               1
     1  Mg   0.845323
     2  C    0.027407
     3  C   -0.076842
     4  C   -0.074871
     5  C   -0.103133
     6  N   -0.243944
     7  C   -0.032153
     8  C    0.000727
     9  C   -0.076728
    10  C    0.082366
    11  C    0.038840
    12  C    0.070160
    13  C   -0.093378
    14  H    0.009679
    15  N   -0.370813
    16  C    0.094379
    17  C   -0.139763
    18  C   -0.061995
    19  C    0.101688
    20  C    0.093655
    21  C    0.039037
    22  O   -0.200704
    23  C    0.041872
    24  N   -0.293944
    25  C    0.034431
    26  C    0.001872
    27  C   -0.010276
    28  C    0.025422
    29  C    0.092675
    30  C    0.017555
    31  C    0.022126
    32  N   -0.363055
    33  C    0.153946
    34  C   -0.162541
    35  C   -0.039987
    36  C    0.088744
    37  C    0.123005
    38  C    0.056384
    39  O   -0.102370
    40  C   -0.071462
    41  C    0.218766
    42  O   -0.220130
    43  O   -0.352128
    44  C    0.187107
    45  H   -0.036738
    46  H   -0.006446
    47  H   -0.034610
    48  H    0.020348
    49  H    0.017620
    50  H    0.008618
    51  H    0.029606
    52  H    0.017113
    53  H    0.013813
    54  H    0.012983
    55  H    0.031510
    56  H    0.030133
    57  H    0.034935
    58  H    0.042245
    59  H    0.009168
    60  H    0.038130
    61  H    0.012074
    62  H    0.038772
    63  H   -0.003743
    64  H   -0.003978
    65  H    0.017251
    66  H    0.021816
    67  H    0.010556
    68  H    0.001292
    69  H   -0.002066
    70  H    0.005371
    71  H    0.031868
    72  H    0.016186
    73  H    0.033346
    74  H    0.015303
    75  H    0.051225
    76  H    0.046714
    77  H    0.036682
    78  H    0.023055
    79  H    0.042898
    80  Mg   0.813060
    81  C   -0.023643
    82  C   -0.077253
    83  C   -0.062036
    84  C   -0.064301
    85  N   -0.302486
    86  C   -0.035116
    87  C    0.006886
    88  C   -0.058637
    89  C    0.050794
    90  C    0.068885
    91  C    0.056717
    92  C   -0.088694
    93  H    0.008326
    94  N   -0.363094
    95  C    0.161208
    96  C   -0.117001
    97  C   -0.041628
    98  C    0.130645
    99  C    0.062503
   100  C   -0.022270
   101  O   -0.176330
   102  C    0.054564
   103  N   -0.263223
   104  C    0.030087
   105  C   -0.035232
   106  C   -0.014440
   107  C    0.032460
   108  C    0.066531
   109  C    0.004401
   110  C   -0.014665
   111  N   -0.320753
   112  C    0.065141
   113  C   -0.162609
   114  C   -0.035083
   115  C    0.140040
   116  C    0.116964
   117  C    0.069095
   118  O   -0.136688
   119  C    0.003820
   120  C    0.181214
   121  O   -0.201506
   122  O   -0.351217
   123  C    0.165221
   124  H   -0.034094
   125  H   -0.000967
   126  H   -0.031188
   127  H    0.018644
   128  H    0.008112
   129  H    0.008581
   130  H    0.022453
   131  H    0.009348
   132  H    0.019135
   133  H    0.009132
   134  H    0.046116
   135  H    0.015651
   136  H    0.027180
   137  H    0.003881
   138  H    0.033307
   139  H    0.021857
   140  H    0.036838
   141  H    0.022638
   142  H    0.016580
   143  H    0.012849
   144  H    0.017359
   145  H    0.035567
   146  H    0.016232
   147  H    0.020206
   148  H    0.002067
   149  H    0.023657
   150  H    0.021697
   151  H    0.021064
   152  H    0.029123
   153  H    0.019765
   154  H    0.036355
   155  H    0.033822
   156  H    0.035892
   157  H    0.044050
   158  H    0.056434
 Sum of Mulliken charges =  -0.00000

 Dipole moment (field-independent basis, Debye):
    X=              0.2709    Y=              1.5073    Z=              0.7564  Tot=              1.7080
 Quadrupole moment (field-independent basis, Debye-Ang):
   XX=           -806.1221   YY=           -478.2598   ZZ=           -521.1103
   XY=             15.9142   XZ=             71.5592   YZ=             -5.9502

 Normal termination of Gaussian 16 at Wed Sep  1 00:40:49 2021.
