 Gaussian 16, Revision A.03,
 Gaussian 16:  ES64L-G16RevA.03 25-Dec-2016

 ----------------------------------------------------------
 #p cam-b3lyp/Def2SVP td=(nstates=5) density=(transition=1)
 ----------------------------------------------------------

 --------------------------------
 TDDFT excited states in gaussian
 --------------------------------
 Symbolic Z-matrix:
 Charge =  0 Multiplicity = 1

                         Standard orientation:
 ---------------------------------------------------------------------
 Center     Atomic      Atomic             Coordinates (Angstroms)
 Number     Number       Type             X           Y           Z
 ---------------------------------------------------------------------
      1         12           0        9.033694    0.323560   -0.138657
      2          6           0        7.137916   -2.344944    1.094536
      3          6           0       10.951167   -1.769138   -1.785975
      4          6           0       11.273001    2.871246   -0.685103
      5          6           0        7.299372    2.506974    2.027064
      6          7           0        8.940150   -1.769103   -0.369612
      7          6           0        8.070951   -2.705451    0.145623
      8          6           0        8.279386   -4.076971   -0.483422
      9          6           0        9.645104   -3.880008   -1.216331
     10          6           0        9.807425   -2.399798   -1.219060
     11          6           0       10.859608   -4.659080   -0.759666
     12          6           0        7.094259   -4.581677   -1.367157
     13          6           0        7.284656   -5.972774   -1.981459
     14          1           0        6.154205   -6.964902   -1.750678
     15          7           0       10.985519    0.510756   -1.101339
     16          6           0       11.519975   -0.475121   -1.851753
     17          6           0       12.680807    0.026347   -2.533633
     18          6           0       12.849139    1.362379   -2.130887
     19          6           0       11.675937    1.624935   -1.253663
     20          6           0       13.551946   -0.812048   -3.445105
     21          6           0       13.874563    2.365068   -2.548118
     22          8           0       14.052500    3.504229   -2.039681
     23          6           0       14.802024    2.068040   -3.720110
     24          7           0        9.258405    2.343907    0.584017
     25          6           0       10.297709    3.146865    0.257292
     26          6           0       10.012783    4.650607    0.796645
     27          6           0        8.511450    4.556040    1.242785
     28          6           0        8.280506    3.078955    1.235159
     29          6           0       11.037970    4.986914    1.949130
     30          6           0        7.563426    5.169761    0.148659
     31          6           0        7.692536    4.706093   -1.293943
     32          7           0        7.438155    0.171916    1.284651
     33          6           0        6.880158    1.159661    2.048898
     34          6           0        5.875448    0.569860    2.805185
     35          6           0        5.889424   -0.828738    2.534554
     36          6           0        6.867451   -1.024350    1.595188
     37          6           0        4.989516    1.186769    3.829333
     38          6           0        5.319185   -2.162477    2.831126
     39          8           0        4.472432   -2.561756    3.622287
     40          6           0        6.059210   -3.191141    1.811943
     41          6           0        6.491378   -4.418641    2.531840
     42          8           0        6.916296   -4.445936    3.725003
     43          8           0        6.182764   -5.449380    1.756515
     44          6           0        6.098692   -6.714685    2.460509
     45          1           0       11.551210   -2.402626   -2.442739
     46          1           0       11.955975    3.701961   -0.878096
     47          1           0        6.702311    3.230676    2.584110
     48          1           0        8.282437   -4.758465    0.367471
     49          1           0        9.598037   -4.129486   -2.276910
     50          1           0       10.675451   -5.554072   -0.165414
     51          1           0       11.530542   -3.988820   -0.221688
     52          1           0       11.483243   -4.816315   -1.639922
     53          1           0        6.885367   -3.852427   -2.150303
     54          1           0        6.186924   -4.601420   -0.764341
     55          1           0        7.997861   -6.565005   -1.408408
     56          1           0        7.567174   -5.906801   -3.032555
     57          1           0       13.311973   -1.875163   -3.457799
     58          1           0       14.596532   -0.905425   -3.149091
     59          1           0       13.546400   -0.474592   -4.481995
     60          1           0       15.484117    1.275917   -3.412504
     61          1           0       15.531087    2.863044   -3.875097
     62          1           0       14.270881    1.895381   -4.656852
     63          1           0       10.194858    5.366294   -0.005082
     64          1           0        8.494454    4.963741    2.253502
     65          1           0       11.873064    4.288509    2.006216
     66          1           0       10.604138    4.976805    2.949157
     67          1           0       11.539503    5.944981    1.820246
     68          1           0        7.839927    6.218565    0.257112
     69          1           0        6.499807    5.090863    0.371547
     70          1           0        8.605639    4.124034   -1.420479
     71          1           0        7.591759    5.473086   -2.061072
     72          1           0        6.785240    4.117299   -1.429209
     73          1           0        4.434921    2.057264    3.478058
     74          1           0        5.664533    1.533437    4.611278
     75          1           0        4.300020    0.469534    4.273425
     76          1           0        5.270139   -3.470697    1.114339
     77          1           0        5.223640   -7.271824    2.123542
     78          1           0        5.989100   -6.658895    3.543287
     79          1           0        6.999594   -7.266136    2.189505
     80         12           0       -8.452919    1.039846   -0.494715
     81          6           0      -11.065448   -1.403541   -0.693148
     82          6           0       -6.212836   -1.685133   -0.504126
     83          6           0       -6.019642    3.037600    0.395404
     84          6           0      -10.810105    3.465197   -0.142846
     85          7           0       -8.655671   -1.260356   -0.640945
     86          6           0       -9.820072   -1.929957   -0.817303
     87          6           0       -9.502530   -3.388694   -1.102065
     88          6           0       -7.956885   -3.555714   -1.086267
     89          6           0       -7.564826   -2.101584   -0.760727
     90          6           0       -7.429692   -4.674759   -0.022385
     91          6           0      -10.080736   -3.882949   -2.496775
     92          6           0      -10.842208   -5.208870   -2.490552
     93          1           0      -10.437426   -6.376587   -1.503927
     94          7           0       -6.388275    0.705861   -0.052645
     95          6           0       -5.714298   -0.420845   -0.145671
     96          6           0       -4.355846   -0.139494    0.224325
     97          6           0       -4.172520    1.259758    0.362545
     98          6           0       -5.535759    1.714011    0.276712
     99          6           0       -3.243030   -1.182500    0.135214
    100          6           0       -2.957192    2.167181    0.471849
    101          8           0       -3.040984    3.367870    0.654449
    102          6           0       -1.619753    1.506968    0.278673
    103          7           0       -8.487074    2.888025    0.388434
    104          6           0       -7.291960    3.604357    0.475995
    105          6           0       -7.508593    5.135930    0.613308
    106          6           0       -9.043868    5.203419    0.267287
    107          6           0       -9.498066    3.748137    0.155107
    108          6           0       -7.113567    5.620959    2.015685
    109          6           0       -9.353495    5.908631   -1.137022
    110          6           0       -9.923350    7.287480   -1.130318
    111          7           0      -10.470188    1.082820   -0.540627
    112          6           0      -11.303009    2.163710   -0.347166
    113          6           0      -12.714063    1.789910   -0.297618
    114          6           0      -12.680583    0.356643   -0.438346
    115          6           0      -11.316620   -0.019163   -0.454339
    116          6           0      -13.837744    2.761697   -0.327766
    117          6           0      -13.486927   -0.841083   -0.616673
    118          8           0      -14.728069   -0.908241   -0.678972
    119          6           0      -12.444506   -2.089560   -0.765224
    120          6           0      -12.738936   -2.956102    0.365069
    121          8           0      -12.711428   -2.589497    1.519534
    122          8           0      -13.028985   -4.200433   -0.033027
    123          6           0      -13.425736   -5.275338    0.929742
    124          1           0       -5.471086   -2.483159   -0.576529
    125          1           0       -5.267370    3.821155    0.277555
    126          1           0      -11.528275    4.286859   -0.110930
    127          1           0       -9.920378   -3.971472   -0.281151
    128          1           0       -7.579334   -3.949034   -2.030271
    129          1           0       -8.217623   -5.391475    0.209301
    130          1           0       -7.116355   -4.101247    0.850356
    131          1           0       -6.560479   -5.189202   -0.431839
    132          1           0       -9.356334   -3.924341   -3.309029
    133          1           0      -10.816486   -3.162309   -2.853577
    134          1           0      -10.870527   -5.660367   -3.482467
    135          1           0      -11.868600   -4.892131   -2.305324
    136          1           0       -2.660272   -1.136249   -0.784912
    137          1           0       -3.612910   -2.184847    0.353158
    138          1           0       -2.574531   -0.979099    0.971472
    139          1           0       -1.578710    0.764432   -0.518801
    140          1           0       -1.227219    1.002530    1.160495
    141          1           0       -0.925108    2.235683   -0.139195
    142          1           0       -6.876100    5.619381   -0.130725
    143          1           0       -9.541274    5.754078    1.065807
    144          1           0       -6.584205    4.881996    2.617033
    145          1           0       -7.986893    5.889964    2.608817
    146          1           0       -6.491202    6.511733    1.924262
    147          1           0      -10.050156    5.367328   -1.777119
    148          1           0       -8.483045    5.938734   -1.791357
    149          1           0       -9.225023    7.985609   -1.590126
    150          1           0      -10.049197    7.493543   -0.067234
    151          1           0      -10.858359    7.316936   -1.689692
    152          1           0      -14.687519    2.368865   -0.885004
    153          1           0      -13.418266    3.700252   -0.689586
    154          1           0      -14.147790    2.909488    0.707609
    155          1           0      -12.605373   -2.642428   -1.689750
    156          1           0      -14.219970   -4.904391    1.577842
    157          1           0      -12.599665   -5.595015    1.565444
    158          1           0      -13.679710   -6.220628    0.450928
 ---------------------------------------------------------------------

 SCF Done:  E(RCAM-B3LYP) =  -4069.81543090     A.U. after   19 cycles

 Excitation energies and oscillator strengths:

 Excited State   1:      Singlet-A      1.6795 eV  738.21 nm  f=0.6196  <S**2>=0.000
     310 -> 316       -0.16310
     311 -> 313        0.21960
     312 -> 314        0.65151
     310 <- 316       -0.10146
 This state for optimization and/or second-order correction.
 Total Energy, E(TD-HF/TD-DFT) =  -4069.75370929
 Copying the excited state density for this state as the 1-particle RhoCI density.

 Excited State   2:      Singlet-A      1.7182 eV  721.57 nm  f=0.2117  <S**2>=0.000
     309 -> 315       -0.15808
     311 -> 313        0.65315
     312 -> 314       -0.21801

 Excited State   3:      Singlet-A      2.1455 eV  577.88 nm  f=0.1535  <S**2>=0.000
     309 -> 313        0.66303
     311 -> 315        0.22682

 Excited State   4:      Singlet-A      2.2000 eV  563.55 nm  f=0.1378  <S**2>=0.000
     310 -> 314        0.64968
     312 -> 316        0.26336

 Excited State   5:      Singlet-A      2.5659 eV  483.21 nm  f=0.0000  <S**2>=0.000
     312 -> 313        0.70690

 The electronic state is 1-A.
 Alpha  occ. eigenvalues --  -46.89510 -46.88519 -19.26828 -19.25180 -19.19395
 Alpha  occ. eigenvalues --  -19.19221 -19.19208 -19.18918 -19.18617 -19.18430
 Alpha  occ. eigenvalues --  -14.43032 -14.41948 -14.41782 -14.41612 -14.39888
 Alpha  occ. eigenvalues --  -14.39274 -14.38981 -14.38159 -10.39399 -10.38414
 Alpha  occ. eigenvalues --  -10.35866 -10.35647 -10.35367 -10.34990 -10.32463
 Alpha  occ. eigenvalues --  -10.32256 -10.32188 -10.31237 -10.31209 -10.31153
 Alpha  occ. eigenvalues --  -10.30907 -10.30759 -10.30653 -10.30415 -10.30209
 Alpha  occ. eigenvalues --  -10.30165 -10.29888 -10.29551 -10.29474 -10.29434
 Alpha  occ. eigenvalues --  -10.29071 -10.28922 -10.28683 -10.28678 -10.28475
 Alpha  occ. eigenvalues --  -10.28447 -10.28409 -10.28387 -10.28341 -10.28296
 Alpha  occ. eigenvalues --  -10.28115 -10.28071 -10.28033 -10.28019 -10.27903
 Alpha  occ. eigenvalues --  -10.27902 -10.27855 -10.27852 -10.27828 -10.27715
 Alpha  occ. eigenvalues --  -10.27629 -10.27527 -10.27250 -10.26984 -10.26933
 Alpha  occ. eigenvalues --  -10.26632 -10.26609 -10.26588 -10.26565 -10.26469
 Alpha  occ. eigenvalues --  -10.26450 -10.26321 -10.26270 -10.26227 -10.26124
 Alpha  occ. eigenvalues --  -10.25979 -10.25871 -10.25751 -10.25740 -10.25511
 Alpha  occ. eigenvalues --  -10.25478 -10.25464 -10.25376 -10.25001 -10.24966
 Alpha  occ. eigenvalues --  -10.24412  -3.17898  -3.17148  -1.92807  -1.92323
 Alpha  occ. eigenvalues --   -1.92212  -1.92014  -1.91609  -1.91459  -1.18264
 Alpha  occ. eigenvalues --   -1.16476  -1.10711  -1.08964  -1.08481  -1.08347
 Alpha  occ. eigenvalues --   -1.07282  -1.06080  -1.05539  -1.04545  -1.04497
 Alpha  occ. eigenvalues --   -1.03463  -1.03409  -1.03047  -1.02585  -1.01783
 Alpha  occ. eigenvalues --   -0.92066  -0.92000  -0.89745  -0.89397  -0.88551
 Alpha  occ. eigenvalues --   -0.88519  -0.88173  -0.88120  -0.88009  -0.87258
 Alpha  occ. eigenvalues --   -0.87004  -0.86889  -0.86305  -0.85811  -0.84945
 Alpha  occ. eigenvalues --   -0.84135  -0.84042  -0.83901  -0.83021  -0.82579
 Alpha  occ. eigenvalues --   -0.81984  -0.81684  -0.81466  -0.81191  -0.80794
 Alpha  occ. eigenvalues --   -0.80589  -0.79001  -0.78134  -0.77706  -0.77587
 Alpha  occ. eigenvalues --   -0.77504  -0.76763  -0.76262  -0.76190  -0.75354
 Alpha  occ. eigenvalues --   -0.74737  -0.72876  -0.72383  -0.71879  -0.71317
 Alpha  occ. eigenvalues --   -0.70036  -0.69287  -0.68644  -0.68494  -0.67818
 Alpha  occ. eigenvalues --   -0.67725  -0.67549  -0.66883  -0.65683  -0.65472
 Alpha  occ. eigenvalues --   -0.65342  -0.65068  -0.64813  -0.64673  -0.64528
 Alpha  occ. eigenvalues --   -0.64405  -0.62882  -0.62334  -0.61136  -0.60375
 Alpha  occ. eigenvalues --   -0.59919  -0.59374  -0.59135  -0.58717  -0.58662
 Alpha  occ. eigenvalues --   -0.58398  -0.57950  -0.57768  -0.57372  -0.57359
 Alpha  occ. eigenvalues --   -0.56329  -0.56186  -0.55963  -0.55958  -0.55671
 Alpha  occ. eigenvalues --   -0.55565  -0.55458  -0.55053  -0.54543  -0.54277
 Alpha  occ. eigenvalues --   -0.53415  -0.53405  -0.53262  -0.53220  -0.53056
 Alpha  occ. eigenvalues --   -0.52875  -0.52796  -0.52653  -0.52494  -0.52282
 Alpha  occ. eigenvalues --   -0.52012  -0.51842  -0.51702  -0.51196  -0.51122
 Alpha  occ. eigenvalues --   -0.51106  -0.50696  -0.50570  -0.50478  -0.50399
 Alpha  occ. eigenvalues --   -0.50248  -0.49976  -0.49836  -0.49652  -0.49241
 Alpha  occ. eigenvalues --   -0.49176  -0.48991  -0.48932  -0.48687  -0.48639
 Alpha  occ. eigenvalues --   -0.48615  -0.48508  -0.48471  -0.48306  -0.48215
 Alpha  occ. eigenvalues --   -0.48046  -0.47613  -0.47364  -0.47314  -0.47300
 Alpha  occ. eigenvalues --   -0.46918  -0.46650  -0.46630  -0.46517  -0.46499
 Alpha  occ. eigenvalues --   -0.46100  -0.46095  -0.46018  -0.45975  -0.45784
 Alpha  occ. eigenvalues --   -0.45578  -0.45304  -0.45212  -0.44999  -0.44853
 Alpha  occ. eigenvalues --   -0.44567  -0.44436  -0.44418  -0.44148  -0.43998
 Alpha  occ. eigenvalues --   -0.43839  -0.43721  -0.43531  -0.43494  -0.43346
 Alpha  occ. eigenvalues --   -0.43196  -0.43006  -0.42879  -0.42733  -0.42639
 Alpha  occ. eigenvalues --   -0.42503  -0.42460  -0.42335  -0.42210  -0.41883
 Alpha  occ. eigenvalues --   -0.41761  -0.41557  -0.41423  -0.41378  -0.41322
 Alpha  occ. eigenvalues --   -0.41196  -0.41017  -0.40922  -0.40631  -0.40471
 Alpha  occ. eigenvalues --   -0.40213  -0.39753  -0.39640  -0.39353  -0.39249
 Alpha  occ. eigenvalues --   -0.38773  -0.38315  -0.38019  -0.37814  -0.37459
 Alpha  occ. eigenvalues --   -0.37042  -0.36882  -0.36740  -0.36467  -0.36453
 Alpha  occ. eigenvalues --   -0.36134  -0.36066  -0.34355  -0.34218  -0.34085
 Alpha  occ. eigenvalues --   -0.33674  -0.33041  -0.32906  -0.32076  -0.31566
 Alpha  occ. eigenvalues --   -0.31265  -0.31135  -0.30922  -0.30643  -0.30266
 Alpha  occ. eigenvalues --   -0.29973  -0.29294  -0.28649  -0.24198  -0.23733
 Alpha  occ. eigenvalues --   -0.21901  -0.20858
 Alpha virt. eigenvalues --   -0.09500  -0.08613  -0.01414  -0.01017  -0.00155
 Alpha virt. eigenvalues --    0.00230   0.01649   0.01861   0.02183   0.02356
 Alpha virt. eigenvalues --    0.04283   0.04492   0.04836   0.05533   0.05619

 Mulliken charges:
               1
     1  Mg  11.997784
     2  C    6.008180
     3  C    5.996590
     4  C    5.991675
     5  C    6.001154
     6  N    7.005284
     7  C    5.988118
     8  C    6.003158
     9  C    5.996802
    10  C    6.011869
    11  C    5.999242
    12  C    6.001042
    13  C    5.998955
    14  H    1.000721
    15  N    6.996649
    16  C    6.013871
    17  C    6.005425
    18  C    6.007114
    19  C    6.011410
    20  C    5.997749
    21  C    6.003315
    22  O    8.011244
    23  C    5.997702
    24  N    6.997646
    25  C    6.010009
    26  C    5.998346
    27  C    6.004017
    28  C    5.990700
    29  C    5.999074
    30  C    6.003351
    31  C    6.001128
    32  N    7.001837
    33  C    5.988704
    34  C    5.988754
    35  C    5.999498
    36  C    5.987577
    37  C    6.000771
    38  C    5.994570
    39  O    7.990197
    40  C    5.998843
    41  C    5.998217
    42  O    8.000095
    43  O    7.999067
    44  C    6.000431
    45  H    1.003746
    46  H    1.001273
    47  H    0.994821
    48  H    1.000976
    49  H    1.001214
    50  H    1.005277
    51  H    1.000256
    52  H    1.000271
    53  H    0.997501
    54  H    1.001394
    55  H    0.999715
    56  H    0.998632
    57  H    1.006000
    58  H    1.006910
    59  H    1.006682
    60  H    1.002787
    61  H    1.005519
    62  H    1.002993
    63  H    0.999838
    64  H    0.999402
    65  H    0.998362
    66  H    1.003754
    67  H    1.000762
    68  H    0.996938
    69  H    0.999506
    70  H    0.995223
    71  H    0.998642
    72  H    1.000401
    73  H    0.991234
    74  H    0.994356
    75  H    0.993590
    76  H    0.996733
    77  H    0.998628
    78  H    1.000057
    79  H    0.998722
    80  Mg  11.997478
    81  C    6.022974
    82  C    5.984819
    83  C    5.969740
    84  C    6.010575
    85  N    7.007598
    86  C    5.973967
    87  C    6.010272
    88  C    5.985497
    89  C    6.032440
    90  C    5.999318
    91  C    6.001258
    92  C    6.000863
    93  H    0.992718
    94  N    6.991821
    95  C    6.039440
    96  C    6.024135
    97  C    6.012031
    98  C    6.038692
    99  C    5.995736
   100  C    6.013250
   101  O    8.025581
   102  C    5.992065
   103  N    6.991076
   104  C    6.045248
   105  C    5.988987
   106  C    6.008707
   107  C    5.973396
   108  C    5.996324
   109  C    6.008317
   110  C    6.000492
   111  N    7.000207
   112  C    5.966223
   113  C    5.963373
   114  C    5.999656
   115  C    5.964195
   116  C    6.004717
   117  C    5.986238
   118  O    7.972552
   119  C    5.992939
   120  C    5.995033
   121  O    7.997949
   122  O    7.998034
   123  C    6.002492
   124  H    1.009964
   125  H    1.005154
   126  H    0.988208
   127  H    0.999884
   128  H    1.005742
   129  H    1.013016
   130  H    0.998493
   131  H    1.000439
   132  H    0.991271
   133  H    1.007699
   134  H    0.997535
   135  H    1.005940
   136  H    1.021807
   137  H    1.017840
   138  H    1.018005
   139  H    1.004513
   140  H    1.010708
   141  H    1.014752
   142  H    1.000285
   143  H    0.996840
   144  H    0.995920
   145  H    1.012029
   146  H    1.003104
   147  H    1.005342
   148  H    0.986625
   149  H    0.992962
   150  H    0.997447
   151  H    1.001875
   152  H    0.981515
   153  H    0.981401
   154  H    0.976333
   155  H    0.990948
   156  H    0.999348
   157  H    0.993556
   158  H    0.995076
 Sum of Mulliken charges = 624.00000

 Dipole moment (field-independent basis, Debye):
    X=             13.8417    Y=             -1.0435    Z=             -1.3677  Tot=             13.9482
 Quadrupole moment (field-independent basis, Debye-Ang):
   XX=           -122.5453   YY=             -4.3122   ZZ=             -0.6776
   XY=             19.0688   XZ=            -26.3742   YZ=              1.6769

 Normal termination of Gaussian 16 at Wed Sep 22 04:28:17 2021.
