 Gaussian 16, Revision A.03,
 Gaussian 16:  ES64L-G16RevA.03 25-Dec-2016

 -----------------------------------
 #p cam-b3lyp/Def2SVP td=(nstates=5)
 -----------------------------------

 --------------------------------
 TDDFT excited states in gaussian
 --------------------------------
 Symbolic Z-matrix:
 Charge =  0 Multiplicity = 1

                         Standard orientation:
 ---------------------------------------------------------------------
 Center     Atomic      Atomic             Coordinates (Angstroms)
 Number     Number       Type             X           Y           Z
 ---------------------------------------------------------------------
      1         12           0      -18.471776   -0.468169    0.338924
      2          6           0      -16.314967    2.206729   -0.381755
      3          6           0      -20.275983    0.362850   -2.417264
      4          6           0      -20.122134   -3.238682    0.883873
      5          6           0      -15.903025   -1.547953    2.619711
      6          7           0      -18.328166    1.131174   -1.142242
      7          6           0      -17.369136    2.096654   -1.264492
      8          6           0      -17.522750    2.753569   -2.644424
      9          6           0      -19.006009    2.542822   -2.927651
     10          6           0      -19.180892    1.205039   -2.183548
     11          6           0      -19.897473    3.653717   -2.326119
     12          6           0      -16.603615    2.059776   -3.716671
     13          6           0      -15.388738    2.904960   -4.343515
     14          1           0      -13.948339    2.403385   -4.144157
     15          7           0      -19.952350   -1.353789   -0.662260
     16          6           0      -20.587994   -0.845632   -1.771786
     17          6           0      -21.711441   -1.680354   -2.062548
     18          6           0      -21.810922   -2.701947   -1.060933
     19          6           0      -20.604202   -2.486093   -0.211044
     20          6           0      -22.672955   -1.437316   -3.275944
     21          6           0      -22.979944   -3.747356   -0.955589
     22          8           0      -23.919287   -3.669071   -1.686071
     23          6           0      -23.024072   -4.618150    0.212777
     24          7           0      -17.906689   -2.312199    1.351509
     25          6           0      -18.972153   -3.080740    1.680321
     26          6           0      -18.786986   -3.833984    2.986944
     27          6           0      -17.325362   -3.584821    3.326343
     28          6           0      -16.994524   -2.392801    2.362457
     29          6           0      -19.754437   -3.337401    4.124183
     30          6           0      -16.269564   -4.781662    3.199789
     31          6           0      -15.670465   -5.447842    4.409275
     32          7           0      -16.637731    0.247603    1.151240
     33          6           0      -15.711803   -0.285060    2.057435
     34          6           0      -14.550451    0.566653    2.196951
     35          6           0      -14.768225    1.563519    1.277924
     36          6           0      -16.027813    1.350456    0.626892
     37          6           0      -13.399348    0.306679    3.076889
     38          6           0      -14.196642    2.775309    0.710864
     39          8           0      -13.170161    3.387359    1.030968
     40          6           0      -15.207849    3.292466   -0.290547
     41          6           0      -15.665410    4.663334    0.195668
     42          8           0      -16.181726    4.799795    1.302455
     43          8           0      -15.298737    5.678906   -0.701055
     44          6           0      -15.670242    7.005526   -0.287073
     45          1           0      -20.918109    0.748690   -3.211385
     46          1           0      -20.870729   -3.954230    1.227492
     47          1           0      -15.183764   -1.825536    3.393324
     48          1           0      -17.136932    3.769088   -2.551716
     49          1           0      -19.137510    2.481099   -4.007210
     50          1           0      -20.484428    3.887743   -3.213586
     51          1           0      -19.199653    4.440164   -2.037259
     52          1           0      -20.520787    3.378677   -1.475191
     53          1           0      -17.237030    1.804000   -4.565972
     54          1           0      -16.267387    1.111395   -3.298345
     55          1           0      -15.411998    3.864344   -3.826103
     56          1           0      -15.495344    3.137304   -5.402443
     57          1           0      -22.895581   -2.280463   -3.929156
     58          1           0      -22.196344   -0.660430   -3.874652
     59          1           0      -23.643864   -1.046245   -2.971280
     60          1           0      -22.139827   -5.242523    0.342562
     61          1           0      -23.900236   -5.260965    0.128202
     62          1           0      -23.303576   -4.045984    1.096364
     63          1           0      -19.025121   -4.894355    2.896821
     64          1           0      -17.235915   -3.176040    4.332835
     65          1           0      -20.635750   -3.966849    4.246211
     66          1           0      -19.966092   -2.277266    3.984916
     67          1           0      -19.202132   -3.404382    5.062606
     68          1           0      -15.472589   -4.686270    2.463126
     69          1           0      -16.973483   -5.488792    2.760159
     70          1           0      -15.978030   -6.485975    4.530873
     71          1           0      -15.978380   -4.914713    5.309079
     72          1           0      -14.594696   -5.366666    4.255312
     73          1           0      -13.343693   -0.769920    3.240215
     74          1           0      -13.649708    0.775771    4.028823
     75          1           0      -12.488271    0.756713    2.685206
     76          1           0      -14.608197    3.400597   -1.193316
     77          1           0      -16.725497    7.244450   -0.421853
     78          1           0      -15.107672    7.766063   -0.827819
     79          1           0      -15.453427    7.227731    0.757428
     80         12           0       18.479069   -0.422868   -0.319315
     81          6           0       15.515175    1.311271   -0.626009
     82          6           0       19.469149    2.096510    2.025972
     83          6           0       21.451499   -1.764064   -0.181416
     84          6           0       17.527750   -2.589620   -2.842286
     85          7           0       17.612214    1.639058    0.430018
     86          6           0       16.332416    1.952569    0.317202
     87          6           0       15.913823    2.984287    1.402528
     88          6           0       17.323965    3.556400    1.783494
     89          6           0       18.245960    2.384153    1.411500
     90          6           0       17.672690    4.866248    0.991078
     91          6           0       15.234668    2.171058    2.526901
     92          6           0       14.593021    2.977566    3.664119
     93          1           0       14.854927    4.465330    3.785642
     94          7           0       20.195695   -0.049970    0.792468
     95          6           0       20.372760    1.024797    1.730266
     96          6           0       21.637579    0.763034    2.403442
     97          6           0       22.171101   -0.435103    1.833730
     98          6           0       21.287624   -0.801104    0.727593
     99          6           0       22.229147    1.633730    3.573962
    100          6           0       23.434743   -1.224641    2.310583
    101          8           0       23.809263   -2.147542    1.640350
    102          6           0       24.169951   -0.809975    3.543577
    103          7           0       19.339549   -2.037291   -1.314326
    104          6           0       20.614313   -2.429592   -1.092222
    105          6           0       21.060115   -3.575053   -2.000335
    106          6           0       19.750008   -3.917450   -2.746943
    107          6           0       18.791432   -2.754097   -2.264478
    108          6           0       22.254563   -3.249625   -2.970564
    109          6           0       19.229185   -5.326616   -2.623038
    110          6           0       19.137910   -6.032590   -1.248687
    111          7           0       16.893439   -0.661543   -1.544416
    112          6           0       16.617244   -1.579900   -2.516541
    113          6           0       15.256295   -1.344868   -2.950624
    114          6           0       14.722084   -0.224682   -2.225554
    115          6           0       15.802049    0.154370   -1.382050
    116          6           0       14.559961   -2.155224   -3.998992
    117          6           0       13.623968    0.666008   -2.053756
    118          8           0       12.505467    0.754932   -2.605459
    119          6           0       14.262436    1.870345   -1.169439
    120          6           0       13.164270    2.332055   -0.210038
    121          8           0       12.561317    1.641750    0.519477
    122          8           0       12.985966    3.674154   -0.390593
    123          6           0       12.271948    4.409170    0.633107
    124          1           0       19.788670    2.903275    2.688227
    125          1           0       22.443626   -2.219241   -0.212831
    126          1           0       17.174552   -3.227829   -3.654009
    127          1           0       15.314516    3.796286    0.990976
    128          1           0       17.255622    3.695896    2.862638
    129          1           0       17.564076    5.726578    1.650335
    130          1           0       16.999110    4.926740    0.136034
    131          1           0       18.708186    4.907622    0.653117
    132          1           0       16.010903    1.578594    3.010506
    133          1           0       14.560060    1.411412    2.133195
    134          1           0       14.611298    2.457488    4.622130
    135          1           0       13.521858    2.876922    3.488241
    136          1           0       23.265418    1.921521    3.394243
    137          1           0       22.096527    1.036930    4.476228
    138          1           0       21.597906    2.509391    3.729883
    139          1           0       24.595956   -1.756762    3.876309
    140          1           0       23.502569   -0.504576    4.348640
    141          1           0       24.797724    0.081050    3.542022
    142          1           0       21.356501   -4.372614   -1.319415
    143          1           0       19.800252   -3.703184   -3.814471
    144          1           0       22.047621   -3.807737   -3.883295
    145          1           0       23.107391   -3.662753   -2.431543
    146          1           0       22.389988   -2.171862   -3.060502
    147          1           0       20.060434   -5.871760   -3.068927
    148          1           0       18.291006   -5.564906   -3.125296
    149          1           0       19.727848   -6.934697   -1.092091
    150          1           0       18.142851   -6.443795   -1.078944
    151          1           0       19.436646   -5.333492   -0.467449
    152          1           0       13.585643   -1.685474   -4.130625
    153          1           0       14.376522   -3.164909   -3.629141
    154          1           0       15.124232   -2.313657   -4.917541
    155          1           0       14.571116    2.617236   -1.901149
    156          1           0       11.583272    4.818284   -0.106256
    157          1           0       12.905755    5.073318    1.221111
    158          1           0       11.703772    3.784860    1.323174
 ---------------------------------------------------------------------

 SCF Done:  E(RCAM-B3LYP) =  -4069.80987645     A.U. after   19 cycles

 Excitation energies and oscillator strengths:

 Excited State   1:      Singlet-A      1.7237 eV  719.30 nm  f=0.4220  <S**2>=0.000
     309 -> 315       -0.19104
     312 -> 314        0.68074
     309 <- 315       -0.11077
 This state for optimization and/or second-order correction.
 Total Energy, E(TD-HF/TD-DFT) =  -4069.74653241
 Copying the excited state density for this state as the 1-particle RhoCI density.

 Excited State   2:      Singlet-A      1.7339 eV  715.05 nm  f=0.3182  <S**2>=0.000
     310 -> 316       -0.19545
     311 -> 313        0.67859
     310 <- 316       -0.11029

 Excited State   3:      Singlet-A      2.2194 eV  558.64 nm  f=0.0918  <S**2>=0.000
     310 -> 313        0.63499
     311 -> 316        0.29927

 Excited State   4:      Singlet-A      2.2830 eV  543.07 nm  f=0.0523  <S**2>=0.000
     309 -> 314        0.60480
     312 -> 315        0.35605

 Excited State   5:      Singlet-A      3.1539 eV  393.11 nm  f=0.0000  <S**2>=0.000
     312 -> 313        0.70709

 The electronic state is 1-A.
 Alpha  occ. eigenvalues --  -46.88657 -46.88249 -19.25994 -19.24357 -19.20549
 Alpha  occ. eigenvalues --  -19.20233 -19.19079 -19.19066 -19.18994 -19.18728
 Alpha  occ. eigenvalues --  -14.42107 -14.42048 -14.41713 -14.41710 -14.39355
 Alpha  occ. eigenvalues --  -14.39319 -14.39287 -14.39254 -10.40219 -10.38888
 Alpha  occ. eigenvalues --  -10.35258 -10.35034 -10.35029 -10.34533 -10.31477
 Alpha  occ. eigenvalues --  -10.31431 -10.31106 -10.31098 -10.30805 -10.30691
 Alpha  occ. eigenvalues --  -10.30626 -10.30601 -10.30572 -10.30520 -10.30407
 Alpha  occ. eigenvalues --  -10.30263 -10.29763 -10.29605 -10.29508 -10.29293
 Alpha  occ. eigenvalues --  -10.29255 -10.28988 -10.28746 -10.28585 -10.28579
 Alpha  occ. eigenvalues --  -10.28438 -10.28379 -10.28134 -10.28053 -10.28049
 Alpha  occ. eigenvalues --  -10.27857 -10.27845 -10.27789 -10.27785 -10.27779
 Alpha  occ. eigenvalues --  -10.27765 -10.27673 -10.27635 -10.27603 -10.27565
 Alpha  occ. eigenvalues --  -10.27562 -10.27513 -10.27221 -10.26900 -10.26869
 Alpha  occ. eigenvalues --  -10.26846 -10.26835 -10.26826 -10.26718 -10.26539
 Alpha  occ. eigenvalues --  -10.26447 -10.26447 -10.26405 -10.26261 -10.26244
 Alpha  occ. eigenvalues --  -10.26202 -10.26197 -10.26192 -10.25976 -10.25770
 Alpha  occ. eigenvalues --  -10.25724 -10.25664 -10.25482 -10.25256 -10.25105
 Alpha  occ. eigenvalues --  -10.24927  -3.17267  -3.16886  -1.92142  -1.91785
 Alpha  occ. eigenvalues --   -1.91738  -1.91567  -1.91357  -1.91176  -1.17583
 Alpha  occ. eigenvalues --   -1.15934  -1.11884  -1.11507  -1.09772  -1.09072
 Alpha  occ. eigenvalues --   -1.08191  -1.07986  -1.05217  -1.04753  -1.04246
 Alpha  occ. eigenvalues --   -1.04060  -1.03032  -1.02829  -1.02057  -1.02045
 Alpha  occ. eigenvalues --   -0.93016  -0.92999  -0.89363  -0.89124  -0.88941
 Alpha  occ. eigenvalues --   -0.88650  -0.88516  -0.88479  -0.87583  -0.87288
 Alpha  occ. eigenvalues --   -0.87077  -0.86414  -0.85662  -0.84970  -0.84579
 Alpha  occ. eigenvalues --   -0.84208  -0.84046  -0.83718  -0.82556  -0.82494
 Alpha  occ. eigenvalues --   -0.82409  -0.81747  -0.81402  -0.81008  -0.80826
 Alpha  occ. eigenvalues --   -0.80260  -0.77977  -0.77974  -0.77342  -0.77197
 Alpha  occ. eigenvalues --   -0.76800  -0.76371  -0.76282  -0.75851  -0.75494
 Alpha  occ. eigenvalues --   -0.75078  -0.72858  -0.72666  -0.72094  -0.71987
 Alpha  occ. eigenvalues --   -0.70255  -0.69002  -0.68863  -0.68588  -0.68123
 Alpha  occ. eigenvalues --   -0.68086  -0.66747  -0.66184  -0.65843  -0.65569
 Alpha  occ. eigenvalues --   -0.65169  -0.64906  -0.64837  -0.64427  -0.64279
 Alpha  occ. eigenvalues --   -0.64136  -0.62690  -0.62348  -0.60491  -0.60220
 Alpha  occ. eigenvalues --   -0.60019  -0.59632  -0.59143  -0.59090  -0.58859
 Alpha  occ. eigenvalues --   -0.58802  -0.58469  -0.58126  -0.57900  -0.57651
 Alpha  occ. eigenvalues --   -0.56210  -0.56200  -0.56122  -0.56044  -0.55634
 Alpha  occ. eigenvalues --   -0.55333  -0.55260  -0.54946  -0.54206  -0.53922
 Alpha  occ. eigenvalues --   -0.53616  -0.53511  -0.53500  -0.53170  -0.52968
 Alpha  occ. eigenvalues --   -0.52947  -0.52755  -0.52652  -0.52375  -0.52291
 Alpha  occ. eigenvalues --   -0.52160  -0.52068  -0.51789  -0.51716  -0.50982
 Alpha  occ. eigenvalues --   -0.50862  -0.50744  -0.50700  -0.50430  -0.50132
 Alpha  occ. eigenvalues --   -0.50113  -0.49972  -0.49797  -0.49677  -0.49614
 Alpha  occ. eigenvalues --   -0.49544  -0.49308  -0.49294  -0.49269  -0.49051
 Alpha  occ. eigenvalues --   -0.48754  -0.48651  -0.48308  -0.48216  -0.48124
 Alpha  occ. eigenvalues --   -0.48060  -0.47959  -0.47622  -0.47486  -0.47097
 Alpha  occ. eigenvalues --   -0.46833  -0.46606  -0.46562  -0.46527  -0.46316
 Alpha  occ. eigenvalues --   -0.46262  -0.46105  -0.45943  -0.45939  -0.45821
 Alpha  occ. eigenvalues --   -0.45568  -0.45398  -0.45309  -0.45188  -0.44991
 Alpha  occ. eigenvalues --   -0.44726  -0.44410  -0.44277  -0.44124  -0.43841
 Alpha  occ. eigenvalues --   -0.43825  -0.43530  -0.43343  -0.43267  -0.43247
 Alpha  occ. eigenvalues --   -0.43033  -0.42961  -0.42843  -0.42679  -0.42548
 Alpha  occ. eigenvalues --   -0.42377  -0.42288  -0.42107  -0.42068  -0.41975
 Alpha  occ. eigenvalues --   -0.41938  -0.41863  -0.41699  -0.41563  -0.41551
 Alpha  occ. eigenvalues --   -0.41413  -0.41047  -0.40975  -0.40837  -0.40688
 Alpha  occ. eigenvalues --   -0.40343  -0.40204  -0.40002  -0.39531  -0.39429
 Alpha  occ. eigenvalues --   -0.38937  -0.38385  -0.37959  -0.37931  -0.37493
 Alpha  occ. eigenvalues --   -0.37430  -0.37113  -0.37112  -0.36654  -0.36494
 Alpha  occ. eigenvalues --   -0.36362  -0.35835  -0.35112  -0.34815  -0.34680
 Alpha  occ. eigenvalues --   -0.33943  -0.33451  -0.33327  -0.31565  -0.31377
 Alpha  occ. eigenvalues --   -0.31183  -0.30994  -0.30912  -0.30400  -0.30116
 Alpha  occ. eigenvalues --   -0.29803  -0.29622  -0.29346  -0.24362  -0.23792
 Alpha  occ. eigenvalues --   -0.21079  -0.20963
 Alpha virt. eigenvalues --   -0.08418  -0.08288  -0.02196  -0.01870   0.00207
 Alpha virt. eigenvalues --    0.00530   0.01856   0.02627   0.02770   0.03041
 Alpha virt. eigenvalues --    0.04233   0.05047   0.05360   0.05870   0.05912

 Mulliken charges:
               1
     1  Mg   0.819001
     2  C   -0.027492
     3  C   -0.090350
     4  C   -0.046294
     5  C   -0.087329
     6  N   -0.261358
     7  C   -0.073432
     8  C   -0.067275
     9  C   -0.064268
    10  C    0.017930
    11  C    0.108024
    12  C    0.065014
    13  C   -0.081574
    14  H    0.029566
    15  N   -0.432458
    16  C    0.196327
    17  C   -0.155252
    18  C   -0.066249
    19  C    0.129210
    20  C    0.128370
    21  C    0.011601
    22  O   -0.165266
    23  C    0.046995
    24  N   -0.260876
    25  C    0.045584
    26  C   -0.043737
    27  C   -0.029967
    28  C    0.049966
    29  C    0.066786
    30  C    0.022698
    31  C    0.021375
    32  N   -0.342430
    33  C    0.111599
    34  C   -0.193799
    35  C    0.033666
    36  C    0.152496
    37  C    0.142357
    38  C    0.016998
    39  O   -0.185059
    40  C    0.043530
    41  C    0.222870
    42  O   -0.216045
    43  O   -0.330666
    44  C    0.180795
    45  H   -0.024298
    46  H   -0.052607
    47  H   -0.027295
    48  H   -0.005482
    49  H   -0.002411
    50  H    0.020524
    51  H    0.016875
    52  H    0.032934
    53  H    0.008322
    54  H    0.031407
    55  H    0.028559
    56  H    0.035479
    57  H    0.032201
    58  H   -0.009169
    59  H    0.027757
    60  H    0.050354
    61  H    0.014622
    62  H    0.046866
    63  H    0.006541
    64  H    0.001256
    65  H    0.023789
    66  H    0.019651
    67  H    0.008287
    68  H    0.019389
    69  H   -0.007808
    70  H    0.021939
    71  H    0.005652
    72  H    0.020264
    73  H    0.016140
    74  H    0.034049
    75  H    0.041695
    76  H    0.030890
    77  H    0.023997
    78  H    0.031527
    79  H    0.036532
    80  Mg   0.826071
    81  C   -0.012319
    82  C   -0.069431
    83  C   -0.074885
    84  C   -0.110769
    85  N   -0.226817
    86  C   -0.083312
    87  C   -0.038257
    88  C   -0.040666
    89  C    0.001554
    90  C    0.086680
    91  C    0.038265
    92  C   -0.033824
    93  H    0.030068
    94  N   -0.395503
    95  C    0.163755
    96  C   -0.171014
    97  C   -0.041656
    98  C    0.168852
    99  C    0.109757
   100  C    0.017391
   101  O   -0.181365
   102  C    0.052855
   103  N   -0.266024
   104  C   -0.012126
   105  C   -0.046932
   106  C   -0.006092
   107  C    0.066928
   108  C    0.084004
   109  C    0.038669
   110  C   -0.018426
   111  N   -0.393981
   112  C    0.127063
   113  C   -0.170482
   114  C    0.015110
   115  C    0.149485
   116  C    0.114107
   117  C    0.076163
   118  O   -0.199649
   119  C   -0.076697
   120  C    0.177570
   121  O   -0.154495
   122  O   -0.338144
   123  C    0.149788
   124  H   -0.021749
   125  H   -0.018230
   126  H   -0.032804
   127  H   -0.002231
   128  H   -0.002006
   129  H    0.017280
   130  H    0.023489
   131  H    0.018015
   132  H    0.001242
   133  H    0.042105
   134  H    0.018694
   135  H    0.015729
   136  H    0.037161
   137  H    0.036352
   138  H    0.006417
   139  H    0.032680
   140  H   -0.000053
   141  H    0.047125
   142  H    0.021782
   143  H    0.003755
   144  H    0.024753
   145  H    0.025974
   146  H    0.031888
   147  H    0.004385
   148  H    0.015879
   149  H    0.010576
   150  H    0.010200
   151  H    0.020220
   152  H    0.037352
   153  H    0.019384
   154  H    0.024862
   155  H    0.054950
   156  H    0.051000
   157  H    0.046111
   158  H    0.046444
 Sum of Mulliken charges =  -0.00000

 Dipole moment (field-independent basis, Debye):
    X=              2.0861    Y=             -0.1438    Z=              3.6893  Tot=              4.2407
 Quadrupole moment (field-independent basis, Debye-Ang):
   XX=           -405.8790   YY=           -469.8340   ZZ=           -484.0136
   XY=             23.4744   XZ=              5.0197   YZ=            -13.0352

 Normal termination of Gaussian 16 at Fri Sep  3 00:14:17 2021.
