 Gaussian 16, Revision A.03,
 Gaussian 16:  ES64L-G16RevA.03 25-Dec-2016

 ----------------------------------------------------------
 #p cam-b3lyp/Def2SVP td=(nstates=5) density=(transition=1)
 ----------------------------------------------------------

 --------------------------------
 TDDFT excited states in gaussian
 --------------------------------
 Symbolic Z-matrix:
 Charge =  0 Multiplicity = 1

                         Standard orientation:
 ---------------------------------------------------------------------
 Center     Atomic      Atomic             Coordinates (Angstroms)
 Number     Number       Type             X           Y           Z
 ---------------------------------------------------------------------
      1         12           0      -16.471216   -0.755499   -0.142955
      2          6           0      -18.849279    1.731754    0.842239
      3          6           0      -14.719978    1.739581   -1.676189
      4          6           0      -14.606375   -2.988256   -1.405407
      5          6           0      -18.936595   -3.142270    0.466052
      6          7           0      -16.838980    1.420075   -0.322604
      7          6           0      -17.755497    2.258180    0.151471
      8          6           0      -17.405521    3.757127   -0.089462
      9          6           0      -16.434528    3.590571   -1.343029
     10          6           0      -15.939790    2.178977   -1.081191
     11          6           0      -17.160996    3.615612   -2.683969
     12          6           0      -16.661479    4.397445    1.130425
     13          6           0      -16.574508    5.926335    1.113541
     14          1           0      -16.657111    6.646429    2.375281
     15          7           0      -14.666415   -0.619989   -0.934902
     16          6           0      -14.110240    0.478662   -1.499633
     17          6           0      -12.758349    0.071075   -1.938887
     18          6           0      -12.645053   -1.402469   -1.754700
     19          6           0      -13.994458   -1.737305   -1.377382
     20          6           0      -11.722509    1.040191   -2.420137
     21          6           0      -11.504589   -2.358736   -1.906446
     22          8           0      -11.676790   -3.625475   -1.923596
     23          6           0      -10.173638   -1.764295   -2.126111
     24          7           0      -16.791124   -2.756781   -0.643118
     25          6           0      -15.798753   -3.515858   -1.120595
     26          6           0      -16.180586   -4.966322   -1.137800
     27          6           0      -17.560673   -5.069617   -0.341280
     28          6           0      -17.784210   -3.563209   -0.060150
     29          6           0      -16.344401   -5.598822   -2.526728
     30          6           0      -17.612339   -6.057989    0.850723
     31          6           0      -16.711430   -5.568704    1.962505
     32          7           0      -18.471571   -0.761659    0.699417
     33          6           0      -19.325611   -1.865608    0.835747
     34          6           0      -20.608231   -1.357812    1.356417
     35          6           0      -20.415451    0.017450    1.471895
     36          6           0      -19.104909    0.351153    1.025335
     37          6           0      -21.774255   -2.135246    1.602219
     38          6           0      -21.020171    1.285765    1.845453
     39          8           0      -22.078956    1.617341    2.380734
     40          6           0      -20.073006    2.461127    1.338273
     41          6           0      -19.901126    3.429606    2.476612
     42          8           0      -19.285363    3.098912    3.510460
     43          8           0      -20.275994    4.654899    2.078273
     44          6           0      -20.102526    5.669444    3.151940
     45          1           0      -14.213937    2.394689   -2.388016
     46          1           0      -13.958746   -3.805060   -1.730745
     47          1           0      -19.723568   -3.839119    0.760212
     48          1           0      -18.255469    4.384856   -0.357730
     49          1           0      -15.603858    4.295321   -1.310826
     50          1           0      -18.242783    3.614371   -2.551094
     51          1           0      -16.840468    2.713545   -3.205535
     52          1           0      -16.819131    4.452014   -3.294164
     53          1           0      -15.601264    4.150680    1.074633
     54          1           0      -17.109871    4.072196    2.069831
     55          1           0      -17.259861    6.356490    0.382674
     56          1           0      -15.584408    6.208168    0.755111
     57          1           0      -12.149813    2.025465   -2.602322
     58          1           0      -11.399015    0.698424   -3.403120
     59          1           0      -10.865444    1.091944   -1.748502
     60          1           0      -10.196682   -1.153965   -3.029170
     61          1           0       -9.468937   -2.595098   -2.122528
     62          1           0       -9.949961   -1.085265   -1.302802
     63          1           0      -15.430620   -5.574138   -0.633285
     64          1           0      -18.381719   -5.386201   -0.984966
     65          1           0      -15.709185   -6.469988   -2.688825
     66          1           0      -16.149949   -4.828802   -3.272750
     67          1           0      -17.363369   -5.891840   -2.778245
     68          1           0      -17.244348   -7.037514    0.547309
     69          1           0      -18.615450   -6.191482    1.255939
     70          1           0      -15.731451   -5.937621    1.661883
     71          1           0      -17.015471   -6.000817    2.916470
     72          1           0      -16.657973   -4.480006    1.981570
     73          1           0      -22.169829   -1.797378    2.559995
     74          1           0      -21.543214   -3.200052    1.622485
     75          1           0      -22.386842   -1.857129    0.744755
     76          1           0      -20.570767    2.918133    0.483580
     77          1           0      -21.069794    6.150195    3.298584
     78          1           0      -19.265022    6.299046    2.850954
     79          1           0      -19.910698    5.283242    4.153633
     80         12           0       17.156652   -0.547931    0.350563
     81          6           0       16.265648    2.471440   -1.200106
     82          6           0       19.029894    1.071180    2.584607
     83          6           0       17.929015   -3.434508    1.593444
     84          6           0       15.976311   -2.149592   -2.671052
     85          7           0       17.648685    1.540375    0.548465
     86          6           0       17.083374    2.604346   -0.035659
     87          6           0       17.675544    3.899332    0.457474
     88          6           0       18.859217    3.401185    1.380257
     89          6           0       18.500864    1.936004    1.536534
     90          6           0       20.327775    3.618556    0.890728
     91          6           0       16.598461    4.713742    1.340684
     92          6           0       16.487019    6.223688    0.949030
     93          1           0       15.191929    6.924015    1.633626
     94          7           0       18.083478   -1.072829    1.976805
     95          6           0       18.790305   -0.254822    2.841687
     96          6           0       19.114033   -1.010349    4.020433
     97          6           0       18.776249   -2.410412    3.814640
     98          6           0       18.119374   -2.371783    2.452152
     99          6           0       19.885772   -0.308464    5.174606
    100          6           0       18.909701   -3.697153    4.621116
    101          8           0       18.468940   -4.816647    4.303745
    102          6           0       19.547532   -3.476131    5.946876
    103          7           0       17.089671   -2.447752   -0.554079
    104          6           0       17.504311   -3.474700    0.257520
    105          6           0       17.481485   -4.807454   -0.491759
    106          6           0       16.580402   -4.458788   -1.705383
    107          6           0       16.583372   -2.928856   -1.703039
    108          6           0       18.958155   -5.302030   -0.760057
    109          6           0       15.109455   -5.055497   -1.676712
    110          6           0       14.406858   -5.229912   -3.032639
    111          7           0       16.256305   -0.005092   -1.553366
    112          6           0       15.857535   -0.761018   -2.613819
    113          6           0       15.184594    0.045500   -3.607286
    114          6           0       15.274798    1.323420   -3.025731
    115          6           0       15.984344    1.259019   -1.818003
    116          6           0       14.520888   -0.311803   -4.957107
    117          6           0       14.892411    2.692872   -3.229087
    118          8           0       14.153996    3.238951   -4.006344
    119          6           0       15.691773    3.522308   -2.095639
    120          6           0       14.645487    4.443352   -1.643930
    121          8           0       13.721878    4.246834   -0.814246
    122          8           0       14.865114    5.579283   -2.328239
    123          6           0       13.946317    6.700031   -2.123810
    124          1           0       19.570532    1.598725    3.373375
    125          1           0       18.119322   -4.412109    2.041696
    126          1           0       15.551471   -2.695201   -3.516200
    127          1           0       18.002812    4.587154   -0.322698
    128          1           0       18.861698    3.780323    2.402366
    129          1           0       20.742299    2.641014    0.644453
    130          1           0       20.850983    4.040820    1.748482
    131          1           0       20.499612    4.240323    0.012803
    132          1           0       16.720026    4.644791    2.422333
    133          1           0       15.654789    4.178729    1.233588
    134          1           0       16.401384    6.333067   -0.131886
    135          1           0       17.305236    6.854677    1.295288
    136          1           0       19.151358    0.112881    5.859668
    137          1           0       20.369922    0.621965    4.875421
    138          1           0       20.729775   -0.846110    5.606057
    139          1           0       19.002809   -2.801396    6.606316
    140          1           0       20.536536   -3.114554    5.662757
    141          1           0       19.725923   -4.395041    6.506054
    142          1           0       17.003444   -5.509998    0.191018
    143          1           0       17.027403   -4.866667   -2.611938
    144          1           0       19.208314   -5.186804   -1.814612
    145          1           0       19.211062   -6.338776   -0.539542
    146          1           0       19.759950   -4.724640   -0.299316
    147          1           0       14.541991   -4.263574   -1.187142
    148          1           0       14.955726   -5.994993   -1.145412
    149          1           0       13.544568   -4.570008   -3.136421
    150          1           0       14.037404   -6.215322   -3.317229
    151          1           0       15.112024   -4.850339   -3.770744
    152          1           0       15.005648   -1.229823   -5.289300
    153          1           0       14.657385    0.488214   -5.685938
    154          1           0       13.471016   -0.506492   -4.738346
    155          1           0       16.482092    4.110287   -2.562640
    156          1           0       14.477921    7.488906   -1.591955
    157          1           0       13.003541    6.384891   -1.677910
    158          1           0       13.726657    7.139829   -3.096576
 ---------------------------------------------------------------------

 SCF Done:  E(RCAM-B3LYP) =  -4069.80647387     A.U. after   18 cycles

 Excitation energies and oscillator strengths:

 Excited State   1:      Singlet-A      1.6799 eV  738.03 nm  f=0.3909  <S**2>=0.000
     310 -> 316        0.17551
     312 -> 313        0.68547
     310 <- 316        0.10511
 This state for optimization and/or second-order correction.
 Total Energy, E(TD-HF/TD-DFT) =  -4069.74473783
 Copying the excited state density for this state as the 1-particle RhoCI density.

 Excited State   2:      Singlet-A      1.7272 eV  717.82 nm  f=0.3785  <S**2>=0.000
     309 -> 315        0.19739
     311 -> 314        0.68074
     309 <- 315        0.11059

 Excited State   3:      Singlet-A      2.1927 eV  565.44 nm  f=0.0977  <S**2>=0.000
     310 -> 313        0.64070
     312 -> 316       -0.27834

 Excited State   4:      Singlet-A      2.2497 eV  551.12 nm  f=0.0628  <S**2>=0.000
     309 -> 314        0.61703
     311 -> 315       -0.33571

 Excited State   5:      Singlet-A      3.1059 eV  399.19 nm  f=0.0000  <S**2>=0.000
     311 -> 313        0.70709

 The electronic state is 1-A.
 Alpha  occ. eigenvalues --  -46.87731 -46.87597 -19.26223 -19.24901 -19.19692
 Alpha  occ. eigenvalues --  -19.19066 -19.18958 -19.18742 -19.18460 -19.18107
 Alpha  occ. eigenvalues --  -14.42623 -14.42384 -14.41754 -14.41384 -14.39482
 Alpha  occ. eigenvalues --  -14.39336 -14.38521 -14.38431 -10.39017 -10.38601
 Alpha  occ. eigenvalues --  -10.36017 -10.35375 -10.34689 -10.34327 -10.31738
 Alpha  occ. eigenvalues --  -10.31620 -10.31340 -10.31217 -10.31041 -10.30842
 Alpha  occ. eigenvalues --  -10.30813 -10.30630 -10.30505 -10.30442 -10.30298
 Alpha  occ. eigenvalues --  -10.30141 -10.30140 -10.30066 -10.29857 -10.29564
 Alpha  occ. eigenvalues --  -10.29497 -10.29254 -10.29187 -10.28749 -10.28683
 Alpha  occ. eigenvalues --  -10.28567 -10.28471 -10.28394 -10.28298 -10.28051
 Alpha  occ. eigenvalues --  -10.27890 -10.27862 -10.27768 -10.27759 -10.27736
 Alpha  occ. eigenvalues --  -10.27727 -10.27702 -10.27661 -10.27634 -10.27516
 Alpha  occ. eigenvalues --  -10.27438 -10.27406 -10.27387 -10.27338 -10.27330
 Alpha  occ. eigenvalues --  -10.27095 -10.26833 -10.26677 -10.26637 -10.26528
 Alpha  occ. eigenvalues --  -10.26455 -10.26329 -10.26283 -10.26170 -10.26123
 Alpha  occ. eigenvalues --  -10.26083 -10.25954 -10.25895 -10.25846 -10.25784
 Alpha  occ. eigenvalues --  -10.25387 -10.25374 -10.24767 -10.24722 -10.24624
 Alpha  occ. eigenvalues --  -10.24466  -3.16473  -3.16441  -1.91355  -1.91326
 Alpha  occ. eigenvalues --   -1.90942  -1.90908  -1.90784  -1.90755  -1.16572
 Alpha  occ. eigenvalues --   -1.15968  -1.10803  -1.09413  -1.08565  -1.07143
 Alpha  occ. eigenvalues --   -1.06580  -1.05581  -1.05218  -1.04515  -1.04328
 Alpha  occ. eigenvalues --   -1.03695  -1.03617  -1.03168  -1.02436  -1.02345
 Alpha  occ. eigenvalues --   -0.92741  -0.91907  -0.89456  -0.89136  -0.89122
 Alpha  occ. eigenvalues --   -0.88288  -0.88223  -0.88070  -0.87806  -0.87607
 Alpha  occ. eigenvalues --   -0.87473  -0.87203  -0.86996  -0.86290  -0.84916
 Alpha  occ. eigenvalues --   -0.84561  -0.83873  -0.83853  -0.82895  -0.82581
 Alpha  occ. eigenvalues --   -0.82502  -0.82296  -0.81522  -0.81295  -0.80531
 Alpha  occ. eigenvalues --   -0.80328  -0.78729  -0.78243  -0.77345  -0.77153
 Alpha  occ. eigenvalues --   -0.76945  -0.76870  -0.75949  -0.75858  -0.75428
 Alpha  occ. eigenvalues --   -0.74834  -0.72813  -0.72709  -0.72158  -0.71607
 Alpha  occ. eigenvalues --   -0.69844  -0.69272  -0.68823  -0.68806  -0.67943
 Alpha  occ. eigenvalues --   -0.67575  -0.67242  -0.67151  -0.66080  -0.65570
 Alpha  occ. eigenvalues --   -0.65221  -0.64888  -0.64789  -0.64556  -0.64472
 Alpha  occ. eigenvalues --   -0.64205  -0.62235  -0.61800  -0.60373  -0.60261
 Alpha  occ. eigenvalues --   -0.59868  -0.59738  -0.59176  -0.58922  -0.58666
 Alpha  occ. eigenvalues --   -0.58439  -0.58002  -0.57521  -0.57243  -0.57185
 Alpha  occ. eigenvalues --   -0.56350  -0.56244  -0.55957  -0.55915  -0.55467
 Alpha  occ. eigenvalues --   -0.55452  -0.55277  -0.54461  -0.54394  -0.53946
 Alpha  occ. eigenvalues --   -0.53829  -0.53459  -0.53240  -0.53232  -0.53154
 Alpha  occ. eigenvalues --   -0.52850  -0.52804  -0.52685  -0.52582  -0.52375
 Alpha  occ. eigenvalues --   -0.52250  -0.51852  -0.51626  -0.51549  -0.51458
 Alpha  occ. eigenvalues --   -0.51132  -0.51055  -0.50754  -0.50498  -0.50416
 Alpha  occ. eigenvalues --   -0.50190  -0.50047  -0.49966  -0.49849  -0.49453
 Alpha  occ. eigenvalues --   -0.49447  -0.49148  -0.49078  -0.49031  -0.48956
 Alpha  occ. eigenvalues --   -0.48529  -0.48514  -0.48396  -0.48377  -0.48139
 Alpha  occ. eigenvalues --   -0.48048  -0.47628  -0.47445  -0.47288  -0.47230
 Alpha  occ. eigenvalues --   -0.46902  -0.46732  -0.46528  -0.46489  -0.46373
 Alpha  occ. eigenvalues --   -0.46294  -0.46099  -0.45934  -0.45759  -0.45742
 Alpha  occ. eigenvalues --   -0.45551  -0.45176  -0.45137  -0.44914  -0.44514
 Alpha  occ. eigenvalues --   -0.44438  -0.44079  -0.44060  -0.44022  -0.43952
 Alpha  occ. eigenvalues --   -0.43759  -0.43588  -0.43503  -0.43431  -0.43320
 Alpha  occ. eigenvalues --   -0.43123  -0.42962  -0.42900  -0.42888  -0.42686
 Alpha  occ. eigenvalues --   -0.42636  -0.42592  -0.42239  -0.42105  -0.41945
 Alpha  occ. eigenvalues --   -0.41934  -0.41639  -0.41467  -0.41370  -0.41232
 Alpha  occ. eigenvalues --   -0.41076  -0.40843  -0.40803  -0.40752  -0.40607
 Alpha  occ. eigenvalues --   -0.40508  -0.40346  -0.40166  -0.39623  -0.39378
 Alpha  occ. eigenvalues --   -0.38805  -0.38405  -0.37870  -0.37682  -0.37408
 Alpha  occ. eigenvalues --   -0.37256  -0.37197  -0.37025  -0.36651  -0.36129
 Alpha  occ. eigenvalues --   -0.35535  -0.35250  -0.34221  -0.34010  -0.33963
 Alpha  occ. eigenvalues --   -0.33707  -0.33121  -0.33003  -0.31749  -0.31343
 Alpha  occ. eigenvalues --   -0.31272  -0.30970  -0.30574  -0.30359  -0.29966
 Alpha  occ. eigenvalues --   -0.29635  -0.29381  -0.29256  -0.24212  -0.24015
 Alpha  occ. eigenvalues --   -0.21143  -0.21062
 Alpha virt. eigenvalues --   -0.08708  -0.08466  -0.02326  -0.01684  -0.00318
 Alpha virt. eigenvalues --    0.00011   0.02265   0.02376   0.03120   0.03188
 Alpha virt. eigenvalues --    0.04758   0.04784   0.05113   0.05160   0.06075

 Mulliken charges:
               1
     1  Mg  12.000349
     2  C    5.980321
     3  C    6.019155
     4  C    6.016990
     5  C    5.977913
     6  N    6.992044
     7  C    6.034859
     8  C    5.991427
     9  C    6.009021
    10  C    5.970334
    11  C    6.001180
    12  C    5.995612
    13  C    5.998685
    14  H    0.999764
    15  N    7.007578
    16  C    5.954966
    17  C    5.972158
    18  C    5.982191
    19  C    5.972934
    20  C    6.007328
    21  C    5.986041
    22  O    7.969007
    23  C    6.005527
    24  N    7.000163
    25  C    5.969953
    26  C    6.012922
    27  C    5.985964
    28  C    6.035565
    29  C    5.999828
    30  C    5.996121
    31  C    5.998514
    32  N    6.992592
    33  C    6.054420
    34  C    6.020871
    35  C    6.009431
    36  C    6.033724
    37  C    5.994537
    38  C    6.014007
    39  O    8.032359
    40  C    6.002689
    41  C    6.003322
    42  O    8.004313
    43  O    8.001858
    44  C    5.998208
    45  H    0.992461
    46  H    0.993661
    47  H    1.009056
    48  H    0.999561
    49  H    1.000135
    50  H    0.982760
    51  H    1.004805
    52  H    0.996340
    53  H    1.014986
    54  H    0.994031
    55  H    1.000879
    56  H    1.007283
    57  H    0.978033
    58  H    0.977953
    59  H    0.977048
    60  H    0.994656
    61  H    0.984337
    62  H    0.992617
    63  H    1.000285
    64  H    1.004578
    65  H    0.999418
    66  H    1.005464
    67  H    0.989023
    68  H    1.010065
    69  H    0.996910
    70  H    1.012586
    71  H    1.001497
    72  H    0.996669
    73  H    1.017591
    74  H    1.018744
    75  H    1.020245
    76  H    1.007936
    77  H    1.003063
    78  H    1.006330
    79  H    1.002248
    80  Mg  12.000107
    81  C    5.999322
    82  C    6.000492
    83  C    6.000377
    84  C    5.999467
    85  N    6.999870
    86  C    6.001072
    87  C    5.999659
    88  C    6.000241
    89  C    5.998983
    90  C    6.000088
    91  C    5.999935
    92  C    5.999940
    93  H    1.000180
    94  N    7.000276
    95  C    5.998935
    96  C    5.999516
    97  C    5.999355
    98  C    5.999371
    99  C    6.000145
   100  C    5.999615
   101  O    7.999188
   102  C    6.000223
   103  N    6.999857
   104  C    5.999247
   105  C    6.000181
   106  C    5.999773
   107  C    6.000915
   108  C    6.000194
   109  C    5.999867
   110  C    5.999965
   111  N    6.999823
   112  C    6.001104
   113  C    6.000814
   114  C    6.000071
   115  C    6.000980
   116  C    6.000026
   117  C    6.000444
   118  O    8.000893
   119  C    6.000143
   120  C    6.000043
   121  O    8.000320
   122  O    7.999971
   123  C    5.999886
   124  H    0.999688
   125  H    0.999791
   126  H    1.000327
   127  H    1.000012
   128  H    0.999983
   129  H    0.999962
   130  H    0.999852
   131  H    0.999577
   132  H    1.000301
   133  H    1.000022
   134  H    0.999904
   135  H    1.000028
   136  H    0.999467
   137  H    0.999433
   138  H    0.999441
   139  H    0.999759
   140  H    0.999777
   141  H    0.999486
   142  H    1.000053
   143  H    1.000064
   144  H    0.999618
   145  H    0.999848
   146  H    1.000039
   147  H    1.000136
   148  H    1.000334
   149  H    1.000117
   150  H    1.000202
   151  H    0.999845
   152  H    1.000393
   153  H    1.000395
   154  H    1.000738
   155  H    1.000117
   156  H    1.000060
   157  H    1.000232
   158  H    1.000118
 Sum of Mulliken charges = 624.00000

 Dipole moment (field-independent basis, Debye):
    X=            -10.1351    Y=              0.0502    Z=              4.4734  Tot=             11.0785
 Quadrupole moment (field-independent basis, Debye-Ang):
   XX=            322.7714   YY=              3.9648   ZZ=             -2.3429
   XY=              8.6698   XZ=            -80.2219   YZ=             -0.9815

 Normal termination of Gaussian 16 at Wed Sep 22 10:56:58 2021.
