 Gaussian 16, Revision A.03,
 Gaussian 16:  ES64L-G16RevA.03 25-Dec-2016

 -----------------------------------
 #p cam-b3lyp/Def2SVP td=(nstates=5)
 -----------------------------------

 --------------------------------
 TDDFT excited states in gaussian
 --------------------------------
 Symbolic Z-matrix:
 Charge =  0 Multiplicity = 1

                         Standard orientation:
 ---------------------------------------------------------------------
 Center     Atomic      Atomic             Coordinates (Angstroms)
 Number     Number       Type             X           Y           Z
 ---------------------------------------------------------------------
      1         12           0      -20.796738    0.315713   -0.218543
      2          6           0      -17.929853   -1.514819   -0.076692
      3          6           0      -22.490396   -2.511766    0.861330
      4          6           0      -23.550959    2.222596    0.006541
      5          6           0      -18.915710    3.258551   -0.651217
      6          7           0      -20.210043   -1.712060    0.578890
      7          6           0      -18.959932   -2.205674    0.474276
      8          6           0      -18.834771   -3.566906    1.054585
      9          6           0      -20.425194   -4.014109    0.999222
     10          6           0      -21.130102   -2.656242    0.797158
     11          6           0      -20.716028   -5.078850   -0.099294
     12          6           0      -18.306776   -3.471921    2.477244
     13          6           0      -19.078834   -2.558271    3.537860
     14          1           0      -19.253923   -3.027439    4.976826
     15          7           0      -22.740062   -0.073923    0.349936
     16          6           0      -23.289544   -1.349253    0.636087
     17          6           0      -24.703988   -1.189414    0.698918
     18          6           0      -25.055758    0.141930    0.514185
     19          6           0      -23.797267    0.853471    0.234029
     20          6           0      -25.548064   -2.419791    0.962542
     21          6           0      -26.427576    0.758929    0.647059
     22          8           0      -27.353726   -0.034927    0.947485
     23          6           0      -26.722360    2.152364    0.668893
     24          7           0      -21.126249    2.474372   -0.096617
     25          6           0      -22.386923    2.994262   -0.069772
     26          6           0      -22.357208    4.540709   -0.117916
     27          6           0      -20.835767    4.843999   -0.330563
     28          6           0      -20.231711    3.450636   -0.285212
     29          6           0      -23.262275    5.129787   -1.178763
     30          6           0      -20.272038    5.845595    0.812483
     31          6           0      -19.323942    6.927628    0.283049
     32          7           0      -18.776185    0.869408   -0.361015
     33          6           0      -18.166165    2.025156   -0.730833
     34          6           0      -16.801586    1.696516   -1.041948
     35          6           0      -16.606882    0.284540   -0.852451
     36          6           0      -17.844399   -0.153797   -0.411020
     37          6           0      -15.704300    2.683783   -1.248193
     38          6           0      -15.708841   -0.824906   -0.826069
     39          8           0      -14.517899   -0.770015   -1.157733
     40          6           0      -16.532037   -2.013715   -0.365687
     41          6           0      -16.481100   -3.058662   -1.417013
     42          8           0      -15.401940   -3.489358   -1.773218
     43          8           0      -17.698102   -3.506947   -1.831171
     44          6           0      -17.660382   -4.555442   -2.852518
     45          1           0      -23.050114   -3.446946    0.927482
     46          1           0      -24.476700    2.779769   -0.150536
     47          1           0      -18.287824    4.095614   -0.964553
     48          1           0      -18.185995   -4.283792    0.551229
     49          1           0      -20.701559   -4.577024    1.891715
     50          1           0      -21.144279   -5.972644    0.352923
     51          1           0      -19.754217   -5.354549   -0.532556
     52          1           0      -21.357003   -4.732869   -0.911227
     53          1           0      -17.250230   -3.212500    2.406983
     54          1           0      -18.221872   -4.521679    2.757877
     55          1           0      -20.105219   -2.297593    3.279296
     56          1           0      -18.424017   -1.689100    3.592721
     57          1           0      -25.563936   -2.531617    2.046837
     58          1           0      -25.045747   -3.288914    0.539642
     59          1           0      -26.566712   -2.401422    0.573929
     60          1           0      -27.600948    2.371266    1.276564
     61          1           0      -26.750044    2.608694   -0.321440
     62          1           0      -25.919957    2.593015    1.259009
     63          1           0      -22.673374    4.822930    0.886928
     64          1           0      -20.677029    5.200956   -1.347969
     65          1           0      -23.885477    4.395243   -1.688131
     66          1           0      -22.880010    5.822895   -1.927660
     67          1           0      -24.020716    5.637452   -0.582107
     68          1           0      -19.731688    5.341427    1.613762
     69          1           0      -21.076780    6.326564    1.368218
     70          1           0      -19.853094    7.879876    0.307237
     71          1           0      -19.131576    6.724606   -0.770674
     72          1           0      -18.402992    7.006869    0.860901
     73          1           0      -15.729373    3.282230   -2.158073
     74          1           0      -14.784840    2.098796   -1.204523
     75          1           0      -15.673405    3.433924   -0.457908
     76          1           0      -16.045206   -2.387090    0.535723
     77          1           0      -17.084226   -5.389516   -2.450910
     78          1           0      -17.282103   -4.210473   -3.814941
     79          1           0      -18.670062   -4.837237   -3.150888
     80         12           0       20.762509    0.374635   -0.005904
     81          6           0       18.673881   -2.358763   -0.012272
     82          6           0       18.111214    2.533353    0.188963
     83          6           0       22.917657    3.128893    0.196115
     84          6           0       23.468028   -1.667820    0.653457
     85          7           0       18.644335    0.020905    0.293258
     86          6           0       17.934623   -1.164535    0.083188
     87          6           0       16.427467   -0.950684    0.244498
     88          6           0       16.376029    0.593237    0.119277
     89          6           0       17.810295    1.133094    0.294086
     90          6           0       15.636042    1.074199   -1.148075
     91          6           0       15.902267   -1.488078    1.590505
     92          6           0       14.535254   -2.254989    1.561107
     93          1           0       13.698716   -2.144728    2.775591
     94          7           0       20.531282    2.480741    0.110505
     95          6           0       19.371824    3.177141    0.088023
     96          6           0       19.567800    4.582790   -0.104729
     97          6           0       20.951532    4.779264   -0.244365
     98          6           0       21.553830    3.403325   -0.001552
     99          6           0       18.436473    5.595647   -0.292470
    100          6           0       21.694425    6.137797   -0.514080
    101          8           0       21.015356    7.196153   -0.535325
    102          6           0       23.244890    6.245401   -0.845907
    103          7           0       22.850804    0.704112    0.670306
    104          6           0       23.501784    1.882310    0.512877
    105          6           0       24.995818    1.752796    0.663321
    106          6           0       25.197733    0.234785    0.859924
    107          6           0       23.773233   -0.296759    0.682032
    108          6           0       25.827601    2.390871   -0.498332
    109          6           0       25.942343   -0.132777    2.230735
    110          6           0       27.405837   -0.559906    2.069259
    111          7           0       21.068475   -1.606837    0.215104
    112          6           0       22.240231   -2.357801    0.455108
    113          6           0       21.947185   -3.784960    0.268339
    114          6           0       20.583098   -3.795846    0.012431
    115          6           0       20.113253   -2.476623    0.120987
    116          6           0       22.844085   -4.967617    0.355135
    117          6           0       19.445197   -4.686105   -0.257954
    118          8           0       19.390909   -5.882919   -0.585582
    119          6           0       18.152567   -3.778165   -0.330390
    120          6           0       17.493846   -3.858568   -1.700984
    121          8           0       18.042787   -3.804499   -2.806029
    122          8           0       16.179557   -4.072977   -1.409164
    123          6           0       15.305893   -4.370877   -2.531707
    124          1           0       17.274046    3.232118    0.245081
    125          1           0       23.695942    3.894857    0.184417
    126          1           0       24.281522   -2.369922    0.846828
    127          1           0       15.897079   -1.476402   -0.550181
    128          1           0       15.776808    0.892275    0.979229
    129          1           0       14.936613    0.404514   -1.648449
    130          1           0       16.414862    1.247665   -1.890519
    131          1           0       15.073072    1.990802   -0.973561
    132          1           0       15.865063   -0.723632    2.366134
    133          1           0       16.712013   -2.106531    1.978459
    134          1           0       14.727178   -3.311523    1.374219
    135          1           0       13.921420   -1.833133    0.764051
    136          1           0       18.630979    6.075249   -1.251499
    137          1           0       18.326226    6.194998    0.611341
    138          1           0       17.547308    4.982025   -0.436950
    139          1           0       23.757113    6.265528    0.115315
    140          1           0       23.378630    7.197973   -1.358038
    141          1           0       23.449880    5.478206   -1.593050
    142          1           0       25.287827    2.282877    1.569969
    143          1           0       25.687659   -0.298649    0.045690
    144          1           0       26.620816    1.724689   -0.836498
    145          1           0       26.289374    3.336082   -0.213531
    146          1           0       25.152303    2.670675   -1.305846
    147          1           0       25.484657   -0.981527    2.738751
    148          1           0       25.844435    0.688892    2.940140
    149          1           0       28.000143   -0.149312    2.885730
    150          1           0       27.795185   -0.187015    1.122160
    151          1           0       27.552996   -1.639724    2.059255
    152          1           0       23.860180   -4.596252    0.488474
    153          1           0       22.612980   -5.669364   -0.446511
    154          1           0       22.618351   -5.441978    1.310790
    155          1           0       17.430393   -4.020041    0.449847
    156          1           0       15.462286   -3.725835   -3.397258
    157          1           0       14.233144   -4.372310   -2.338645
    158          1           0       15.476357   -5.394222   -2.867064
 ---------------------------------------------------------------------

 SCF Done:  E(RCAM-B3LYP) =  -4069.82678137     A.U. after   19 cycles

 Excitation energies and oscillator strengths:

 Excited State   1:      Singlet-A      1.7088 eV  725.55 nm  f=0.3624  <S**2>=0.000
     310 -> 315        0.17443
     312 -> 314        0.68608
     310 <- 315        0.10516
 This state for optimization and/or second-order correction.
 Total Energy, E(TD-HF/TD-DFT) =  -4069.76398337
 Copying the excited state density for this state as the 1-particle RhoCI density.

 Excited State   2:      Singlet-A      1.7418 eV  711.80 nm  f=0.3945  <S**2>=0.000
     309 -> 316        0.17693
     311 -> 313        0.68525
     309 <- 316        0.10390

 Excited State   3:      Singlet-A      2.2176 eV  559.10 nm  f=0.1292  <S**2>=0.000
     309 -> 313        0.65047
     311 -> 316       -0.25333

 Excited State   4:      Singlet-A      2.2475 eV  551.66 nm  f=0.0934  <S**2>=0.000
     310 -> 314        0.62549
     312 -> 315       -0.31544

 Excited State   5:      Singlet-A      3.0116 eV  411.68 nm  f=0.0000  <S**2>=0.000
     312 -> 313        0.70709

 The electronic state is 1-A.
 Alpha  occ. eigenvalues --  -46.89139 -46.89125 -19.26410 -19.26318 -19.20223
 Alpha  occ. eigenvalues --  -19.19653 -19.19495 -19.18410 -19.18296 -19.18178
 Alpha  occ. eigenvalues --  -14.42371 -14.42139 -14.42096 -14.42078 -14.40194
 Alpha  occ. eigenvalues --  -14.39806 -14.39074 -14.38622 -10.39914 -10.39485
 Alpha  occ. eigenvalues --  -10.36645 -10.34852 -10.34715 -10.34466 -10.32760
 Alpha  occ. eigenvalues --  -10.32163 -10.32003 -10.31696 -10.31559 -10.31235
 Alpha  occ. eigenvalues --  -10.31204 -10.31152 -10.31056 -10.30536 -10.30446
 Alpha  occ. eigenvalues --  -10.30404 -10.30365 -10.30228 -10.29640 -10.29217
 Alpha  occ. eigenvalues --  -10.29062 -10.28764 -10.28578 -10.28474 -10.28459
 Alpha  occ. eigenvalues --  -10.28443 -10.28392 -10.28358 -10.28316 -10.28295
 Alpha  occ. eigenvalues --  -10.28224 -10.28128 -10.28038 -10.27990 -10.27979
 Alpha  occ. eigenvalues --  -10.27933 -10.27872 -10.27748 -10.27708 -10.27670
 Alpha  occ. eigenvalues --  -10.27575 -10.27442 -10.27416 -10.27377 -10.27309
 Alpha  occ. eigenvalues --  -10.27261 -10.27246 -10.27192 -10.27012 -10.26955
 Alpha  occ. eigenvalues --  -10.26886 -10.26789 -10.26707 -10.26561 -10.26526
 Alpha  occ. eigenvalues --  -10.26482 -10.26357 -10.26245 -10.26010 -10.25940
 Alpha  occ. eigenvalues --  -10.25736 -10.25634 -10.25570 -10.24990 -10.24568
 Alpha  occ. eigenvalues --  -10.24552  -3.17672  -3.17578  -1.92538  -1.92454
 Alpha  occ. eigenvalues --   -1.92114  -1.92053  -1.92002  -1.91860  -1.17434
 Alpha  occ. eigenvalues --   -1.16794  -1.09070  -1.08586  -1.08414  -1.08321
 Alpha  occ. eigenvalues --   -1.08011  -1.07712  -1.05001  -1.04641  -1.04559
 Alpha  occ. eigenvalues --   -1.03969  -1.03485  -1.02748  -1.02114  -1.01532
 Alpha  occ. eigenvalues --   -0.94089  -0.91382  -0.89299  -0.89062  -0.88846
 Alpha  occ. eigenvalues --   -0.88804  -0.88767  -0.88653  -0.87809  -0.87244
 Alpha  occ. eigenvalues --   -0.86953  -0.86357  -0.86343  -0.85863  -0.85118
 Alpha  occ. eigenvalues --   -0.84276  -0.84147  -0.83863  -0.83369  -0.82821
 Alpha  occ. eigenvalues --   -0.82469  -0.81603  -0.81476  -0.81085  -0.80917
 Alpha  occ. eigenvalues --   -0.80155  -0.78643  -0.78010  -0.77905  -0.77443
 Alpha  occ. eigenvalues --   -0.77077  -0.76705  -0.76181  -0.75849  -0.75257
 Alpha  occ. eigenvalues --   -0.74976  -0.72671  -0.72532  -0.72143  -0.71688
 Alpha  occ. eigenvalues --   -0.70167  -0.69165  -0.69141  -0.68932  -0.68863
 Alpha  occ. eigenvalues --   -0.67844  -0.67216  -0.67148  -0.66578  -0.66097
 Alpha  occ. eigenvalues --   -0.65355  -0.65234  -0.65039  -0.64954  -0.64521
 Alpha  occ. eigenvalues --   -0.64409  -0.63844  -0.62648  -0.60260  -0.59911
 Alpha  occ. eigenvalues --   -0.59753  -0.59559  -0.59358  -0.58886  -0.58845
 Alpha  occ. eigenvalues --   -0.58572  -0.58405  -0.58040  -0.57691  -0.57198
 Alpha  occ. eigenvalues --   -0.56861  -0.56604  -0.55932  -0.55823  -0.55717
 Alpha  occ. eigenvalues --   -0.55303  -0.55177  -0.54980  -0.54538  -0.54270
 Alpha  occ. eigenvalues --   -0.53773  -0.53732  -0.53501  -0.53331  -0.53105
 Alpha  occ. eigenvalues --   -0.53092  -0.52762  -0.52563  -0.52503  -0.51982
 Alpha  occ. eigenvalues --   -0.51906  -0.51843  -0.51546  -0.51451  -0.51318
 Alpha  occ. eigenvalues --   -0.51145  -0.51098  -0.51062  -0.50938  -0.50835
 Alpha  occ. eigenvalues --   -0.50349  -0.49912  -0.49617  -0.49488  -0.49425
 Alpha  occ. eigenvalues --   -0.49289  -0.49135  -0.49021  -0.48771  -0.48703
 Alpha  occ. eigenvalues --   -0.48494  -0.48476  -0.48232  -0.48177  -0.48108
 Alpha  occ. eigenvalues --   -0.47806  -0.47648  -0.47646  -0.47443  -0.47145
 Alpha  occ. eigenvalues --   -0.47114  -0.46827  -0.46743  -0.46537  -0.46446
 Alpha  occ. eigenvalues --   -0.46424  -0.46348  -0.46071  -0.45970  -0.45755
 Alpha  occ. eigenvalues --   -0.45659  -0.45532  -0.45251  -0.45215  -0.44877
 Alpha  occ. eigenvalues --   -0.44741  -0.44676  -0.44638  -0.44558  -0.44393
 Alpha  occ. eigenvalues --   -0.44083  -0.43755  -0.43750  -0.43730  -0.43566
 Alpha  occ. eigenvalues --   -0.43444  -0.43244  -0.42908  -0.42830  -0.42458
 Alpha  occ. eigenvalues --   -0.42437  -0.42419  -0.42322  -0.42264  -0.42083
 Alpha  occ. eigenvalues --   -0.41923  -0.41922  -0.41802  -0.41538  -0.41291
 Alpha  occ. eigenvalues --   -0.41169  -0.41112  -0.40977  -0.40764  -0.40570
 Alpha  occ. eigenvalues --   -0.40499  -0.39679  -0.39545  -0.39326  -0.39211
 Alpha  occ. eigenvalues --   -0.38697  -0.38635  -0.38345  -0.38117  -0.37847
 Alpha  occ. eigenvalues --   -0.37711  -0.37536  -0.37339  -0.36906  -0.36815
 Alpha  occ. eigenvalues --   -0.36379  -0.35985  -0.34832  -0.34756  -0.34712
 Alpha  occ. eigenvalues --   -0.34011  -0.33123  -0.32998  -0.31797  -0.31549
 Alpha  occ. eigenvalues --   -0.31165  -0.30895  -0.30461  -0.30458  -0.30415
 Alpha  occ. eigenvalues --   -0.30117  -0.29800  -0.29005  -0.24314  -0.24164
 Alpha  occ. eigenvalues --   -0.21684  -0.21048
 Alpha virt. eigenvalues --   -0.09157  -0.08546  -0.01988  -0.01899   0.00133
 Alpha virt. eigenvalues --    0.00206   0.01325   0.01673   0.01998   0.02014
 Alpha virt. eigenvalues --    0.04971   0.05028   0.05085   0.05494   0.06068

 Mulliken charges:
               1
     1  Mg   0.798094
     2  C    0.011961
     3  C   -0.057714
     4  C   -0.074877
     5  C   -0.069401
     6  N   -0.239873
     7  C   -0.031538
     8  C   -0.030202
     9  C   -0.077638
    10  C    0.066827
    11  C    0.065552
    12  C    0.047156
    13  C   -0.074963
    14  H    0.019481
    15  N   -0.433545
    16  C    0.129013
    17  C   -0.132421
    18  C   -0.006629
    19  C    0.148051
    20  C    0.133178
    21  C   -0.016214
    22  O   -0.242222
    23  C    0.083999
    24  N   -0.253708
    25  C    0.012189
    26  C   -0.005317
    27  C   -0.034251
    28  C    0.078920
    29  C    0.065235
    30  C    0.032758
    31  C   -0.000109
    32  N   -0.354124
    33  C    0.076918
    34  C   -0.160968
    35  C    0.052230
    36  C    0.082309
    37  C    0.092188
    38  C   -0.004236
    39  O   -0.166229
    40  C   -0.005002
    41  C    0.184398
    42  O   -0.197420
    43  O   -0.322807
    44  C    0.181844
    45  H   -0.028824
    46  H   -0.058544
    47  H   -0.033111
    48  H   -0.003180
    49  H    0.010758
    50  H    0.015799
    51  H    0.005776
    52  H    0.017978
    53  H    0.000138
    54  H    0.007561
    55  H    0.057200
    56  H    0.043824
    57  H    0.028992
    58  H    0.009146
    59  H    0.039474
    60  H    0.033984
    61  H    0.054629
    62  H    0.027247
    63  H    0.023321
    64  H    0.016283
    65  H    0.015927
    66  H    0.029074
    67  H    0.005126
    68  H    0.011784
    69  H    0.004207
    70  H    0.012599
    71  H    0.012479
    72  H    0.024992
    73  H    0.015356
    74  H    0.034374
    75  H    0.015771
    76  H    0.059724
    77  H    0.045672
    78  H    0.040605
    79  H    0.032968
    80  Mg   0.836067
    81  C   -0.065948
    82  C   -0.099820
    83  C   -0.076444
    84  C   -0.074312
    85  N   -0.335326
    86  C   -0.052991
    87  C   -0.007695
    88  C   -0.038903
    89  C    0.100358
    90  C    0.060678
    91  C    0.062687
    92  C   -0.070278
    93  H    0.026069
    94  N   -0.347173
    95  C    0.138412
    96  C   -0.175729
    97  C   -0.042945
    98  C    0.173868
    99  C    0.164801
   100  C    0.001189
   101  O   -0.229655
   102  C    0.054735
   103  N   -0.257132
   104  C   -0.006403
   105  C   -0.021870
   106  C   -0.004525
   107  C    0.016324
   108  C    0.057151
   109  C    0.038587
   110  C   -0.002750
   111  N   -0.349136
   112  C    0.092010
   113  C   -0.191267
   114  C    0.000946
   115  C    0.118559
   116  C    0.151209
   117  C    0.079085
   118  O   -0.194579
   119  C    0.005656
   120  C    0.224949
   121  O   -0.217120
   122  O   -0.326143
   123  C    0.174492
   124  H   -0.017104
   125  H   -0.042536
   126  H   -0.036601
   127  H    0.000666
   128  H    0.005497
   129  H    0.014755
   130  H    0.013545
   131  H    0.016707
   132  H    0.006695
   133  H    0.005762
   134  H    0.043386
   135  H    0.028652
   136  H    0.042057
   137  H    0.047482
   138  H   -0.009893
   139  H    0.058727
   140  H    0.031644
   141  H    0.040078
   142  H    0.020087
   143  H    0.008822
   144  H    0.024573
   145  H    0.011746
   146  H    0.017608
   147  H    0.008259
   148  H    0.004632
   149  H    0.016441
   150  H    0.008698
   151  H    0.019584
   152  H   -0.000785
   153  H    0.052450
   154  H    0.027019
   155  H    0.034552
   156  H    0.037783
   157  H    0.033907
   158  H    0.035416
 Sum of Mulliken charges =  -0.00000

 Dipole moment (field-independent basis, Debye):
    X=             -2.9181    Y=              4.0603    Z=             -0.0840  Tot=              5.0009
 Quadrupole moment (field-independent basis, Debye-Ang):
   XX=           -322.0664   YY=           -519.2869   ZZ=           -512.9359
   XY=              7.8058   XZ=             57.0555   YZ=             -5.5767

 Normal termination of Gaussian 16 at Wed Sep 15 19:28:06 2021.
