 Gaussian 16, Revision A.03,
 Gaussian 16:  ES64L-G16RevA.03 25-Dec-2016

 ----------------------------------------------------------
 #p cam-b3lyp/Def2SVP td=(nstates=5) density=(transition=1)
 ----------------------------------------------------------

 --------------------------------
 TDDFT excited states in gaussian
 --------------------------------
 Symbolic Z-matrix:
 Charge =  0 Multiplicity = 1

                         Standard orientation:
 ---------------------------------------------------------------------
 Center     Atomic      Atomic             Coordinates (Angstroms)
 Number     Number       Type             X           Y           Z
 ---------------------------------------------------------------------
      1         12           0       29.010166    0.096697   -0.139595
      2          6           0       25.598525   -0.674322   -0.271927
      3          6           0       28.210967    2.911311   -1.983479
      4          6           0       32.173085    1.098928    0.225749
      5          6           0       29.430225   -2.292517    2.377465
      6          7           0       26.938120    1.118193   -0.881954
      7          6           0       25.727806    0.528025   -0.908672
      8          6           0       24.663900    1.361766   -1.581433
      9          6           0       25.648066    2.326488   -2.346455
     10          6           0       27.022708    2.186153   -1.700698
     11          6           0       25.759011    1.898769   -3.834253
     12          6           0       23.666903    1.924895   -0.560718
     13          6           0       24.172779    2.439620    0.802964
     14          1           0       23.665775    3.812994    1.226845
     15          7           0       30.043657    1.740037   -0.784640
     16          6           0       29.551943    2.703992   -1.624358
     17          6           0       30.678395    3.404596   -2.254741
     18          6           0       31.869136    3.016463   -1.519659
     19          6           0       31.374360    1.897939   -0.660281
     20          6           0       30.484139    4.616782   -3.243969
     21          6           0       33.265106    3.632995   -1.638940
     22          8           0       33.505241    4.440278   -2.492980
     23          6           0       34.361876    3.194023   -0.712186
     24          7           0       30.526231   -0.419435    1.330337
     25          6           0       31.844908    0.058873    1.217832
     26          6           0       32.838376   -0.613403    2.257235
     27          6           0       31.905414   -1.754252    2.887029
     28          6           0       30.524525   -1.510626    2.122360
     29          6           0       34.279028   -1.148046    1.777143
     30          6           0       31.756072   -1.789442    4.476193
     31          6           0       31.593988   -3.302736    4.995499
     32          7           0       27.813196   -1.292894    0.862279
     33          6           0       28.150124   -2.253933    1.793663
     34          6           0       26.983923   -3.085309    2.065805
     35          6           0       25.934867   -2.588002    1.250255
     36          6           0       26.476067   -1.429760    0.584133
     37          6           0       26.951247   -4.341418    2.896470
     38          6           0       24.490289   -2.649145    0.853675
     39          8           0       23.590531   -3.338074    1.280190
     40          6           0       24.290296   -1.450637   -0.168325
     41          6           0       23.874977   -2.066953   -1.475890
     42          8           0       22.718625   -2.497046   -1.713948
     43          8           0       24.906317   -1.945512   -2.395866
     44          6           0       24.571482   -2.278808   -3.740043
     45          1           0       27.977612    3.750704   -2.641955
     46          1           0       33.259258    1.201267    0.277387
     47          1           0       29.626699   -3.158329    3.013450
     48          1           0       24.146112    0.803125   -2.360896
     49          1           0       25.415051    3.390389   -2.355681
     50          1           0       26.781466    2.130050   -4.133895
     51          1           0       24.974481    2.367313   -4.426778
     52          1           0       25.734945    0.837975   -4.085698
     53          1           0       23.019978    1.089778   -0.293846
     54          1           0       23.085819    2.705511   -1.051864
     55          1           0       25.257871    2.531983    0.763782
     56          1           0       23.832765    1.746797    1.572158
     57          1           0       30.223535    5.563294   -2.769583
     58          1           0       29.720850    4.366262   -3.980747
     59          1           0       31.322187    4.834053   -3.905216
     60          1           0       35.250264    3.819410   -0.806120
     61          1           0       34.661572    2.156696   -0.862639
     62          1           0       33.938641    3.439662    0.262154
     63          1           0       32.961471    0.220692    2.947034
     64          1           0       32.241226   -2.745160    2.582722
     65          1           0       34.980415   -0.322580    1.892933
     66          1           0       34.253784   -1.492149    0.743561
     67          1           0       34.552913   -2.001692    2.397460
     68          1           0       30.819134   -1.330510    4.791631
     69          1           0       32.580441   -1.265168    4.960200
     70          1           0       30.636717   -3.442900    5.497747
     71          1           0       32.391346   -3.529571    5.702614
     72          1           0       31.540605   -4.109738    4.265560
     73          1           0       27.271687   -4.092242    3.907502
     74          1           0       27.646115   -5.071911    2.481620
     75          1           0       25.948152   -4.759893    2.977157
     76          1           0       23.408957   -0.932334    0.208781
     77          1           0       25.419950   -2.055679   -4.386489
     78          1           0       23.628705   -1.819684   -4.037999
     79          1           0       24.472599   -3.354920   -3.882288
     80         12           0      -28.844501    0.512503    0.183499
     81          6           0      -25.823062   -1.144466    0.077076
     82          6           0      -29.729084   -1.343779   -2.749012
     83          6           0      -31.603748    2.241561   -0.040272
     84          6           0      -27.731880    2.471779    2.808097
     85          7           0      -27.738811   -0.945530   -1.305147
     86          6           0      -26.638050   -1.597994   -0.971209
     87          6           0      -26.491022   -2.904186   -1.801775
     88          6           0      -27.440060   -2.563407   -3.003501
     89          6           0      -28.400205   -1.548128   -2.363230
     90          6           0      -26.663093   -1.961720   -4.228054
     91          6           0      -27.000586   -4.047166   -0.895822
     92          6           0      -26.825613   -5.475088   -1.430473
     93          1           0      -26.417721   -5.704807   -2.871881
     94          7           0      -30.504090    0.452737   -1.067146
     95          6           0      -30.674231   -0.419470   -2.196858
     96          6           0      -32.053568   -0.245762   -2.631262
     97          6           0      -32.642219    0.728050   -1.765278
     98          6           0      -31.567939    1.230014   -0.909717
     99          6           0      -32.734923   -1.049502   -3.800851
    100          6           0      -34.145371    1.158713   -1.714157
    101          8           0      -34.444347    2.079707   -1.004504
    102          6           0      -35.164570    0.463726   -2.557353
    103          7           0      -29.610527    2.087974    1.309523
    104          6           0      -30.803537    2.662092    1.034990
    105          6           0      -31.118781    3.857720    1.933092
    106          6           0      -29.934567    3.829967    2.927028
    107          6           0      -29.014185    2.705691    2.299389
    108          6           0      -31.273250    5.239656    1.198011
    109          6           0      -30.262415    3.704101    4.392985
    110          6           0      -31.276574    2.652020    4.903062
    111          7           0      -27.154324    0.711599    1.267806
    112          6           0      -26.826099    1.530307    2.310245
    113          6           0      -25.524227    1.112936    2.786460
    114          6           0      -25.056160    0.025036    1.972021
    115          6           0      -26.116424   -0.157421    1.042476
    116          6           0      -24.810555    1.748800    3.938407
    117          6           0      -23.985639   -0.868965    1.683147
    118          8           0      -22.853341   -1.032545    2.187600
    119          6           0      -24.392660   -1.472549    0.230527
    120          6           0      -23.950850   -2.936925    0.231025
    121          8           0      -24.239570   -3.736226    1.037266
    122          8           0      -23.130106   -3.128245   -0.843869
    123          6           0      -22.872778   -4.488644   -1.269464
    124          1           0      -29.964659   -1.863805   -3.679400
    125          1           0      -32.484929    2.883797   -0.099791
    126          1           0      -27.314696    3.066084    3.622783
    127          1           0      -25.480920   -3.035384   -2.189546
    128          1           0      -27.931139   -3.513885   -3.213534
    129          1           0      -26.572521   -2.719287   -5.005534
    130          1           0      -25.687005   -1.631123   -3.872486
    131          1           0      -27.183913   -1.134105   -4.709698
    132          1           0      -28.077769   -3.920044   -0.791202
    133          1           0      -26.644244   -3.947757    0.129020
    134          1           0      -27.602475   -6.159322   -1.088549
    135          1           0      -26.019883   -5.888116   -0.823300
    136          1           0      -33.235167   -0.396545   -4.516660
    137          1           0      -33.408760   -1.755052   -3.315068
    138          1           0      -31.990166   -1.676598   -4.292428
    139          1           0      -36.068802    0.591112   -1.961758
    140          1           0      -35.008703   -0.613483   -2.603400
    141          1           0      -35.209671    0.640618   -3.631923
    142          1           0      -32.059703    3.601625    2.419592
    143          1           0      -29.280420    4.696819    2.833704
    144          1           0      -30.867046    5.981208    1.885391
    145          1           0      -32.355592    5.329742    1.103381
    146          1           0      -30.840516    5.190544    0.198845
    147          1           0      -30.839673    4.617367    4.533313
    148          1           0      -29.429368    3.656305    5.095106
    149          1           0      -32.178067    3.004445    5.402514
    150          1           0      -30.854432    2.051882    5.709088
    151          1           0      -31.611533    2.042446    4.063696
    152          1           0      -23.844630    1.247713    3.994881
    153          1           0      -25.335253    1.529285    4.869218
    154          1           0      -24.765649    2.837248    3.916088
    155          1           0      -23.870929   -0.840002   -0.487951
    156          1           0      -21.795959   -4.324790   -1.225661
    157          1           0      -23.350991   -4.752577   -2.212972
    158          1           0      -23.134703   -5.248767   -0.532995
 ---------------------------------------------------------------------

 SCF Done:  E(RCAM-B3LYP) =  -4069.79849033     A.U. after   18 cycles

 Excitation energies and oscillator strengths:

 Excited State   1:      Singlet-A      1.7338 eV  715.09 nm  f=0.3780  <S**2>=0.000
     310 -> 316       -0.19607
     312 -> 314        0.68081
     310 <- 316       -0.11065
 This state for optimization and/or second-order correction.
 Total Energy, E(TD-HF/TD-DFT) =  -4069.73477350
 Copying the excited state density for this state as the 1-particle RhoCI density.

 Excited State   2:      Singlet-A      1.7468 eV  709.77 nm  f=0.3556  <S**2>=0.000
     309 -> 315        0.19408
     311 -> 313        0.68060
     309 <- 315        0.10945

 Excited State   3:      Singlet-A      2.2194 eV  558.65 nm  f=0.0921  <S**2>=0.000
     310 -> 314        0.63499
     312 -> 316        0.29927

 Excited State   4:      Singlet-A      2.2374 eV  554.14 nm  f=0.1043  <S**2>=0.000
     309 -> 313        0.63526
     311 -> 315       -0.29902

 Excited State   5:      Singlet-A      3.2262 eV  384.31 nm  f=0.0000  <S**2>=0.000
     312 -> 313        0.70711

 The electronic state is 1-A.
 Alpha  occ. eigenvalues --  -46.90388 -46.88252 -19.26031 -19.24366 -19.20242
 Alpha  occ. eigenvalues --  -19.20004 -19.19537 -19.19080 -19.19033 -19.18999
 Alpha  occ. eigenvalues --  -14.42253 -14.41804 -14.41716 -14.41713 -14.40516
 Alpha  occ. eigenvalues --  -14.39467 -14.39289 -14.39257 -10.39966 -10.38897
 Alpha  occ. eigenvalues --  -10.35779 -10.35299 -10.35260 -10.35040 -10.32823
 Alpha  occ. eigenvalues --  -10.31971 -10.31823 -10.31443 -10.31121 -10.30842
 Alpha  occ. eigenvalues --  -10.30695 -10.30603 -10.30579 -10.30575 -10.30411
 Alpha  occ. eigenvalues --  -10.30267 -10.30203 -10.29879 -10.29607 -10.29574
 Alpha  occ. eigenvalues --  -10.29542 -10.29296 -10.29257 -10.28991 -10.28949
 Alpha  occ. eigenvalues --  -10.28753 -10.28583 -10.28528 -10.28516 -10.28440
 Alpha  occ. eigenvalues --  -10.28433 -10.28384 -10.28059 -10.28058 -10.27986
 Alpha  occ. eigenvalues --  -10.27901 -10.27786 -10.27784 -10.27780 -10.27766
 Alpha  occ. eigenvalues --  -10.27740 -10.27714 -10.27678 -10.27638 -10.27605
 Alpha  occ. eigenvalues --  -10.27566 -10.27565 -10.26866 -10.26724 -10.26542
 Alpha  occ. eigenvalues --  -10.26450 -10.26447 -10.26421 -10.26287 -10.26261
 Alpha  occ. eigenvalues --  -10.26253 -10.26248 -10.26213 -10.26193 -10.26169
 Alpha  occ. eigenvalues --  -10.25937 -10.25879 -10.25773 -10.25728 -10.25256
 Alpha  occ. eigenvalues --  -10.24929  -3.18751  -3.16888  -1.93614  -1.93226
 Alpha  occ. eigenvalues --   -1.93041  -1.91788  -1.91360  -1.91179  -1.17592
 Alpha  occ. eigenvalues --   -1.16448  -1.11508  -1.11498  -1.10648  -1.09781
 Alpha  occ. eigenvalues --   -1.07991  -1.07041  -1.05220  -1.04778  -1.04064
 Alpha  occ. eigenvalues --   -1.03880  -1.03036  -1.02955  -1.02059  -1.01889
 Alpha  occ. eigenvalues --   -0.93003  -0.92505  -0.89364  -0.89011  -0.88653
 Alpha  occ. eigenvalues --   -0.88521  -0.88330  -0.87733  -0.87338  -0.87291
 Alpha  occ. eigenvalues --   -0.86417  -0.86041  -0.85665  -0.85658  -0.84843
 Alpha  occ. eigenvalues --   -0.84051  -0.83720  -0.83343  -0.82705  -0.82413
 Alpha  occ. eigenvalues --   -0.81875  -0.81749  -0.81408  -0.80800  -0.80360
 Alpha  occ. eigenvalues --   -0.80264  -0.77980  -0.77529  -0.77344  -0.77282
 Alpha  occ. eigenvalues --   -0.76805  -0.76699  -0.76413  -0.75856  -0.75497
 Alpha  occ. eigenvalues --   -0.75316  -0.72807  -0.72669  -0.72053  -0.71991
 Alpha  occ. eigenvalues --   -0.70257  -0.69926  -0.69396  -0.68867  -0.68212
 Alpha  occ. eigenvalues --   -0.68090  -0.67153  -0.66187  -0.65891  -0.65173
 Alpha  occ. eigenvalues --   -0.64908  -0.64888  -0.64831  -0.64622  -0.64283
 Alpha  occ. eigenvalues --   -0.64140  -0.63711  -0.62355  -0.60493  -0.60024
 Alpha  occ. eigenvalues --   -0.59636  -0.59267  -0.59148  -0.58950  -0.58807
 Alpha  occ. eigenvalues --   -0.58172  -0.58129  -0.57904  -0.57788  -0.57340
 Alpha  occ. eigenvalues --   -0.56288  -0.56208  -0.56124  -0.56085  -0.55637
 Alpha  occ. eigenvalues --   -0.55484  -0.55336  -0.55057  -0.54294  -0.54211
 Alpha  occ. eigenvalues --   -0.53657  -0.53621  -0.53505  -0.53208  -0.53057
 Alpha  occ. eigenvalues --   -0.52951  -0.52780  -0.52378  -0.52294  -0.52070
 Alpha  occ. eigenvalues --   -0.51922  -0.51794  -0.51631  -0.51435  -0.51081
 Alpha  occ. eigenvalues --   -0.50748  -0.50704  -0.50692  -0.50547  -0.50135
 Alpha  occ. eigenvalues --   -0.50041  -0.49974  -0.49934  -0.49711  -0.49679
 Alpha  occ. eigenvalues --   -0.49547  -0.49546  -0.49311  -0.49297  -0.48928
 Alpha  occ. eigenvalues --   -0.48759  -0.48685  -0.48370  -0.48219  -0.48126
 Alpha  occ. eigenvalues --   -0.47963  -0.47625  -0.47564  -0.47307  -0.47232
 Alpha  occ. eigenvalues --   -0.46943  -0.46836  -0.46666  -0.46609  -0.46531
 Alpha  occ. eigenvalues --   -0.46310  -0.46076  -0.45946  -0.45823  -0.45684
 Alpha  occ. eigenvalues --   -0.45571  -0.45551  -0.45319  -0.45199  -0.45193
 Alpha  occ. eigenvalues --   -0.44997  -0.44877  -0.44728  -0.44243  -0.43949
 Alpha  occ. eigenvalues --   -0.43851  -0.43845  -0.43631  -0.43380  -0.43346
 Alpha  occ. eigenvalues --   -0.43262  -0.43250  -0.42979  -0.42966  -0.42845
 Alpha  occ. eigenvalues --   -0.42778  -0.42682  -0.42292  -0.42219  -0.42207
 Alpha  occ. eigenvalues --   -0.42073  -0.41996  -0.41977  -0.41865  -0.41729
 Alpha  occ. eigenvalues --   -0.41556  -0.41418  -0.41229  -0.40978  -0.40368
 Alpha  occ. eigenvalues --   -0.40209  -0.39914  -0.39538  -0.39430  -0.39092
 Alpha  occ. eigenvalues --   -0.38939  -0.38387  -0.38116  -0.37937  -0.37497
 Alpha  occ. eigenvalues --   -0.37269  -0.37186  -0.37116  -0.36776  -0.36371
 Alpha  occ. eigenvalues --   -0.36312  -0.35838  -0.35119  -0.34682  -0.34387
 Alpha  occ. eigenvalues --   -0.33946  -0.33330  -0.33151  -0.31567  -0.31367
 Alpha  occ. eigenvalues --   -0.31201  -0.30997  -0.30896  -0.30603  -0.30404
 Alpha  occ. eigenvalues --   -0.29807  -0.29725  -0.29348  -0.24028  -0.23795
 Alpha  occ. eigenvalues --   -0.21388  -0.21082
 Alpha virt. eigenvalues --   -0.08629  -0.08421  -0.02073  -0.01873   0.00100
 Alpha virt. eigenvalues --    0.00204   0.00771   0.02014   0.02624   0.03039
 Alpha virt. eigenvalues --    0.04442   0.05353   0.05495   0.05866   0.05921

 Mulliken charges:
               1
     1  Mg  12.000036
     2  C    5.999580
     3  C    6.000209
     4  C    6.000572
     5  C    5.999803
     6  N    6.999837
     7  C    6.000603
     8  C    5.999824
     9  C    6.000067
    10  C    5.999560
    11  C    6.000059
    12  C    5.999930
    13  C    5.999872
    14  H    1.000188
    15  N    7.000208
    16  C    5.999301
    17  C    5.999664
    18  C    5.999818
    19  C    5.999254
    20  C    6.000081
    21  C    5.999794
    22  O    7.999670
    23  C    6.000049
    24  N    7.000069
    25  C    5.999194
    26  C    6.000212
    27  C    5.999875
    28  C    6.000447
    29  C    6.000025
    30  C    5.999943
    31  C    5.999989
    32  N    6.999917
    33  C    6.000627
    34  C    6.000522
    35  C    6.000037
    36  C    6.000624
    37  C    5.999936
    38  C    6.000325
    39  O    8.000477
    40  C    6.000073
    41  C    6.000007
    42  O    8.000128
    43  O    8.000002
    44  C    5.999943
    45  H    0.999818
    46  H    0.999862
    47  H    1.000149
    48  H    1.000052
    49  H    1.000014
    50  H    1.000117
    51  H    0.999884
    52  H    0.999783
    53  H    0.999935
    54  H    1.000160
    55  H    1.000124
    56  H    0.999904
    57  H    0.999664
    58  H    0.999713
    59  H    0.999725
    60  H    0.999771
    61  H    0.999825
    62  H    0.999888
    63  H    0.999968
    64  H    1.000005
    65  H    1.000029
    66  H    0.999966
    67  H    0.999832
    68  H    0.999999
    69  H    1.000170
    70  H    0.999950
    71  H    1.000079
    72  H    0.999963
    73  H    1.000320
    74  H    1.000320
    75  H    1.000267
    76  H    1.000152
    77  H    1.000115
    78  H    1.000104
    79  H    1.000025
    80  Mg  11.997258
    81  C    6.012094
    82  C    5.968545
    83  C    5.981494
    84  C    6.018622
    85  N    6.995563
    86  C    5.972052
    87  C    6.004172
    88  C    5.990823
    89  C    6.038398
    90  C    5.996863
    91  C    6.008026
    92  C    5.998804
    93  H    0.993661
    94  N    6.987469
    95  C    6.062141
    96  C    6.008666
    97  C    6.021274
    98  C    6.031646
    99  C    5.999468
   100  C    6.014642
   101  O    8.026841
   102  C    5.994818
   103  N    7.001214
   104  C    6.038240
   105  C    5.989320
   106  C    6.006064
   107  C    5.966953
   108  C    5.998540
   109  C    6.007248
   110  C    6.002196
   111  N    7.007288
   112  C    5.959874
   113  C    5.967853
   114  C    5.994112
   115  C    5.971913
   116  C    6.002572
   117  C    5.984304
   118  O    7.966973
   119  C    5.999803
   120  C    5.994205
   121  O    7.995526
   122  O    7.998628
   123  C    6.001352
   124  H    1.008335
   125  H    1.005848
   126  H    0.994468
   127  H    1.001074
   128  H    1.002340
   129  H    1.004697
   130  H    1.015581
   131  H    0.996011
   132  H    0.985893
   133  H    1.007977
   134  H    0.995853
   135  H    1.003746
   136  H    1.015492
   137  H    1.015946
   138  H    1.017933
   139  H    1.014674
   140  H    1.006481
   141  H    1.010506
   142  H    0.999779
   143  H    1.002592
   144  H    1.012054
   145  H    0.998036
   146  H    1.000437
   147  H    0.991024
   148  H    1.005256
   149  H    0.995797
   150  H    1.003839
   151  H    0.989588
   152  H    0.986838
   153  H    0.975928
   154  H    0.977785
   155  H    0.993028
   156  H    0.998207
   157  H    0.992664
   158  H    0.996775
 Sum of Mulliken charges = 624.00000

 Dipole moment (field-independent basis, Debye):
    X=             -9.1311    Y=              0.0509    Z=             -5.6228  Tot=             10.7236
 Quadrupole moment (field-independent basis, Debye-Ang):
   XX=            514.0854   YY=             -1.5717   ZZ=             -1.1688
   XY=            -11.2829   XZ=            165.0858   YZ=             -2.7890

 Normal termination of Gaussian 16 at Wed Sep 22 17:50:08 2021.
