 Gaussian 16, Revision A.03,
 Gaussian 16:  ES64L-G16RevA.03 25-Dec-2016

 ----------------------------------------------------------
 #p cam-b3lyp/Def2SVP td=(nstates=5) density=(transition=1)
 ----------------------------------------------------------

 --------------------------------
 TDDFT excited states in gaussian
 --------------------------------
 Symbolic Z-matrix:
 Charge =  0 Multiplicity = 1

                         Standard orientation:
 ---------------------------------------------------------------------
 Center     Atomic      Atomic             Coordinates (Angstroms)
 Number     Number       Type             X           Y           Z
 ---------------------------------------------------------------------
      1         12           0       19.783052    0.137929    0.475088
      2          6           0       17.576423   -1.247106   -1.875982
      3          6           0       21.055445    2.190858   -1.824479
      4          6           0       21.795237    1.232392    2.761326
      5          6           0       19.048135   -2.771708    2.495629
      6          7           0       19.395972    0.324182   -1.636253
      7          6           0       18.386594   -0.174445   -2.361057
      8          6           0       18.445979    0.278529   -3.797066
      9          6           0       19.820312    1.059036   -3.849804
     10          6           0       20.111248    1.223135   -2.370608
     11          6           0       21.010646    0.419597   -4.635792
     12          6           0       17.230228    1.288247   -4.122408
     13          6           0       16.470236    0.941369   -5.444466
     14          1           0       15.082501    1.774689   -5.571581
     15          7           0       21.010037    1.644663    0.533806
     16          6           0       21.407786    2.445260   -0.523361
     17          6           0       22.135045    3.567064    0.003623
     18          6           0       22.379640    3.370363    1.424223
     19          6           0       21.624135    2.087087    1.692111
     20          6           0       22.669761    4.645933   -0.981496
     21          6           0       23.112243    4.131748    2.523087
     22          8           0       23.136942    3.840827    3.732640
     23          6           0       23.740412    5.385801    2.027030
     24          7           0       20.403449   -0.792552    2.258763
     25          6           0       21.285216   -0.050926    3.005569
     26          6           0       21.730189   -0.820235    4.249891
     27          6           0       20.642315   -1.923124    4.330929
     28          6           0       20.019587   -1.890194    2.933849
     29          6           0       23.242462   -1.255016    4.104487
     30          6           0       19.556129   -1.749212    5.475710
     31          6           0       18.847001   -3.025377    5.956482
     32          7           0       18.543315   -1.647311    0.396252
     33          6           0       18.378681   -2.674038    1.275870
     34          6           0       17.333673   -3.573252    0.840357
     35          6           0       16.954429   -2.978990   -0.377202
     36          6           0       17.751821   -1.855712   -0.639161
     37          6           0       16.735234   -4.851207    1.471935
     38          6           0       16.026258   -3.112523   -1.465153
     39          8           0       15.051314   -3.795068   -1.641808
     40          6           0       16.531653   -2.054635   -2.577401
     41          6           0       15.254499   -1.474992   -3.001629
     42          8           0       14.585605   -0.555341   -2.466024
     43          8           0       14.916538   -2.155784   -4.110303
     44          6           0       13.647076   -1.831561   -4.762529
     45          1           0       21.413284    2.927714   -2.546796
     46          1           0       22.415003    1.637847    3.564039
     47          1           0       18.796667   -3.577371    3.188540
     48          1           0       18.378683   -0.518135   -4.538463
     49          1           0       19.775781    2.082457   -4.222743
     50          1           0       21.760045    0.110657   -3.907076
     51          1           0       21.403049    1.224768   -5.256690
     52          1           0       20.819127   -0.458933   -5.250917
     53          1           0       17.483187    2.349050   -4.136722
     54          1           0       16.582345    1.272000   -3.245933
     55          1           0       16.233389   -0.121735   -5.481738
     56          1           0       16.990492    1.210724   -6.363326
     57          1           0       21.904356    5.414055   -1.083222
     58          1           0       22.696397    4.315502   -2.020590
     59          1           0       23.700329    4.973597   -0.846878
     60          1           0       23.040601    6.113267    1.617262
     61          1           0       24.458869    5.004803    1.300222
     62          1           0       24.337126    5.903983    2.778242
     63          1           0       21.656530   -0.104544    5.068814
     64          1           0       21.118245   -2.880380    4.543462
     65          1           0       23.310374   -2.327745    3.923985
     66          1           0       23.919030   -1.083839    4.941377
     67          1           0       23.781880   -0.871184    3.238324
     68          1           0       18.769789   -1.185802    4.972646
     69          1           0       19.857279   -1.223604    6.382137
     70          1           0       17.784570   -3.022893    5.709455
     71          1           0       18.884972   -3.288635    7.013729
     72          1           0       19.252742   -3.826908    5.340807
     73          1           0       17.514851   -5.251870    2.119831
     74          1           0       16.454582   -5.574145    0.704831
     75          1           0       15.886435   -4.525289    2.073024
     76          1           0       16.958065   -2.591581   -3.424912
     77          1           0       13.862642   -1.343840   -5.713032
     78          1           0       12.968666   -1.293755   -4.101097
     79          1           0       13.165080   -2.766133   -5.049236
     80         12           0      -19.749326   -0.438388   -0.206413
     81          6           0      -18.298309    2.758195    0.057877
     82          6           0      -16.606845   -1.577318   -1.166341
     83          6           0      -20.881142   -3.567437   -0.066378
     84          6           0      -22.448299    0.757980    1.617770
     85          7           0      -17.659189    0.526994   -0.343214
     86          6           0      -17.294291    1.859029   -0.322642
     87          6           0      -15.947259    2.173065   -0.939019
     88          6           0      -15.414480    0.780811   -1.353757
     89          6           0      -16.583898   -0.169789   -0.935964
     90          6           0      -15.040204    0.655116   -2.886296
     91          6           0      -14.897625    2.929404   -0.008233
     92          6           0      -14.945747    2.654680    1.503658
     93          1           0      -13.853598    1.732594    2.122161
     94          7           0      -18.882492   -2.267408   -0.568331
     95          6           0      -17.614825   -2.526486   -1.006084
     96          6           0      -17.462197   -3.962899   -1.277009
     97          6           0      -18.716301   -4.569942   -0.961679
     98          6           0      -19.565385   -3.432649   -0.491378
     99          6           0      -16.180467   -4.589323   -1.813228
    100          6           0      -18.853897   -6.135619   -1.050242
    101          8           0      -17.860848   -6.781437   -1.354916
    102          6           0      -20.220562   -6.841410   -0.661489
    103          7           0      -21.335798   -1.274403    0.749917
    104          6           0      -21.709383   -2.598694    0.532824
    105          6           0      -23.169843   -2.900586    1.194903
    106          6           0      -23.500557   -1.450605    1.846367
    107          6           0      -22.358086   -0.616367    1.363314
    108          6           0      -24.216873   -3.379016    0.146386
    109          6           0      -23.613026   -1.428262    3.431010
    110          6           0      -24.857041   -0.802147    4.080173
    111          7           0      -20.373292    1.418667    0.581696
    112          6           0      -21.475980    1.784269    1.310439
    113          6           0      -21.361167    3.218928    1.647369
    114          6           0      -20.147083    3.646320    1.045905
    115          6           0      -19.581754    2.480053    0.458652
    116          6           0      -22.308697    4.050027    2.467302
    117          6           0      -19.260619    4.818860    0.922739
    118          8           0      -19.395729    6.012826    1.227780
    119          6           0      -18.103877    4.295220    0.084556
    120          6           0      -18.012755    4.924292   -1.189873
    121          8           0      -18.759464    4.599331   -2.149109
    122          8           0      -16.985678    5.888487   -1.218000
    123          6           0      -16.654537    6.508278   -2.497053
    124          1           0      -15.699039   -1.963252   -1.634046
    125          1           0      -21.339645   -4.554171   -0.154379
    126          1           0      -23.358024    1.067311    2.135727
    127          1           0      -16.217355    2.804845   -1.784341
    128          1           0      -14.619113    0.551382   -0.645556
    129          1           0      -13.959237    0.559968   -2.988669
    130          1           0      -15.401924    1.569287   -3.357752
    131          1           0      -15.496953   -0.226670   -3.336897
    132          1           0      -15.195002    3.967818   -0.159799
    133          1           0      -13.895189    2.784730   -0.411741
    134          1           0      -15.913361    2.239641    1.787685
    135          1           0      -14.924024    3.612831    2.021183
    136          1           0      -15.586138   -5.121093   -1.070165
    137          1           0      -15.632280   -3.885351   -2.439464
    138          1           0      -16.404694   -5.326266   -2.584222
    139          1           0      -21.012904   -6.296440   -1.175182
    140          1           0      -20.323101   -6.775537    0.421349
    141          1           0      -20.208303   -7.925242   -0.776628
    142          1           0      -23.025845   -3.757612    1.852159
    143          1           0      -24.410960   -1.089667    1.367300
    144          1           0      -24.774117   -2.501418   -0.180672
    145          1           0      -24.846522   -4.188540    0.515776
    146          1           0      -23.782058   -3.856857   -0.731357
    147          1           0      -22.701915   -0.955575    3.799214
    148          1           0      -23.611344   -2.494149    3.658974
    149          1           0      -24.681948   -0.527657    5.120777
    150          1           0      -25.586377   -1.608182    4.002909
    151          1           0      -25.068054    0.070345    3.461487
    152          1           0      -22.794795    3.326366    3.121058
    153          1           0      -23.030313    4.380473    1.720213
    154          1           0      -21.868336    4.927067    2.942539
    155          1           0      -17.252530    4.544921    0.717385
    156          1           0      -17.416698    7.131794   -2.964500
    157          1           0      -16.367083    5.742289   -3.217883
    158          1           0      -15.702659    7.019300   -2.351610
 ---------------------------------------------------------------------

 SCF Done:  E(RCAM-B3LYP) =  -4069.79471197     A.U. after   17 cycles

 Excitation energies and oscillator strengths:

 Excited State   1:      Singlet-A      1.7179 eV  721.70 nm  f=0.3474  <S**2>=0.000
     310 -> 316        0.18101
     312 -> 314        0.68337
     310 <- 316        0.10763
 This state for optimization and/or second-order correction.
 Total Energy, E(TD-HF/TD-DFT) =  -4069.73157886
 Copying the excited state density for this state as the 1-particle RhoCI density.

 Excited State   2:      Singlet-A      1.7272 eV  717.82 nm  f=0.4079  <S**2>=0.000
     309 -> 315       -0.19697
     311 -> 313        0.67927
     309 <- 315       -0.11035

 Excited State   3:      Singlet-A      2.2496 eV  551.13 nm  f=0.0627  <S**2>=0.000
     309 -> 313        0.61703
     311 -> 315        0.33569

 Excited State   4:      Singlet-A      2.3104 eV  536.63 nm  f=0.0714  <S**2>=0.000
     310 -> 314        0.61632
     312 -> 316       -0.33582

 Excited State   5:      Singlet-A      3.1230 eV  397.01 nm  f=0.0000  <S**2>=0.000
     312 -> 313        0.70710

 The electronic state is 1-A.
 Alpha  occ. eigenvalues --  -46.88898 -46.87576 -19.25764 -19.24873 -19.20208
 Alpha  occ. eigenvalues --  -19.19673 -19.19586 -19.19165 -19.19041 -19.18433
 Alpha  occ. eigenvalues --  -14.42609 -14.42602 -14.42055 -14.41733 -14.39930
 Alpha  occ. eigenvalues --  -14.39461 -14.39287 -14.38409 -10.39996 -10.38574
 Alpha  occ. eigenvalues --  -10.36465 -10.35998 -10.35323 -10.34665 -10.32088
 Alpha  occ. eigenvalues --  -10.31852 -10.31716 -10.31320 -10.31196 -10.31012
 Alpha  occ. eigenvalues --  -10.30908 -10.30791 -10.30611 -10.30608 -10.30556
 Alpha  occ. eigenvalues --  -10.30278 -10.30119 -10.30060 -10.30044 -10.29811
 Alpha  occ. eigenvalues --  -10.29474 -10.29274 -10.29233 -10.28965 -10.28727
 Alpha  occ. eigenvalues --  -10.28546 -10.28432 -10.28373 -10.28341 -10.28280
 Alpha  occ. eigenvalues --  -10.28278 -10.28273 -10.28003 -10.27868 -10.27841
 Alpha  occ. eigenvalues --  -10.27747 -10.27738 -10.27732 -10.27716 -10.27713
 Alpha  occ. eigenvalues --  -10.27683 -10.27613 -10.27440 -10.27356 -10.27306
 Alpha  occ. eigenvalues --  -10.27124 -10.27112 -10.26811 -10.26763 -10.26704
 Alpha  occ. eigenvalues --  -10.26652 -10.26632 -10.26560 -10.26545 -10.26507
 Alpha  occ. eigenvalues --  -10.26435 -10.26261 -10.26066 -10.26032 -10.25876
 Alpha  occ. eigenvalues --  -10.25834 -10.25825 -10.25425 -10.25366 -10.25146
 Alpha  occ. eigenvalues --  -10.24443  -3.17525  -3.16419  -1.92383  -1.91996
 Alpha  occ. eigenvalues --   -1.91829  -1.91304  -1.90886  -1.90734  -1.15941
 Alpha  occ. eigenvalues --   -1.14944  -1.10778  -1.10386  -1.09395  -1.09028
 Alpha  occ. eigenvalues --   -1.06995  -1.05554  -1.05195  -1.04307  -1.04118
 Alpha  occ. eigenvalues --   -1.03596  -1.03519  -1.02585  -1.02415  -1.01851
 Alpha  occ. eigenvalues --   -0.93105  -0.92718  -0.89138  -0.89115  -0.88815
 Alpha  occ. eigenvalues --   -0.88266  -0.88050  -0.88022  -0.87452  -0.86975
 Alpha  occ. eigenvalues --   -0.86778  -0.86268  -0.86053  -0.85532  -0.84538
 Alpha  occ. eigenvalues --   -0.84495  -0.83888  -0.83831  -0.82772  -0.82482
 Alpha  occ. eigenvalues --   -0.82275  -0.81633  -0.81272  -0.80981  -0.80306
 Alpha  occ. eigenvalues --   -0.80054  -0.78223  -0.78142  -0.77323  -0.77189
 Alpha  occ. eigenvalues --   -0.76923  -0.76739  -0.76494  -0.75925  -0.75407
 Alpha  occ. eigenvalues --   -0.74875  -0.72791  -0.72304  -0.72136  -0.71721
 Alpha  occ. eigenvalues --   -0.69262  -0.69252  -0.68883  -0.68801  -0.68407
 Alpha  occ. eigenvalues --   -0.67920  -0.67221  -0.66782  -0.66057  -0.65753
 Alpha  occ. eigenvalues --   -0.65549  -0.65158  -0.64867  -0.64549  -0.64449
 Alpha  occ. eigenvalues --   -0.64171  -0.62413  -0.61775  -0.60240  -0.60204
 Alpha  occ. eigenvalues --   -0.59846  -0.59595  -0.59154  -0.59037  -0.58643
 Alpha  occ. eigenvalues --   -0.58624  -0.57980  -0.57711  -0.57160  -0.57155
 Alpha  occ. eigenvalues --   -0.56328  -0.56113  -0.55933  -0.55575  -0.55446
 Alpha  occ. eigenvalues --   -0.54917  -0.54403  -0.54370  -0.54164  -0.53925
 Alpha  occ. eigenvalues --   -0.53737  -0.53438  -0.53220  -0.53057  -0.52781
 Alpha  occ. eigenvalues --   -0.52590  -0.52561  -0.52314  -0.52228  -0.52097
 Alpha  occ. eigenvalues --   -0.51605  -0.51530  -0.51436  -0.51158  -0.51031
 Alpha  occ. eigenvalues --   -0.50918  -0.50734  -0.50680  -0.50393  -0.50273
 Alpha  occ. eigenvalues --   -0.50170  -0.50027  -0.49951  -0.49430  -0.49328
 Alpha  occ. eigenvalues --   -0.49322  -0.49226  -0.49057  -0.48936  -0.48931
 Alpha  occ. eigenvalues --   -0.48545  -0.48490  -0.48314  -0.48118  -0.48108
 Alpha  occ. eigenvalues --   -0.48027  -0.47424  -0.47338  -0.47266  -0.47170
 Alpha  occ. eigenvalues --   -0.46879  -0.46582  -0.46508  -0.46418  -0.46351
 Alpha  occ. eigenvalues --   -0.46210  -0.46129  -0.45913  -0.45738  -0.45720
 Alpha  occ. eigenvalues --   -0.45528  -0.45350  -0.45154  -0.44937  -0.44891
 Alpha  occ. eigenvalues --   -0.44758  -0.44582  -0.44527  -0.44150  -0.44039
 Alpha  occ. eigenvalues --   -0.43893  -0.43737  -0.43565  -0.43482  -0.43195
 Alpha  occ. eigenvalues --   -0.43102  -0.43001  -0.42897  -0.42880  -0.42866
 Alpha  occ. eigenvalues --   -0.42664  -0.42644  -0.42361  -0.42229  -0.42215
 Alpha  occ. eigenvalues --   -0.42083  -0.42066  -0.41914  -0.41531  -0.41349
 Alpha  occ. eigenvalues --   -0.41206  -0.41032  -0.40822  -0.40587  -0.40575
 Alpha  occ. eigenvalues --   -0.40324  -0.40243  -0.39829  -0.39666  -0.39602
 Alpha  occ. eigenvalues --   -0.38867  -0.38784  -0.37848  -0.37609  -0.37479
 Alpha  occ. eigenvalues --   -0.37387  -0.37046  -0.37003  -0.36978  -0.36593
 Alpha  occ. eigenvalues --   -0.35508  -0.35227  -0.34724  -0.34377  -0.33988
 Alpha  occ. eigenvalues --   -0.33940  -0.33164  -0.32978  -0.31731  -0.31379
 Alpha  occ. eigenvalues --   -0.31322  -0.31169  -0.30945  -0.30549  -0.30337
 Alpha  occ. eigenvalues --   -0.30229  -0.29613  -0.29569  -0.24190  -0.24107
 Alpha  occ. eigenvalues --   -0.21121  -0.20796
 Alpha virt. eigenvalues --   -0.08444  -0.08150  -0.02305  -0.01772  -0.00297
 Alpha virt. eigenvalues --    0.00312   0.01684   0.02087   0.02399   0.03142
 Alpha virt. eigenvalues --    0.03472   0.04781   0.05073   0.05135   0.05260

 Mulliken charges:
               1
     1  Mg  11.999854
     2  C    6.001588
     3  C    5.998597
     4  C    5.999094
     5  C    6.001636
     6  N    7.000328
     7  C    5.997275
     8  C    6.000943
     9  C    5.999391
    10  C    6.002766
    11  C    5.999830
    12  C    6.000197
    13  C    6.000093
    14  H    0.999748
    15  N    6.999275
    16  C    6.002890
    17  C    6.001344
    18  C    6.001705
    19  C    6.001821
    20  C    5.999730
    21  C    6.000928
    22  O    8.002254
    23  C    5.999555
    24  N    7.000433
    25  C    6.001957
    26  C    5.999535
    27  C    6.000590
    28  C    5.997456
    29  C    5.999567
    30  C    6.000229
    31  C    6.000044
    32  N    7.000404
    33  C    5.996866
    34  C    5.997865
    35  C    5.999926
    36  C    5.997452
    37  C    5.999921
    38  C    5.998888
    39  O    7.997816
    40  C    5.999690
    41  C    5.999844
    42  O    7.999469
    43  O    7.999966
    44  C    6.000253
    45  H    1.000566
    46  H    1.000451
    47  H    0.999396
    48  H    0.999812
    49  H    0.999899
    50  H    0.999990
    51  H    1.000155
    52  H    1.000981
    53  H    0.999091
    54  H    1.000225
    55  H    1.000284
    56  H    0.999598
    57  H    1.001426
    58  H    1.001344
    59  H    1.001221
    60  H    1.000656
    61  H    1.000416
    62  H    1.001170
    63  H    0.999919
    64  H    0.999703
    65  H    1.000936
    66  H    1.000236
    67  H    0.999654
    68  H    0.999908
    69  H    0.999163
    70  H    1.000207
    71  H    0.999615
    72  H    1.000180
    73  H    0.998807
    74  H    0.998880
    75  H    0.998637
    76  H    0.999447
    77  H    0.999537
    78  H    0.999789
    79  H    0.999686
    80  Mg  11.996750
    81  C    6.019959
    82  C    5.981734
    83  C    5.971395
    84  C    6.021755
    85  N    7.003006
    86  C    5.965304
    87  C    6.012595
    88  C    5.986904
    89  C    6.040264
    90  C    5.995899
    91  C    6.001055
    92  C    6.002577
    93  H    0.984392
    94  N    6.988827
    95  C    6.049794
    96  C    6.018787
    97  C    6.013314
    98  C    6.047417
    99  C    5.994219
   100  C    6.010186
   101  O    8.016567
   102  C    5.999589
   103  N    6.998908
   104  C    6.038419
   105  C    5.991437
   106  C    6.013912
   107  C    5.963319
   108  C    5.995573
   109  C    6.005090
   110  C    6.000468
   111  N    7.004790
   112  C    5.952001
   113  C    5.975509
   114  C    5.991828
   115  C    5.966536
   116  C    6.000586
   117  C    5.981752
   118  O    7.970163
   119  C    5.999755
   120  C    5.996496
   121  O    7.993726
   122  O    7.998334
   123  C    6.004376
   124  H    1.010698
   125  H    1.007209
   126  H    0.992737
   127  H    0.999508
   128  H    1.004887
   129  H    1.005910
   130  H    1.013594
   131  H    0.993743
   132  H    1.005351
   133  H    0.990802
   134  H    1.005582
   135  H    1.002313
   136  H    1.020847
   137  H    1.017415
   138  H    1.016552
   139  H    1.007419
   140  H    1.009914
   141  H    1.012615
   142  H    0.999492
   143  H    0.998254
   144  H    1.011472
   145  H    1.005203
   146  H    0.995226
   147  H    1.001959
   148  H    0.986741
   149  H    0.998693
   150  H    0.993702
   151  H    1.004450
   152  H    0.982826
   153  H    0.980601
   154  H    0.984051
   155  H    0.989928
   156  H    0.997373
   157  H    0.992877
   158  H    0.994794
 Sum of Mulliken charges = 624.00000

 Dipole moment (field-independent basis, Debye):
    X=              3.6719    Y=             -9.1325    Z=             -3.1254  Tot=             10.3274
 Quadrupole moment (field-independent basis, Debye-Ang):
   XX=           -103.4338   YY=              5.7405   ZZ=             -1.9672
   XY=            197.9819   XZ=             63.3761   YZ=              1.7130

 Normal termination of Gaussian 16 at Wed Sep 22 14:58:45 2021.
