 Gaussian 16, Revision A.03,
 Gaussian 16:  ES64L-G16RevA.03 25-Dec-2016

 -----------------------------------
 #p cam-b3lyp/Def2SVP td=(nstates=5)
 -----------------------------------

 --------------------------------
 TDDFT excited states in gaussian
 --------------------------------
 Symbolic Z-matrix:
 Charge =  0 Multiplicity = 1

                         Standard orientation:
 ---------------------------------------------------------------------
 Center     Atomic      Atomic             Coordinates (Angstroms)
 Number     Number       Type             X           Y           Z
 ---------------------------------------------------------------------
      1         12           0       32.437287    0.013872   -0.120193
      2          6           0       29.075692    0.109026    0.604025
      3          6           0       32.154894   -3.096292   -1.525375
      4          6           0       35.822631    0.026127   -1.020587
      5          6           0       32.681967    3.407699    0.469959
      6          7           0       30.700005   -1.197860   -0.583702
      7          6           0       29.412651   -1.090949   -0.050431
      8          6           0       28.518695   -2.245403   -0.510163
      9          6           0       29.610364   -3.235038   -0.990684
     10          6           0       30.931815   -2.452729   -1.135206
     11          6           0       29.688216   -4.515708   -0.131087
     12          6           0       27.532254   -1.816065   -1.614230
     13          6           0       26.067140   -2.363246   -1.505717
     14          1           0       25.357658   -2.587136   -2.783775
     15          7           0       33.764857   -1.347202   -1.062390
     16          6           0       33.484234   -2.601342   -1.484534
     17          6           0       34.656493   -3.355911   -1.812930
     18          6           0       35.756391   -2.523574   -1.547874
     19          6           0       35.134828   -1.191888   -1.153917
     20          6           0       34.651446   -4.836094   -2.200306
     21          6           0       37.278230   -2.883865   -1.704222
     22          8           0       37.580212   -4.003338   -2.191346
     23          6           0       38.462545   -1.949360   -1.204496
     24          7           0       33.957366    1.575433   -0.541710
     25          6           0       35.267622    1.295812   -0.746039
     26          6           0       36.155551    2.505423   -0.604734
     27          6           0       35.170791    3.614602   -0.176075
     28          6           0       33.862440    2.833333   -0.030404
     29          6           0       37.386863    2.305774    0.339963
     30          6           0       35.158034    4.869901   -1.172435
     31          6           0       35.870145    6.118022   -0.638185
     32          7           0       31.187050    1.479259    0.478337
     33          6           0       31.396903    2.853969    0.724701
     34          6           0       30.213693    3.412129    1.392544
     35          6           0       29.332554    2.340149    1.420746
     36          6           0       29.938229    1.266044    0.748184
     37          6           0       29.957802    4.785841    1.900556
     38          6           0       27.978304    1.942544    1.831118
     39          8           0       27.146773    2.486204    2.576532
     40          6           0       27.768187    0.449759    1.353693
     41          6           0       27.518741   -0.480399    2.533306
     42          8           0       28.131416   -0.520537    3.604942
     43          8           0       26.424848   -1.196351    2.146915
     44          6           0       25.829226   -2.063112    3.149958
     45          1           0       32.078965   -4.090395   -1.970647
     46          1           0       36.897356    0.133843   -1.181612
     47          1           0       32.693568    4.478028    0.685301
     48          1           0       27.931512   -2.610532    0.333105
     49          1           0       29.261252   -3.528299   -1.980697
     50          1           0       28.829855   -4.810549    0.472517
     51          1           0       30.474532   -4.327248    0.599710
     52          1           0       29.931178   -5.396451   -0.725068
     53          1           0       27.910524   -2.007818   -2.617975
     54          1           0       27.565250   -0.726312   -1.608742
     55          1           0       25.476072   -1.672701   -0.904208
     56          1           0       26.101233   -3.345934   -1.033259
     57          1           0       35.302132   -5.328503   -1.477997
     58          1           0       34.838829   -4.936685   -3.269426
     59          1           0       33.639538   -5.170498   -1.971750
     60          1           0       38.645483   -1.239456   -2.010286
     61          1           0       39.327875   -2.599737   -1.078915
     62          1           0       38.190286   -1.624445   -0.199938
     63          1           0       36.564360    2.736916   -1.588377
     64          1           0       35.270222    3.983357    0.844556
     65          1           0       37.508381    3.145736    1.023368
     66          1           0       38.321462    2.188326   -0.208214
     67          1           0       37.279893    1.358307    0.866520
     68          1           0       34.149051    5.223964   -1.383442
     69          1           0       35.548435    4.576476   -2.146842
     70          1           0       36.414178    6.604875   -1.447762
     71          1           0       36.573858    5.833292    0.143706
     72          1           0       35.199640    6.854697   -0.196037
     73          1           0       30.884297    5.350053    1.793725
     74          1           0       29.448071    4.737569    2.863021
     75          1           0       29.290411    5.251395    1.174540
     76          1           0       26.964247    0.356200    0.623121
     77          1           0       26.555194   -2.645957    3.718270
     78          1           0       25.068721   -2.765938    2.809765
     79          1           0       25.274750   -1.461913    3.870981
     80         12           0      -32.506685    0.252042   -0.236164
     81          6           0      -29.968241    0.188953    2.135078
     82          6           0      -33.172939   -3.019018    0.557195
     83          6           0      -34.855014    0.212883   -2.765733
     84          6           0      -31.422250    3.360050   -1.382840
     85          7           0      -31.715914   -1.189354    1.254566
     86          6           0      -30.770596   -0.984015    2.187540
     87          6           0      -30.603448   -2.134658    3.207201
     88          6           0      -31.487158   -3.267915    2.529961
     89          6           0      -32.169460   -2.475479    1.314317
     90          6           0      -30.556758   -4.462328    2.113183
     91          6           0      -31.166536   -1.598254    4.621928
     92          6           0      -30.206405   -1.714930    5.842230
     93          1           0      -29.060650   -2.774386    5.656384
     94          7           0      -33.792164   -1.182278   -1.076950
     95          6           0      -33.969642   -2.468947   -0.527694
     96          6           0      -35.115961   -3.088346   -1.157950
     97          6           0      -35.581478   -2.208788   -2.143542
     98          6           0      -34.783669   -0.936670   -1.986102
     99          6           0      -35.434636   -4.575000   -0.944680
    100          6           0      -36.719051   -2.441722   -3.172893
    101          8           0      -37.094198   -1.615589   -4.025757
    102          6           0      -37.505269   -3.761962   -3.099000
    103          7           0      -32.969745    1.595399   -1.878098
    104          6           0      -34.065485    1.330115   -2.754799
    105          6           0      -34.115179    2.380316   -3.884146
    106          6           0      -33.191570    3.525970   -3.256929
    107          6           0      -32.511187    2.800812   -2.066284
    108          6           0      -33.669231    1.742615   -5.189597
    109          6           0      -34.055945    4.752927   -2.741680
    110          6           0      -35.275320    4.653031   -1.763041
    111          7           0      -30.987527    1.495817    0.181288
    112          6           0      -30.633976    2.733463   -0.364939
    113          6           0      -29.490700    3.237058    0.324589
    114          6           0      -29.219150    2.320053    1.323903
    115          6           0      -30.084279    1.211654    1.149704
    116          6           0      -28.695172    4.484861   -0.000201
    117          6           0      -28.365558    2.051535    2.412438
    118          8           0      -27.414536    2.679976    2.753180
    119          6           0      -28.750111    0.595217    2.905090
    120          6           0      -27.562963   -0.274163    2.595181
    121          8           0      -27.529201   -1.078030    1.687022
    122          8           0      -26.596206    0.043220    3.464473
    123          6           0      -25.285983   -0.366820    3.021970
    124          1           0      -33.447213   -4.032370    0.856970
    125          1           0      -35.420653    0.092065   -3.691249
    126          1           0      -31.062795    4.328732   -1.737730
    127          1           0      -29.576425   -2.456877    3.377879
    128          1           0      -32.298612   -3.648550    3.150677
    129          1           0      -30.755360   -4.880760    1.126200
    130          1           0      -30.813172   -5.155497    2.913850
    131          1           0      -29.531632   -4.134647    2.284286
    132          1           0      -32.137969   -2.066959    4.777797
    133          1           0      -31.399560   -0.542377    4.482199
    134          1           0      -30.905635   -2.005332    6.625601
    135          1           0      -29.726218   -0.783682    6.141263
    136          1           0      -35.443854   -5.042879   -1.929436
    137          1           0      -36.448446   -4.673802   -0.554381
    138          1           0      -34.700973   -5.018730   -0.272383
    139          1           0      -36.843676   -4.542869   -3.476217
    140          1           0      -38.299546   -3.669869   -3.839584
    141          1           0      -37.997793   -3.839044   -2.129990
    142          1           0      -35.141629    2.747990   -3.871219
    143          1           0      -32.554572    3.951882   -4.031285
    144          1           0      -33.878034    0.673745   -5.237423
    145          1           0      -32.598989    1.883433   -5.339037
    146          1           0      -34.221278    2.159626   -6.031632
    147          1           0      -34.374579    5.320580   -3.616004
    148          1           0      -33.333304    5.315524   -2.150546
    149          1           0      -36.174914    4.486787   -2.355828
    150          1           0      -35.320563    5.620206   -1.261046
    151          1           0      -35.172334    3.948890   -0.936783
    152          1           0      -29.303404    5.387951    0.053720
    153          1           0      -28.375185    4.326043   -1.029799
    154          1           0      -27.912324    4.745741    0.713353
    155          1           0      -28.950556    0.454277    3.967344
    156          1           0      -24.480177    0.281008    3.366275
    157          1           0      -25.093793   -0.651013    1.987466
    158          1           0      -24.971564   -1.327315    3.430819
 ---------------------------------------------------------------------

 SCF Done:  E(RCAM-B3LYP) =  -4069.83133156     A.U. after   19 cycles

 Excitation energies and oscillator strengths:

 Excited State   1:      Singlet-A      1.7043 eV  727.49 nm  f=0.3843  <S**2>=0.000
     310 -> 316       -0.17560
     312 -> 314        0.68589
     310 <- 316       -0.10644
 This state for optimization and/or second-order correction.
 Total Energy, E(TD-HF/TD-DFT) =  -4069.76870079
 Copying the excited state density for this state as the 1-particle RhoCI density.

 Excited State   2:      Singlet-A      1.7088 eV  725.56 nm  f=0.3690  <S**2>=0.000
     309 -> 315       -0.17431
     311 -> 313        0.68552
     309 <- 315       -0.10509

 Excited State   3:      Singlet-A      2.2267 eV  556.81 nm  f=0.1272  <S**2>=0.000
     310 -> 314        0.64633
     312 -> 316        0.27556

 Excited State   4:      Singlet-A      2.2476 eV  551.64 nm  f=0.0931  <S**2>=0.000
     309 -> 313        0.62547
     311 -> 315        0.31551

 Excited State   5:      Singlet-A      3.2243 eV  384.53 nm  f=0.0000  <S**2>=0.000
     312 -> 313        0.70711

 The electronic state is 1-A.
 Alpha  occ. eigenvalues --  -46.89179 -46.88065 -19.26366 -19.26139 -19.20269
 Alpha  occ. eigenvalues --  -19.20052 -19.19689 -19.19347 -19.18600 -19.18451
 Alpha  occ. eigenvalues --  -14.42412 -14.42230 -14.42178 -14.41420 -14.40233
 Alpha  occ. eigenvalues --  -14.39542 -14.39113 -14.39045 -10.39960 -10.39311
 Alpha  occ. eigenvalues --  -10.36681 -10.35108 -10.34814 -10.34756 -10.32204
 Alpha  occ. eigenvalues --  -10.32054 -10.31597 -10.31586 -10.31340 -10.31189
 Alpha  occ. eigenvalues --  -10.31098 -10.30652 -10.30484 -10.30404 -10.30334
 Alpha  occ. eigenvalues --  -10.30142 -10.29886 -10.29814 -10.29679 -10.29647
 Alpha  occ. eigenvalues --  -10.29622 -10.28870 -10.28818 -10.28506 -10.28497
 Alpha  occ. eigenvalues --  -10.28483 -10.28385 -10.28355 -10.28162 -10.28128
 Alpha  occ. eigenvalues --  -10.28124 -10.28024 -10.28020 -10.27976 -10.27919
 Alpha  occ. eigenvalues --  -10.27841 -10.27747 -10.27716 -10.27651 -10.27647
 Alpha  occ. eigenvalues --  -10.27615 -10.27580 -10.27476 -10.27299 -10.27052
 Alpha  occ. eigenvalues --  -10.26996 -10.26993 -10.26919 -10.26740 -10.26718
 Alpha  occ. eigenvalues --  -10.26700 -10.26672 -10.26574 -10.26516 -10.26285
 Alpha  occ. eigenvalues --  -10.26240 -10.26059 -10.25977 -10.25801 -10.25774
 Alpha  occ. eigenvalues --  -10.25767 -10.25595 -10.25245 -10.25190 -10.24668
 Alpha  occ. eigenvalues --  -10.24592  -3.17711  -3.16667  -1.92577  -1.92154
 Alpha  occ. eigenvalues --   -1.92041  -1.91567  -1.91100  -1.90989  -1.18145
 Alpha  occ. eigenvalues --   -1.16841  -1.12002  -1.09068  -1.08622  -1.08364
 Alpha  occ. eigenvalues --   -1.08319  -1.07756  -1.04679  -1.04140  -1.04008
 Alpha  occ. eigenvalues --   -1.03524  -1.03305  -1.02695  -1.02155  -1.01149
 Alpha  occ. eigenvalues --   -0.92785  -0.91424  -0.88881  -0.88841  -0.88699
 Alpha  occ. eigenvalues --   -0.88520  -0.88117  -0.87740  -0.87283  -0.87064
 Alpha  occ. eigenvalues --   -0.86991  -0.86484  -0.86397  -0.86003  -0.84318
 Alpha  occ. eigenvalues --   -0.83918  -0.83900  -0.83385  -0.82512  -0.82271
 Alpha  occ. eigenvalues --   -0.81643  -0.81184  -0.81125  -0.80894  -0.80195
 Alpha  occ. eigenvalues --   -0.79922  -0.77942  -0.77700  -0.77481  -0.77095
 Alpha  occ. eigenvalues --   -0.76749  -0.76720  -0.75893  -0.75845  -0.75298
 Alpha  occ. eigenvalues --   -0.74944  -0.72945  -0.72711  -0.71729  -0.71168
 Alpha  occ. eigenvalues --   -0.69201  -0.68973  -0.68877  -0.68631  -0.67957
 Alpha  occ. eigenvalues --   -0.67889  -0.67256  -0.66355  -0.66133  -0.65839
 Alpha  occ. eigenvalues --   -0.65082  -0.64997  -0.64561  -0.64534  -0.64464
 Alpha  occ. eigenvalues --   -0.63924  -0.62691  -0.62371  -0.59984  -0.59950
 Alpha  occ. eigenvalues --   -0.59599  -0.59388  -0.58945  -0.58926  -0.58611
 Alpha  occ. eigenvalues --   -0.58404  -0.57985  -0.57733  -0.57240  -0.57239
 Alpha  occ. eigenvalues --   -0.56250  -0.55970  -0.55762  -0.55667  -0.55349
 Alpha  occ. eigenvalues --   -0.55020  -0.54889  -0.54371  -0.53955  -0.53770
 Alpha  occ. eigenvalues --   -0.53375  -0.53354  -0.53143  -0.53110  -0.52799
 Alpha  occ. eigenvalues --   -0.52602  -0.52574  -0.52194  -0.52017  -0.51979
 Alpha  occ. eigenvalues --   -0.51841  -0.51721  -0.51591  -0.51360  -0.51185
 Alpha  occ. eigenvalues --   -0.51103  -0.50941  -0.50875  -0.50601  -0.49947
 Alpha  occ. eigenvalues --   -0.49891  -0.49798  -0.49495  -0.49466  -0.49332
 Alpha  occ. eigenvalues --   -0.49151  -0.49059  -0.48829  -0.48580  -0.48514
 Alpha  occ. eigenvalues --   -0.48316  -0.48271  -0.48149  -0.47933  -0.47850
 Alpha  occ. eigenvalues --   -0.47723  -0.47688  -0.47478  -0.47464  -0.47183
 Alpha  occ. eigenvalues --   -0.47117  -0.46866  -0.46640  -0.46581  -0.46389
 Alpha  occ. eigenvalues --   -0.46252  -0.46156  -0.46008  -0.45711  -0.45572
 Alpha  occ. eigenvalues --   -0.45560  -0.45256  -0.45168  -0.44920  -0.44777
 Alpha  occ. eigenvalues --   -0.44618  -0.44535  -0.44437  -0.44309  -0.44124
 Alpha  occ. eigenvalues --   -0.43795  -0.43774  -0.43739  -0.43588  -0.43485
 Alpha  occ. eigenvalues --   -0.43396  -0.43283  -0.43038  -0.42998  -0.42947
 Alpha  occ. eigenvalues --   -0.42639  -0.42475  -0.42457  -0.42366  -0.42124
 Alpha  occ. eigenvalues --   -0.41962  -0.41910  -0.41735  -0.41584  -0.41302
 Alpha  occ. eigenvalues --   -0.41153  -0.40800  -0.40792  -0.40660  -0.40608
 Alpha  occ. eigenvalues --   -0.40262  -0.39718  -0.39546  -0.39364  -0.39133
 Alpha  occ. eigenvalues --   -0.38685  -0.38388  -0.38159  -0.37665  -0.37445
 Alpha  occ. eigenvalues --   -0.37385  -0.37078  -0.37048  -0.36857  -0.36449
 Alpha  occ. eigenvalues --   -0.36419  -0.36100  -0.34874  -0.34799  -0.34788
 Alpha  occ. eigenvalues --   -0.34079  -0.33037  -0.32650  -0.31630  -0.31586
 Alpha  occ. eigenvalues --   -0.31203  -0.30945  -0.30497  -0.30456  -0.30429
 Alpha  occ. eigenvalues --   -0.30254  -0.29840  -0.29570  -0.24204  -0.23752
 Alpha  occ. eigenvalues --   -0.21087  -0.20961
 Alpha virt. eigenvalues --   -0.08585  -0.08534  -0.02026  -0.01325   0.00167
 Alpha virt. eigenvalues --    0.00576   0.01633   0.01975   0.02496   0.02576
 Alpha virt. eigenvalues --    0.04548   0.04983   0.05044   0.06143   0.06223

 Mulliken charges:
               1
     1  Mg   0.836082
     2  C   -0.065976
     3  C   -0.099855
     4  C   -0.076400
     5  C   -0.074267
     6  N   -0.335344
     7  C   -0.053004
     8  C   -0.007713
     9  C   -0.038857
    10  C    0.100357
    11  C    0.060686
    12  C    0.062698
    13  C   -0.070246
    14  H    0.025963
    15  N   -0.347191
    16  C    0.138440
    17  C   -0.175742
    18  C   -0.042924
    19  C    0.173858
    20  C    0.164804
    21  C    0.001196
    22  O   -0.229636
    23  C    0.054728
    24  N   -0.257143
    25  C   -0.006415
    26  C   -0.021862
    27  C   -0.004544
    28  C    0.016326
    29  C    0.057140
    30  C    0.038578
    31  C   -0.002755
    32  N   -0.349105
    33  C    0.091991
    34  C   -0.191246
    35  C    0.000953
    36  C    0.118585
    37  C    0.151208
    38  C    0.079085
    39  O   -0.194586
    40  C    0.005627
    41  C    0.224933
    42  O   -0.217092
    43  O   -0.326150
    44  C    0.174534
    45  H   -0.017151
    46  H   -0.042487
    47  H   -0.036551
    48  H    0.000624
    49  H    0.005441
    50  H    0.014658
    51  H    0.013585
    52  H    0.016657
    53  H    0.006702
    54  H    0.005810
    55  H    0.043389
    56  H    0.028572
    57  H    0.042066
    58  H    0.047490
    59  H   -0.009950
    60  H    0.058755
    61  H    0.031684
    62  H    0.040085
    63  H    0.020121
    64  H    0.008844
    65  H    0.024612
    66  H    0.011785
    67  H    0.017598
    68  H    0.008261
    69  H    0.004649
    70  H    0.016481
    71  H    0.008716
    72  H    0.019598
    73  H   -0.000745
    74  H    0.052459
    75  H    0.027034
    76  H    0.034512
    77  H    0.037771
    78  H    0.033791
    79  H    0.035418
    80  Mg   0.826325
    81  C   -0.012273
    82  C   -0.055195
    83  C   -0.055298
    84  C   -0.101732
    85  N   -0.262885
    86  C   -0.021591
    87  C   -0.037407
    88  C   -0.073741
    89  C    0.047847
    90  C    0.074579
    91  C    0.036449
    92  C   -0.072621
    93  H    0.021622
    94  N   -0.381522
    95  C    0.116838
    96  C   -0.159379
    97  C   -0.046572
    98  C    0.112341
    99  C    0.135769
   100  C    0.005258
   101  O   -0.221312
   102  C    0.048256
   103  N   -0.269128
   104  C    0.003997
   105  C   -0.013065
   106  C   -0.018909
   107  C    0.072161
   108  C    0.091481
   109  C   -0.014728
   110  C    0.000585
   111  N   -0.397765
   112  C    0.133581
   113  C   -0.171115
   114  C    0.038085
   115  C    0.108991
   116  C    0.123569
   117  C    0.021071
   118  O   -0.126731
   119  C   -0.025990
   120  C    0.175988
   121  O   -0.208512
   122  O   -0.277517
   123  C    0.182016
   124  H   -0.037516
   125  H    0.007424
   126  H   -0.023666
   127  H    0.021966
   128  H    0.013741
   129  H    0.030041
   130  H    0.010717
   131  H    0.027825
   132  H    0.008556
   133  H    0.018911
   134  H    0.034142
   135  H    0.048649
   136  H    0.023676
   137  H    0.016880
   138  H    0.018132
   139  H    0.040355
   140  H    0.017701
   141  H    0.042656
   142  H    0.008196
   143  H    0.001960
   144  H    0.024898
   145  H    0.013011
   146  H    0.014144
   147  H    0.012833
   148  H   -0.002234
   149  H    0.027127
   150  H    0.014288
   151  H    0.022610
   152  H    0.015013
   153  H    0.034285
   154  H    0.032748
   155  H    0.026019
   156  H    0.038667
   157  H    0.037262
   158  H    0.007162
 Sum of Mulliken charges =  -0.00000

 Dipole moment (field-independent basis, Debye):
    X=              1.4966    Y=             -1.0545    Z=              0.8253  Tot=              2.0082
 Quadrupole moment (field-independent basis, Debye-Ang):
   XX=           -340.4841   YY=           -483.0152   ZZ=           -527.0377
   XY=             65.9742   XZ=           -107.7372   YZ=            -32.7567

 Normal termination of Gaussian 16 at Thu Sep 16 12:13:48 2021.
