 Gaussian 16, Revision A.03,
 Gaussian 16:  ES64L-G16RevA.03 25-Dec-2016

 ----------------------------------------------------------
 #p cam-b3lyp/Def2SVP td=(nstates=5) density=(transition=1)
 ----------------------------------------------------------

 --------------------------------
 TDDFT excited states in gaussian
 --------------------------------
 Symbolic Z-matrix:
 Charge =  0 Multiplicity = 1

                         Standard orientation:
 ---------------------------------------------------------------------
 Center     Atomic      Atomic             Coordinates (Angstroms)
 Number     Number       Type             X           Y           Z
 ---------------------------------------------------------------------
      1         12           0        8.623632   -0.367003    0.159095
      2          6           0        7.167841    2.630060   -1.030120
      3          6           0       10.834907    1.519902    2.019611
      4          6           0       10.183826   -3.239372    1.051796
      5          6           0        6.497431   -2.233642   -1.910769
      6          7           0        8.946455    1.818078    0.311465
      7          6           0        8.107999    2.859711   -0.078453
      8          6           0        8.605355    4.248652    0.496780
      9          6           0        9.918192    3.841985    1.217610
     10          6           0        9.960127    2.298803    1.152554
     11          6           0       11.271362    4.456948    0.698109
     12          6           0        7.547080    5.101795    1.309124
     13          6           0        7.254826    6.459957    0.746676
     14          1           0        7.006528    7.609427    1.801928
     15          7           0       10.248539   -0.737571    1.338650
     16          6           0       11.005648    0.141026    2.086714
     17          6           0       12.055997   -0.591607    2.776436
     18          6           0       11.910385   -1.986181    2.529945
     19          6           0       10.714680   -2.054063    1.611580
     20          6           0       13.051511    0.051196    3.763058
     21          6           0       12.707287   -3.168972    3.070732
     22          8           0       12.427279   -4.329554    2.851600
     23          6           0       13.929764   -3.037611    4.068870
     24          7           0        8.426739   -2.457988   -0.443026
     25          6           0        9.177414   -3.425150    0.067821
     26          6           0        8.772023   -4.838865   -0.482798
     27          6           0        7.451446   -4.521872   -1.290153
     28          6           0        7.419782   -2.966030   -1.202754
     29          6           0        9.942431   -5.525738   -1.244243
     30          6           0        6.246567   -5.246545   -0.723541
     31          6           0        5.317496   -5.834840   -1.783947
     32          7           0        7.206433    0.009629   -1.320436
     33          6           0        6.352347   -0.830964   -2.008255
     34          6           0        5.573420   -0.017428   -2.890265
     35          6           0        5.802112    1.335522   -2.536783
     36          6           0        6.832579    1.329985   -1.555722
     37          6           0        4.624114   -0.507325   -3.917007
     38          6           0        5.359023    2.722386   -2.762570
     39          8           0        4.600340    3.232341   -3.581863
     40          6           0        6.297405    3.646163   -1.664512
     41          6           0        7.031280    4.643266   -2.379431
     42          8           0        8.218875    4.589368   -2.614979
     43          8           0        6.237889    5.735680   -2.648006
     44          6           0        6.942911    6.774253   -3.439845
     45          1           0       11.471116    2.069785    2.716533
     46          1           0       10.677691   -4.188789    1.266550
     47          1           0        5.817262   -2.892774   -2.455446
     48          1           0        8.976210    4.779372   -0.379430
     49          1           0        9.872412    4.102114    2.275167
     50          1           0       11.864504    4.692323    1.582335
     51          1           0       11.042185    5.343569    0.107448
     52          1           0       11.857730    3.786882    0.069081
     53          1           0        7.929562    5.154915    2.328525
     54          1           0        6.610032    4.545394    1.281706
     55          1           0        6.353588    6.417320    0.133666
     56          1           0        8.122976    6.665894    0.121207
     57          1           0       12.787349   -0.360905    4.736316
     58          1           0       12.825703    1.114154    3.851355
     59          1           0       14.106026   -0.158836    3.579948
     60          1           0       13.584554   -2.497595    4.951184
     61          1           0       14.848883   -2.723898    3.573107
     62          1           0       14.234208   -4.066527    4.258210
     63          1           0        8.470272   -5.538500    0.296405
     64          1           0        7.668296   -4.783067   -2.326128
     65          1           0        9.571045   -5.858311   -2.213973
     66          1           0       10.419263   -6.324482   -0.675578
     67          1           0       10.735034   -4.801476   -1.424913
     68          1           0        5.658528   -4.611581   -0.061680
     69          1           0        6.494046   -6.060353   -0.040179
     70          1           0        5.580725   -5.486051   -2.782577
     71          1           0        4.318488   -5.465374   -1.550780
     72          1           0        5.237885   -6.919732   -1.713089
     73          1           0        4.518679   -1.586432   -4.028442
     74          1           0        4.810834    0.090940   -4.809627
     75          1           0        3.655283   -0.321183   -3.452904
     76          1           0        5.631203    4.124664   -0.946094
     77          1           0        7.269890    6.354906   -4.391591
     78          1           0        7.739710    7.150936   -2.798553
     79          1           0        6.300808    7.612350   -3.707948
     80         12           0       -8.114764   -0.765096    0.243090
     81          6           0      -10.668664    1.402942    0.811160
     82          6           0       -5.690466    1.670244    0.551261
     83          6           0       -5.730591   -3.090894   -0.550478
     84          6           0      -10.570755   -3.305034   -0.536468
     85          7           0       -8.209791    1.318206    0.427673
     86          6           0       -9.376068    1.998694    0.914107
     87          6           0       -9.028726    3.336399    1.433377
     88          6           0       -7.520761    3.483253    0.936704
     89          6           0       -7.063887    2.081167    0.600532
     90          6           0       -7.365011    4.455643   -0.337026
     91          6           0       -9.341506    3.551693    2.946120
     92          6           0      -10.003786    4.848948    3.282251
     93          1           0       -9.486278    6.117438    2.496119
     94          7           0       -5.990809   -0.731124    0.100865
     95          6           0       -5.239917    0.395759    0.257902
     96          6           0       -3.874887    0.024793    0.105214
     97          6           0       -3.812313   -1.403155   -0.136175
     98          6           0       -5.240689   -1.865324   -0.138481
     99          6           0       -2.734391    1.066075    0.109031
    100          6           0       -2.677169   -2.362481   -0.313619
    101          8           0       -2.722862   -3.558672   -0.622001
    102          6           0       -1.247782   -1.769192   -0.018171
    103          7           0       -8.133447   -2.922902   -0.566776
    104          6           0       -7.040946   -3.633890   -0.695025
    105          6           0       -7.332077   -5.122389   -0.874610
    106          6           0       -8.886784   -5.169577   -0.867108
    107          6           0       -9.239894   -3.698041   -0.659974
    108          6           0       -6.699757   -5.747802   -2.219937
    109          6           0       -9.365138   -6.089462    0.341284
    110          6           0       -9.135962   -5.659891    1.811475
    111          7           0      -10.200548   -0.897778   -0.008116
    112          6           0      -11.015128   -1.984663   -0.263758
    113          6           0      -12.402740   -1.520898   -0.060667
    114          6           0      -12.381508   -0.228164    0.369366
    115          6           0      -10.979122    0.107744    0.380821
    116          6           0      -13.609774   -2.309644   -0.435808
    117          6           0      -13.166005    0.931235    0.793473
    118          8           0      -14.370488    1.091736    0.897836
    119          6           0      -12.051429    2.029900    1.083321
    120          6           0      -12.274476    3.137091    0.131460
    121          8           0      -12.322071    3.081779   -1.109767
    122          8           0      -12.428712    4.246269    0.938174
    123          6           0      -12.481519    5.522222    0.212637
    124          1           0       -4.890593    2.399798    0.693077
    125          1           0       -4.914339   -3.805966   -0.677636
    126          1           0      -11.324769   -4.078719   -0.691639
    127          1           0       -9.680847    4.015719    0.882949
    128          1           0       -6.930377    3.862243    1.770364
    129          1           0       -8.245247    5.069349   -0.528467
    130          1           0       -7.327967    3.803111   -1.209226
    131          1           0       -6.421429    4.966260   -0.149134
    132          1           0       -8.417062    3.506150    3.521891
    133          1           0      -10.017182    2.725874    3.168350
    134          1           0       -9.844804    5.153564    4.315929
    135          1           0      -11.086615    4.966013    3.236780
    136          1           0       -2.448385    1.453661    1.086754
    137          1           0       -3.113614    1.825521   -0.574531
    138          1           0       -1.778184    0.650764   -0.208500
    139          1           0       -0.965660   -1.105069   -0.835184
    140          1           0       -0.590894   -2.595851    0.251826
    141          1           0       -1.192350   -1.207592    0.914596
    142          1           0       -6.953398   -5.655431   -0.002829
    143          1           0       -9.315949   -5.577806   -1.782177
    144          1           0       -5.851994   -6.352647   -1.896134
    145          1           0       -6.336386   -4.951043   -2.869773
    146          1           0       -7.295361   -6.422037   -2.834052
    147          1           0       -9.025205   -7.123980    0.295937
    148          1           0      -10.446877   -6.055725    0.207628
    149          1           0      -10.153945   -5.527406    2.178151
    150          1           0       -8.521593   -4.764520    1.897450
    151          1           0       -8.626436   -6.409643    2.416703
    152          1           0      -14.340544   -1.990157    0.306524
    153          1           0      -13.439225   -3.386015   -0.407763
    154          1           0      -14.014466   -1.866398   -1.344737
    155          1           0      -12.368811    2.340110    2.078529
    156          1           0      -12.719374    6.226531    1.010331
    157          1           0      -13.345316    5.452267   -0.448476
    158          1           0      -11.622055    5.744121   -0.420299
 ---------------------------------------------------------------------

 SCF Done:  E(RCAM-B3LYP) =  -4069.80685989     A.U. after   19 cycles

 Excitation energies and oscillator strengths:

 Excited State   1:      Singlet-A      1.6977 eV  730.33 nm  f=0.4811  <S**2>=0.000
     309 -> 315       -0.18398
     312 -> 314        0.67820
     309 <- 315       -0.10791
 This state for optimization and/or second-order correction.
 Total Energy, E(TD-HF/TD-DFT) =  -4069.74447215
 Copying the excited state density for this state as the 1-particle RhoCI density.

 Excited State   2:      Singlet-A      1.7854 eV  694.42 nm  f=0.3086  <S**2>=0.000
     310 -> 316        0.17518
     311 -> 313        0.67921
     310 <- 316        0.10062

 Excited State   3:      Singlet-A      2.2588 eV  548.90 nm  f=0.0851  <S**2>=0.000
     309 -> 314        0.10332
     310 -> 313        0.63082
     311 -> 316       -0.27992

 Excited State   4:      Singlet-A      2.2668 eV  546.95 nm  f=0.0672  <S**2>=0.000
     309 -> 314        0.60041
     310 -> 313       -0.10680
     312 -> 315        0.34461

 Excited State   5:      Singlet-A      2.8076 eV  441.61 nm  f=0.0000  <S**2>=0.000
     312 -> 313        0.70688

 The electronic state is 1-A.
 Alpha  occ. eigenvalues --  -46.89175 -46.88319 -19.25582 -19.24455 -19.20184
 Alpha  occ. eigenvalues --  -19.19953 -19.19505 -19.19485 -19.19435 -19.19339
 Alpha  occ. eigenvalues --  -14.42359 -14.42214 -14.42121 -14.41835 -14.40424
 Alpha  occ. eigenvalues --  -14.39428 -14.39404 -14.38813 -10.39449 -10.38440
 Alpha  occ. eigenvalues --  -10.36470 -10.36114 -10.35640 -10.35339 -10.32614
 Alpha  occ. eigenvalues --  -10.32057 -10.31901 -10.31764 -10.31692 -10.31385
 Alpha  occ. eigenvalues --  -10.31342 -10.31217 -10.30806 -10.30269 -10.30267
 Alpha  occ. eigenvalues --  -10.30263 -10.30105 -10.29869 -10.29813 -10.29511
 Alpha  occ. eigenvalues --  -10.29148 -10.29020 -10.28946 -10.28855 -10.28750
 Alpha  occ. eigenvalues --  -10.28738 -10.28576 -10.28258 -10.28240 -10.28129
 Alpha  occ. eigenvalues --  -10.28071 -10.28060 -10.27897 -10.27890 -10.27806
 Alpha  occ. eigenvalues --  -10.27791 -10.27755 -10.27709 -10.27645 -10.27507
 Alpha  occ. eigenvalues --  -10.27488 -10.27444 -10.27386 -10.27290 -10.27279
 Alpha  occ. eigenvalues --  -10.27249 -10.27221 -10.26991 -10.26919 -10.26783
 Alpha  occ. eigenvalues --  -10.26575 -10.26472 -10.26454 -10.26396 -10.26343
 Alpha  occ. eigenvalues --  -10.26156 -10.25963 -10.25852 -10.25800 -10.25775
 Alpha  occ. eigenvalues --  -10.25509 -10.25461 -10.25216 -10.25214 -10.24974
 Alpha  occ. eigenvalues --  -10.24656  -3.17579  -3.16849  -1.92482  -1.92024
 Alpha  occ. eigenvalues --   -1.91880  -1.91756  -1.91298  -1.91156  -1.15995
 Alpha  occ. eigenvalues --   -1.15893  -1.11582  -1.10130  -1.09545  -1.09389
 Alpha  occ. eigenvalues --   -1.07552  -1.07401  -1.05059  -1.04155  -1.03702
 Alpha  occ. eigenvalues --   -1.02814  -1.02557  -1.02055  -1.01633  -1.01035
 Alpha  occ. eigenvalues --   -0.92303  -0.91956  -0.89159  -0.89027  -0.88724
 Alpha  occ. eigenvalues --   -0.88553  -0.88116  -0.87943  -0.87303  -0.87203
 Alpha  occ. eigenvalues --   -0.86975  -0.86833  -0.86156  -0.85694  -0.84568
 Alpha  occ. eigenvalues --   -0.84485  -0.83680  -0.83307  -0.82583  -0.82362
 Alpha  occ. eigenvalues --   -0.81467  -0.81132  -0.81120  -0.80809  -0.80181
 Alpha  occ. eigenvalues --   -0.79885  -0.78516  -0.77999  -0.77271  -0.77132
 Alpha  occ. eigenvalues --   -0.76979  -0.76562  -0.75858  -0.75734  -0.74902
 Alpha  occ. eigenvalues --   -0.74794  -0.72390  -0.72329  -0.72101  -0.71387
 Alpha  occ. eigenvalues --   -0.69813  -0.69193  -0.69140  -0.68857  -0.68281
 Alpha  occ. eigenvalues --   -0.67499  -0.67367  -0.67360  -0.65673  -0.65159
 Alpha  occ. eigenvalues --   -0.64923  -0.64910  -0.64678  -0.64641  -0.64442
 Alpha  occ. eigenvalues --   -0.64327  -0.62469  -0.61252  -0.60221  -0.60108
 Alpha  occ. eigenvalues --   -0.59344  -0.59248  -0.58903  -0.58840  -0.58704
 Alpha  occ. eigenvalues --   -0.58135  -0.57906  -0.57903  -0.57414  -0.57098
 Alpha  occ. eigenvalues --   -0.56034  -0.55860  -0.55849  -0.55471  -0.54998
 Alpha  occ. eigenvalues --   -0.54829  -0.54798  -0.54361  -0.54332  -0.53770
 Alpha  occ. eigenvalues --   -0.53461  -0.53318  -0.53290  -0.53116  -0.53114
 Alpha  occ. eigenvalues --   -0.53083  -0.52659  -0.52341  -0.52225  -0.52223
 Alpha  occ. eigenvalues --   -0.52033  -0.51844  -0.51803  -0.51438  -0.51434
 Alpha  occ. eigenvalues --   -0.51100  -0.50979  -0.50967  -0.50806  -0.50677
 Alpha  occ. eigenvalues --   -0.50188  -0.49778  -0.49675  -0.49616  -0.49565
 Alpha  occ. eigenvalues --   -0.49557  -0.49264  -0.48848  -0.48747  -0.48622
 Alpha  occ. eigenvalues --   -0.48530  -0.48454  -0.48392  -0.48161  -0.48051
 Alpha  occ. eigenvalues --   -0.48037  -0.47841  -0.47636  -0.47570  -0.47293
 Alpha  occ. eigenvalues --   -0.47161  -0.46827  -0.46767  -0.46655  -0.46523
 Alpha  occ. eigenvalues --   -0.46302  -0.46082  -0.46067  -0.45809  -0.45611
 Alpha  occ. eigenvalues --   -0.45551  -0.45212  -0.45121  -0.44946  -0.44762
 Alpha  occ. eigenvalues --   -0.44709  -0.44548  -0.44465  -0.44106  -0.44023
 Alpha  occ. eigenvalues --   -0.43831  -0.43655  -0.43383  -0.43310  -0.43280
 Alpha  occ. eigenvalues --   -0.43152  -0.43038  -0.42898  -0.42830  -0.42705
 Alpha  occ. eigenvalues --   -0.42502  -0.42307  -0.42233  -0.42080  -0.42074
 Alpha  occ. eigenvalues --   -0.42047  -0.41857  -0.41635  -0.41629  -0.41454
 Alpha  occ. eigenvalues --   -0.41266  -0.40671  -0.40667  -0.40473  -0.40332
 Alpha  occ. eigenvalues --   -0.40135  -0.39738  -0.39709  -0.39535  -0.39439
 Alpha  occ. eigenvalues --   -0.38725  -0.37811  -0.37767  -0.37420  -0.37258
 Alpha  occ. eigenvalues --   -0.37072  -0.36958  -0.36650  -0.36362  -0.36329
 Alpha  occ. eigenvalues --   -0.36192  -0.36005  -0.34595  -0.34401  -0.34136
 Alpha  occ. eigenvalues --   -0.33932  -0.33402  -0.33171  -0.31741  -0.31554
 Alpha  occ. eigenvalues --   -0.31144  -0.31038  -0.30920  -0.30735  -0.30353
 Alpha  occ. eigenvalues --   -0.30303  -0.29800  -0.28759  -0.24333  -0.24153
 Alpha  occ. eigenvalues --   -0.21403  -0.20880
 Alpha virt. eigenvalues --   -0.08604  -0.08406  -0.02280  -0.01858  -0.00167
 Alpha virt. eigenvalues --   -0.00051   0.01998   0.02012   0.02244   0.02854
 Alpha virt. eigenvalues --    0.04398   0.04808   0.05011   0.05266   0.05519

 Mulliken charges:
               1
     1  Mg  11.998807
     2  C    6.002434
     3  C    5.998485
     4  C    5.996956
     5  C    6.000489
     6  N    7.001404
     7  C    5.996394
     8  C    6.001553
     9  C    5.998582
    10  C    6.004767
    11  C    5.999053
    12  C    6.000407
    13  C    5.999950
    14  H    1.000229
    15  N    6.998393
    16  C    6.005227
    17  C    6.002668
    18  C    6.002595
    19  C    6.004910
    20  C    5.999558
    21  C    6.001076
    22  O    8.003660
    23  C    5.999419
    24  N    6.999436
    25  C    6.004618
    26  C    5.998502
    27  C    6.001259
    28  C    5.997016
    29  C    5.999506
    30  C    6.000898
    31  C    6.000681
    32  N    7.000844
    33  C    5.994298
    34  C    5.995714
    35  C    5.999168
    36  C    5.995468
    37  C    6.001484
    38  C    5.996680
    39  O    7.995807
    40  C    5.999296
    41  C    6.000155
    42  O    7.999310
    43  O    7.999607
    44  C    5.999984
    45  H    1.002172
    46  H    1.001152
    47  H    0.997299
    48  H    0.999972
    49  H    1.000699
    50  H    1.000734
    51  H    1.002531
    52  H    1.000555
    53  H    0.999228
    54  H    0.999495
    55  H    1.000145
    56  H    1.000296
    57  H    1.002665
    58  H    1.002469
    59  H    1.003134
    60  H    1.000914
    61  H    1.001786
    62  H    1.002322
    63  H    1.000455
    64  H    1.000326
    65  H    1.001769
    66  H    1.000535
    67  H    1.000143
    68  H    0.998285
    69  H    0.999184
    70  H    1.001035
    71  H    0.997339
    72  H    1.000142
    73  H    0.996950
    74  H    0.998673
    75  H    0.993029
    76  H    0.998027
    77  H    1.000273
    78  H    0.999658
    79  H    0.999863
    80  Mg  12.002724
    81  C    6.027894
    82  C    5.972884
    83  C    5.990058
    84  C    6.021804
    85  N    7.002729
    86  C    5.959555
    87  C    6.013401
    88  C    5.988644
    89  C    6.038300
    90  C    5.998317
    91  C    6.002543
    92  C    6.004279
    93  H    0.990933
    94  N    6.986866
    95  C    6.044806
    96  C    6.019949
    97  C    6.018982
    98  C    6.031962
    99  C    5.998681
   100  C    6.010876
   101  O    8.030153
   102  C    5.995102
   103  N    7.002347
   104  C    6.030448
   105  C    5.989037
   106  C    6.012318
   107  C    5.966086
   108  C    5.998656
   109  C    6.002662
   110  C    6.005211
   111  N    7.006631
   112  C    5.948100
   113  C    5.974649
   114  C    5.995395
   115  C    5.962133
   116  C    6.003324
   117  C    5.983584
   118  O    7.972599
   119  C    5.997205
   120  C    5.996666
   121  O    7.996305
   122  O    7.998319
   123  C    6.002094
   124  H    1.007114
   125  H    1.006972
   126  H    0.991024
   127  H    0.998320
   128  H    1.001507
   129  H    1.014885
   130  H    1.000610
   131  H    0.999458
   132  H    0.986919
   133  H    1.005354
   134  H    0.996091
   135  H    1.003262
   136  H    1.021006
   137  H    1.015449
   138  H    1.014660
   139  H    1.009535
   140  H    1.014745
   141  H    1.007599
   142  H    1.001141
   143  H    0.997369
   144  H    0.998414
   145  H    0.997247
   146  H    1.010281
   147  H    0.989580
   148  H    1.004647
   149  H    1.005777
   150  H    0.990639
   151  H    0.992688
   152  H    0.983536
   153  H    0.980471
   154  H    0.978723
   155  H    0.992607
   156  H    0.995466
   157  H    0.998632
   158  H    0.993061
 Sum of Mulliken charges = 624.00000

 Dipole moment (field-independent basis, Debye):
    X=             12.2107    Y=             -0.3646    Z=              0.4775  Tot=             12.2255
 Quadrupole moment (field-independent basis, Debye-Ang):
   XX=           -150.4078   YY=             -1.3691   ZZ=             -0.7062
   XY=             -9.9133   XZ=             12.8164   YZ=             -0.6857

 Normal termination of Gaussian 16 at Thu Sep 23 07:49:07 2021.
