 Gaussian 16, Revision A.03,
 Gaussian 16:  ES64L-G16RevA.03 25-Dec-2016

 -----------------------------------
 #p cam-b3lyp/Def2SVP td=(nstates=5)
 -----------------------------------

 --------------------------------
 TDDFT excited states in gaussian
 --------------------------------
 Symbolic Z-matrix:
 Charge =  0 Multiplicity = 1

                         Standard orientation:
 ---------------------------------------------------------------------
 Center     Atomic      Atomic             Coordinates (Angstroms)
 Number     Number       Type             X           Y           Z
 ---------------------------------------------------------------------
      1         12           0       13.400035   -0.716136    0.196301
      2          6           0       11.794277    2.044343   -1.466076
      3          6           0       14.996611    1.595490    2.135676
      4          6           0       15.114924   -3.272235    1.529335
      5          6           0       12.073333   -2.778442   -2.156977
      6          7           0       13.334427    1.657452    0.335686
      7          6           0       12.563111    2.479826   -0.433214
      8          6           0       12.681705    3.844354    0.131885
      9          6           0       13.808296    3.750379    1.197873
     10          6           0       14.161968    2.238945    1.252257
     11          6           0       15.058611    4.597549    0.799789
     12          6           0       11.408136    4.447934    0.668977
     13          6           0       11.386828    5.920151    1.047218
     14          1           0       10.278628    6.726964    0.513481
     15          7           0       14.751643   -0.829784    1.688470
     16          6           0       15.382627    0.274619    2.324818
     17          6           0       16.229687   -0.286557    3.394016
     18          6           0       16.311451   -1.652900    3.138432
     19          6           0       15.403187   -1.968801    2.021105
     20          6           0       16.956271    0.611921    4.372949
     21          6           0       17.099234   -2.749476    3.887327
     22          8           0       17.284820   -3.899560    3.447344
     23          6           0       17.630178   -2.397458    5.216810
     24          7           0       13.640582   -2.767291   -0.277214
     25          6           0       14.363545   -3.647485    0.384369
     26          6           0       14.302195   -5.076994   -0.220451
     27          6           0       13.148071   -4.914900   -1.212129
     28          6           0       12.907620   -3.422833   -1.186840
     29          6           0       15.651243   -5.467685   -0.913127
     30          6           0       11.888978   -5.703533   -0.930842
     31          6           0       11.217732   -6.385223   -2.136387
     32          7           0       12.123855   -0.440088   -1.394558
     33          6           0       11.664835   -1.408058   -2.260930
     34          6           0       10.707446   -0.837197   -3.255809
     35          6           0       10.805684    0.499641   -2.926430
     36          6           0       11.685956    0.716031   -1.859382
     37          6           0        9.803970   -1.559501   -4.202913
     38          6           0       10.297542    1.805839   -3.319002
     39          8           0        9.468528    2.055859   -4.186718
     40          6           0       10.909084    2.880906   -2.391588
     41          6           0       11.445006    3.905688   -3.250737
     42          8           0       12.507806    3.853107   -3.915428
     43          8           0       10.719681    5.051545   -3.126705
     44          6           0       11.249697    6.273560   -3.691030
     45          1           0       15.449393    2.315598    2.820054
     46          1           0       15.786237   -4.073313    1.845184
     47          1           0       11.895982   -3.469246   -2.983663
     48          1           0       13.032899    4.425507   -0.719765
     49          1           0       13.484069    4.101348    2.177720
     50          1           0       15.532253    5.320391    1.464816
     51          1           0       14.728080    5.160448   -0.072990
     52          1           0       15.882891    4.029792    0.367312
     53          1           0       11.116978    3.981218    1.610141
     54          1           0       10.535598    4.134235    0.096609
     55          1           0       12.294052    6.417692    0.707725
     56          1           0       11.133231    5.937373    2.106849
     57          1           0       18.004138    0.353960    4.524934
     58          1           0       16.492217    0.662028    5.357752
     59          1           0       17.044806    1.653018    4.061523
     60          1           0       16.819615   -1.973045    5.809402
     61          1           0       18.369003   -1.634367    4.974492
     62          1           0       17.909007   -3.336684    5.693102
     63          1           0       14.051763   -5.743170    0.605844
     64          1           0       13.377272   -5.134177   -2.254564
     65          1           0       15.538963   -5.547222   -1.994003
     66          1           0       15.993787   -6.449747   -0.587017
     67          1           0       16.341824   -4.659456   -0.671888
     68          1           0       11.136987   -5.098719   -0.425076
     69          1           0       12.156865   -6.326283   -0.077923
     70          1           0       10.692050   -7.257246   -1.748588
     71          1           0       11.907132   -6.573855   -2.959916
     72          1           0       10.542518   -5.597428   -2.469739
     73          1           0        8.771925   -1.643566   -3.861938
     74          1           0       10.323351   -2.487477   -4.440384
     75          1           0        9.869786   -1.090929   -5.185641
     76          1           0       10.045618    3.356026   -1.926068
     77          1           0       12.264008    6.191348   -4.082467
     78          1           0       11.146876    7.098386   -2.986441
     79          1           0       10.658109    6.622476   -4.537828
     80         12           0      -13.623363   -0.600000    0.105387
     81          6           0      -11.387204    2.015480    0.556196
     82          6           0      -16.189887    1.586597    0.028802
     83          6           0      -15.695215   -3.216973   -0.147123
     84          6           0      -10.911709   -2.801000    0.359376
     85          7           0      -13.690534    1.581567    0.252806
     86          6           0      -12.701875    2.439460    0.335408
     87          6           0      -13.334107    3.906697    0.304268
     88          6           0      -14.683186    3.570011    0.903506
     89          6           0      -14.921568    2.137784    0.327984
     90          6           0      -14.629962    3.687000    2.442074
     91          6           0      -13.202783    4.543189   -1.145866
     92          6           0      -13.325835    6.069499   -1.185930
     93          1           0      -13.787123    6.799757    0.063519
     94          7           0      -15.613014   -0.780193   -0.214563
     95          6           0      -16.510276    0.282286   -0.293282
     96          6           0      -17.819429   -0.268452   -0.755845
     97          6           0      -17.708844   -1.723880   -0.751196
     98          6           0      -16.311627   -1.917652   -0.280382
     99          6           0      -19.008068    0.606685   -1.076000
    100          6           0      -18.745764   -2.863300   -1.176388
    101          8           0      -18.473838   -4.068632   -1.187187
    102          6           0      -20.122748   -2.397577   -1.601390
    103          7           0      -13.370967   -2.650814    0.216360
    104          6           0      -14.363815   -3.528686    0.100890
    105          6           0      -13.897133   -5.001347    0.317195
    106          6           0      -12.375700   -4.816495    0.224405
    107          6           0      -12.172680   -3.334010    0.206907
    108          6           0      -14.387728   -5.650116    1.641622
    109          6           0      -11.575753   -5.650438   -0.872615
    110          6           0      -11.129224   -4.924340   -2.098842
    111          7           0      -11.595489   -0.493857    0.600933
    112          6           0      -10.619624   -1.432792    0.602200
    113          6           0       -9.338529   -0.907372    0.914717
    114          6           0       -9.583371    0.501904    0.904973
    115          6           0      -10.938427    0.636153    0.705663
    116          6           0       -7.992509   -1.523074    1.196423
    117          6           0       -9.027406    1.816768    1.025133
    118          8           0       -7.896920    2.203928    1.228585
    119          6           0      -10.117386    2.872481    0.654620
    120          6           0      -10.172746    3.906154    1.692684
    121          8           0      -10.461174    3.654592    2.852814
    122          8           0       -9.688795    5.170551    1.269752
    123          6           0       -9.612272    6.212121    2.306135
    124          1           0      -16.997276    2.318804    0.075961
    125          1           0      -16.401577   -4.047779   -0.188827
    126          1           0      -10.099358   -3.519775    0.482717
    127          1           0      -12.744682    4.574673    0.930904
    128          1           0      -15.508940    4.165758    0.515319
    129          1           0      -15.283757    4.539705    2.628308
    130          1           0      -13.626063    3.885194    2.819886
    131          1           0      -15.129391    2.797560    2.825584
    132          1           0      -13.976534    4.143183   -1.801766
    133          1           0      -12.185633    4.309811   -1.461442
    134          1           0      -14.003461    6.303979   -2.006294
    135          1           0      -12.348974    6.454926   -1.476946
    136          1           0      -18.696729    1.563022   -1.497775
    137          1           0      -19.702854    0.817885   -0.263771
    138          1           0      -19.580209    0.129166   -1.871305
    139          1           0      -20.436979   -1.755649   -0.778755
    140          1           0      -20.867082   -3.189746   -1.676862
    141          1           0      -20.063088   -1.907171   -2.573148
    142          1           0      -14.255795   -5.652782   -0.479585
    143          1           0      -11.997324   -5.049638    1.219012
    144          1           0      -13.521450   -6.185868    2.030496
    145          1           0      -15.247971   -6.314617    1.577431
    146          1           0      -14.726359   -4.848255    2.297763
    147          1           0      -12.149556   -6.547038   -1.107329
    148          1           0      -10.625031   -5.970310   -0.446713
    149          1           0      -10.040937   -4.868456   -2.064628
    150          1           0      -11.360683   -3.859237   -2.138907
    151          1           0      -11.383068   -5.419378   -3.036243
    152          1           0       -8.033410   -2.612156    1.236094
    153          1           0       -7.568442   -1.054213    2.084837
    154          1           0       -7.236498   -1.416735    0.418153
    155          1           0       -9.906460    3.354254   -0.299741
    156          1           0       -9.407428    7.216447    1.936185
    157          1           0       -8.797906    5.864716    2.942499
    158          1           0      -10.542226    6.127668    2.867180
 ---------------------------------------------------------------------

 SCF Done:  E(RCAM-B3LYP) =  -4069.82979657     A.U. after   18 cycles

 Excitation energies and oscillator strengths:

 Excited State   1:      Singlet-A      1.7352 eV  714.51 nm  f=0.4623  <S**2>=0.000
     310 -> 316        0.17670
     311 -> 313        0.68234
     310 <- 316        0.10627
 This state for optimization and/or second-order correction.
 Total Energy, E(TD-HF/TD-DFT) =  -4069.76602770
 Copying the excited state density for this state as the 1-particle RhoCI density.

 Excited State   2:      Singlet-A      1.7542 eV  706.79 nm  f=0.3154  <S**2>=0.000
     309 -> 315       -0.19779
     312 -> 314        0.67713
     309 <- 315       -0.11203

 Excited State   3:      Singlet-A      2.2152 eV  559.70 nm  f=0.1477  <S**2>=0.000
     310 -> 313        0.65493
     311 -> 316       -0.25753

 Excited State   4:      Singlet-A      2.3187 eV  534.72 nm  f=0.0719  <S**2>=0.000
     309 -> 314        0.61702
     312 -> 315        0.33882

 Excited State   5:      Singlet-A      2.9256 eV  423.79 nm  f=0.0000  <S**2>=0.000
     312 -> 313        0.70706

 The electronic state is 1-A.
 Alpha  occ. eigenvalues --  -46.88428 -46.87751 -19.25084 -19.23899 -19.20467
 Alpha  occ. eigenvalues --  -19.19475 -19.18966 -19.18761 -19.18529 -19.17886
 Alpha  occ. eigenvalues --  -14.41999 -14.41836 -14.41447 -14.41029 -14.40097
 Alpha  occ. eigenvalues --  -14.39694 -14.39526 -14.38619 -10.39063 -10.38860
 Alpha  occ. eigenvalues --  -10.37224 -10.35185 -10.34372 -10.34090 -10.31316
 Alpha  occ. eigenvalues --  -10.31140 -10.31125 -10.31052 -10.30984 -10.30675
 Alpha  occ. eigenvalues --  -10.30579 -10.30538 -10.30489 -10.30442 -10.30402
 Alpha  occ. eigenvalues --  -10.30334 -10.30322 -10.30295 -10.30008 -10.29839
 Alpha  occ. eigenvalues --  -10.29002 -10.28965 -10.28808 -10.28653 -10.28510
 Alpha  occ. eigenvalues --  -10.28328 -10.28106 -10.28083 -10.28044 -10.27945
 Alpha  occ. eigenvalues --  -10.27939 -10.27935 -10.27927 -10.27872 -10.27612
 Alpha  occ. eigenvalues --  -10.27579 -10.27537 -10.27529 -10.27472 -10.27280
 Alpha  occ. eigenvalues --  -10.27256 -10.27232 -10.27152 -10.27144 -10.27045
 Alpha  occ. eigenvalues --  -10.27014 -10.26896 -10.26846 -10.26752 -10.26319
 Alpha  occ. eigenvalues --  -10.26196 -10.26139 -10.26034 -10.25926 -10.25881
 Alpha  occ. eigenvalues --  -10.25871 -10.25854 -10.25749 -10.25736 -10.25695
 Alpha  occ. eigenvalues --  -10.25661 -10.25625 -10.25567 -10.24531 -10.24505
 Alpha  occ. eigenvalues --  -10.24169  -3.17034  -3.16516  -1.91942  -1.91481
 Alpha  occ. eigenvalues --   -1.91427  -1.91346  -1.90936  -1.90864  -1.16033
 Alpha  occ. eigenvalues --   -1.14484  -1.10473  -1.09559  -1.09394  -1.08999
 Alpha  occ. eigenvalues --   -1.06730  -1.05881  -1.05697  -1.05571  -1.04714
 Alpha  occ. eigenvalues --   -1.04505  -1.04135  -1.03149  -1.03002  -1.02109
 Alpha  occ. eigenvalues --   -0.93087  -0.92117  -0.90026  -0.89236  -0.89196
 Alpha  occ. eigenvalues --   -0.88567  -0.88405  -0.88272  -0.87518  -0.87283
 Alpha  occ. eigenvalues --   -0.87108  -0.87012  -0.86551  -0.86248  -0.84598
 Alpha  occ. eigenvalues --   -0.84319  -0.83996  -0.83652  -0.82860  -0.82749
 Alpha  occ. eigenvalues --   -0.82555  -0.82539  -0.81169  -0.80940  -0.80805
 Alpha  occ. eigenvalues --   -0.80056  -0.78599  -0.78575  -0.77650  -0.77366
 Alpha  occ. eigenvalues --   -0.77231  -0.76650  -0.76502  -0.75846  -0.75175
 Alpha  occ. eigenvalues --   -0.75059  -0.72917  -0.72804  -0.71883  -0.71165
 Alpha  occ. eigenvalues --   -0.69478  -0.69238  -0.69188  -0.68739  -0.68005
 Alpha  occ. eigenvalues --   -0.67917  -0.66603  -0.66459  -0.66353  -0.65335
 Alpha  occ. eigenvalues --   -0.65040  -0.65033  -0.64653  -0.64486  -0.64177
 Alpha  occ. eigenvalues --   -0.63990  -0.62466  -0.61237  -0.60624  -0.60340
 Alpha  occ. eigenvalues --   -0.59830  -0.59575  -0.59414  -0.59116  -0.58705
 Alpha  occ. eigenvalues --   -0.58316  -0.58004  -0.57966  -0.57606  -0.57537
 Alpha  occ. eigenvalues --   -0.56396  -0.55789  -0.55673  -0.55658  -0.55445
 Alpha  occ. eigenvalues --   -0.55427  -0.54775  -0.54361  -0.53975  -0.53955
 Alpha  occ. eigenvalues --   -0.53822  -0.53675  -0.53423  -0.53347  -0.53098
 Alpha  occ. eigenvalues --   -0.52983  -0.52890  -0.52648  -0.52323  -0.52123
 Alpha  occ. eigenvalues --   -0.51899  -0.51811  -0.51785  -0.51611  -0.51197
 Alpha  occ. eigenvalues --   -0.51133  -0.50718  -0.50713  -0.50682  -0.50418
 Alpha  occ. eigenvalues --   -0.50333  -0.50223  -0.49878  -0.49853  -0.49575
 Alpha  occ. eigenvalues --   -0.49493  -0.49221  -0.49008  -0.48995  -0.48794
 Alpha  occ. eigenvalues --   -0.48567  -0.48533  -0.48486  -0.48306  -0.48274
 Alpha  occ. eigenvalues --   -0.47889  -0.47743  -0.47729  -0.47364  -0.47295
 Alpha  occ. eigenvalues --   -0.47157  -0.46932  -0.46863  -0.46470  -0.46442
 Alpha  occ. eigenvalues --   -0.46277  -0.46152  -0.46008  -0.45967  -0.45774
 Alpha  occ. eigenvalues --   -0.45557  -0.45500  -0.45064  -0.44982  -0.44931
 Alpha  occ. eigenvalues --   -0.44631  -0.44453  -0.44311  -0.43997  -0.43933
 Alpha  occ. eigenvalues --   -0.43887  -0.43782  -0.43637  -0.43431  -0.43350
 Alpha  occ. eigenvalues --   -0.43307  -0.43210  -0.43079  -0.42965  -0.42464
 Alpha  occ. eigenvalues --   -0.42424  -0.42359  -0.42052  -0.41966  -0.41780
 Alpha  occ. eigenvalues --   -0.41675  -0.41603  -0.41492  -0.41395  -0.41165
 Alpha  occ. eigenvalues --   -0.41013  -0.40992  -0.40958  -0.40800  -0.40513
 Alpha  occ. eigenvalues --   -0.40202  -0.40044  -0.39962  -0.39865  -0.39172
 Alpha  occ. eigenvalues --   -0.38744  -0.38179  -0.38042  -0.37838  -0.37552
 Alpha  occ. eigenvalues --   -0.36967  -0.36608  -0.36136  -0.35981  -0.35928
 Alpha  occ. eigenvalues --   -0.35611  -0.35562  -0.34425  -0.33923  -0.33737
 Alpha  occ. eigenvalues --   -0.33458  -0.33238  -0.32933  -0.32182  -0.31493
 Alpha  occ. eigenvalues --   -0.31139  -0.30980  -0.30513  -0.30492  -0.30461
 Alpha  occ. eigenvalues --   -0.30188  -0.30165  -0.29545  -0.23999  -0.23881
 Alpha  occ. eigenvalues --   -0.21377  -0.20838
 Alpha virt. eigenvalues --   -0.08821  -0.08075  -0.01719  -0.01241  -0.00003
 Alpha virt. eigenvalues --    0.00822   0.02489   0.02594   0.03101   0.03522
 Alpha virt. eigenvalues --    0.04636   0.04809   0.05338   0.05595   0.06152

 Mulliken charges:
               1
     1  Mg   0.834515
     2  C    0.024731
     3  C   -0.055683
     4  C   -0.051638
     5  C   -0.106194
     6  N   -0.264120
     7  C   -0.113506
     8  C    0.060297
     9  C   -0.062080
    10  C    0.034769
    11  C    0.055154
    12  C    0.051861
    13  C   -0.062273
    14  H    0.018013
    15  N   -0.433171
    16  C    0.174947
    17  C   -0.115168
    18  C   -0.045535
    19  C    0.143444
    20  C    0.083602
    21  C    0.007269
    22  O   -0.223303
    23  C    0.070551
    24  N   -0.254207
    25  C   -0.037023
    26  C   -0.003982
    27  C   -0.057319
    28  C    0.011903
    29  C    0.079558
    30  C    0.047597
    31  C    0.022726
    32  N   -0.327829
    33  C    0.125567
    34  C   -0.201374
    35  C    0.044307
    36  C    0.113381
    37  C    0.151142
    38  C   -0.008548
    39  O   -0.172662
    40  C    0.036365
    41  C    0.195461
    42  O   -0.253813
    43  O   -0.318212
    44  C    0.172051
    45  H   -0.038351
    46  H    0.004093
    47  H   -0.019279
    48  H    0.008394
    49  H    0.010620
    50  H    0.018296
    51  H   -0.002311
    52  H    0.013690
    53  H   -0.010719
    54  H    0.002354
    55  H    0.034724
    56  H    0.034294
    57  H    0.018447
    58  H    0.030371
    59  H    0.016729
    60  H    0.031212
    61  H    0.040859
    62  H    0.035825
    63  H    0.017050
    64  H    0.006167
    65  H    0.011764
    66  H    0.025504
    67  H    0.033328
    68  H   -0.001861
    69  H   -0.015593
    70  H    0.028513
    71  H    0.017346
    72  H    0.021665
    73  H    0.055151
    74  H   -0.004524
    75  H    0.025576
    76  H    0.051256
    77  H    0.049844
    78  H    0.029599
    79  H    0.028396
    80  Mg   0.842563
    81  C   -0.021637
    82  C   -0.078594
    83  C   -0.075117
    84  C   -0.111258
    85  N   -0.243017
    86  C   -0.062005
    87  C   -0.047443
    88  C   -0.052399
    89  C    0.015683
    90  C    0.105868
    91  C    0.057328
    92  C   -0.053899
    93  H    0.023467
    94  N   -0.393534
    95  C    0.179558
    96  C   -0.141549
    97  C   -0.075209
    98  C    0.104606
    99  C    0.096170
   100  C    0.057910
   101  O   -0.196852
   102  C    0.033364
   103  N   -0.301812
   104  C    0.062640
   105  C   -0.047732
   106  C    0.014858
   107  C    0.029779
   108  C    0.068838
   109  C    0.044665
   110  C    0.006221
   111  N   -0.283354
   112  C    0.112498
   113  C   -0.165603
   114  C    0.022774
   115  C    0.067139
   116  C    0.123692
   117  C    0.018822
   118  O   -0.167118
   119  C    0.053371
   120  C    0.179845
   121  O   -0.224489
   122  O   -0.371007
   123  C    0.187083
   124  H   -0.022543
   125  H   -0.009400
   126  H   -0.032050
   127  H   -0.002152
   128  H   -0.022981
   129  H    0.012540
   130  H    0.048786
   131  H    0.014371
   132  H    0.011141
   133  H    0.016633
   134  H    0.022772
   135  H    0.030258
   136  H    0.017753
   137  H    0.042009
   138  H    0.008707
   139  H    0.038344
   140  H    0.029154
   141  H    0.060265
   142  H    0.009242
   143  H    0.004334
   144  H    0.017280
   145  H    0.022829
   146  H    0.019421
   147  H    0.008842
   148  H    0.003166
   149  H   -0.003602
   150  H    0.027854
   151  H    0.017121
   152  H   -0.006003
   153  H    0.043887
   154  H    0.023904
   155  H    0.037250
   156  H    0.045035
   157  H    0.038760
   158  H    0.031955
 Sum of Mulliken charges =  -0.00000

 Dipole moment (field-independent basis, Debye):
    X=             -4.3801    Y=              0.9146    Z=              2.0970  Tot=              4.9415
 Quadrupole moment (field-independent basis, Debye-Ang):
   XX=           -374.3975   YY=           -469.1773   ZZ=           -524.2195
   XY=            -14.0600   XZ=             79.5529   YZ=             18.0712

 Normal termination of Gaussian 16 at Thu Sep 16 02:04:06 2021.
