 Gaussian 16, Revision A.03,
 Gaussian 16:  ES64L-G16RevA.03 25-Dec-2016

 -----------------------------------
 #p cam-b3lyp/Def2SVP td=(nstates=5)
 -----------------------------------

 --------------------------------
 TDDFT excited states in gaussian
 --------------------------------
 Symbolic Z-matrix:
 Charge =  0 Multiplicity = 1

                         Standard orientation:
 ---------------------------------------------------------------------
 Center     Atomic      Atomic             Coordinates (Angstroms)
 Number     Number       Type             X           Y           Z
 ---------------------------------------------------------------------
      1         12           0       18.170660    0.033609    0.263330
      2          6           0       15.387696   -1.554020   -0.921751
      3          6           0       19.081045    0.635411   -3.123654
      4          6           0       20.713767    1.945592    1.387092
      5          6           0       16.705447    0.180482    3.420657
      6          7           0       17.073976   -0.112855   -1.859560
      7          6           0       16.072355   -1.017317   -2.047773
      8          6           0       15.735246   -1.107483   -3.510365
      9          6           0       16.934334   -0.358820   -4.239227
     10          6           0       17.808835    0.103221   -3.030940
     11          6           0       17.456665   -0.993620   -5.476046
     12          6           0       14.274256   -0.692409   -4.018895
     13          6           0       13.546640    0.389722   -3.277587
     14          1           0       12.922531    1.500016   -4.111271
     15          7           0       19.798683    0.922786   -0.725790
     16          6           0       20.011169    1.042413   -2.064183
     17          6           0       21.214736    1.763024   -2.357046
     18          6           0       21.781402    2.060558   -1.011806
     19          6           0       20.755290    1.633546   -0.035591
     20          6           0       21.786596    2.088515   -3.653584
     21          6           0       23.125704    2.680553   -0.658522
     22          8           0       23.814828    3.138072   -1.499644
     23          6           0       23.681235    2.882753    0.723984
     24          7           0       18.561382    1.023183    2.070531
     25          6           0       19.758204    1.580250    2.310624
     26          6           0       19.780702    2.280178    3.768905
     27          6           0       18.666341    1.370059    4.482586
     28          6           0       17.922001    0.886744    3.260724
     29          6           0       21.130514    2.272548    4.491841
     30          6           0       17.875902    2.130973    5.562333
     31          6           0       17.647297    1.514742    6.947553
     32          7           0       16.353560   -0.464113    1.081091
     33          6           0       15.878977   -0.399069    2.385244
     34          6           0       14.648919   -1.076603    2.524848
     35          6           0       14.400318   -1.614877    1.273041
     36          6           0       15.474849   -1.217129    0.400980
     37          6           0       13.833629   -1.254388    3.768302
     38          6           0       13.592994   -2.421039    0.455598
     39          8           0       12.549717   -2.989761    0.770885
     40          6           0       14.072076   -2.289176   -1.018156
     41          6           0       14.185698   -3.736370   -1.474258
     42          8           0       13.652151   -4.189293   -2.509130
     43          8           0       15.073791   -4.365128   -0.633697
     44          6           0       15.613235   -5.715830   -0.925385
     45          1           0       19.236802    0.894177   -4.172992
     46          1           0       21.413795    2.720980    1.704813
     47          1           0       16.287767    0.170060    4.429206
     48          1           0       15.720507   -2.160308   -3.794591
     49          1           0       16.528667    0.595518   -4.573803
     50          1           0       18.543213   -1.077309   -5.495224
     51          1           0       17.048108   -0.537899   -6.378002
     52          1           0       17.130735   -2.033214   -5.510748
     53          1           0       13.546071   -1.503463   -4.005737
     54          1           0       14.349970   -0.252767   -5.013913
     55          1           0       14.067705    0.772692   -2.400765
     56          1           0       12.628965   -0.056525   -2.892977
     57          1           0       21.516057    1.305411   -4.361173
     58          1           0       22.870266    2.199414   -3.647226
     59          1           0       21.338295    3.033155   -3.963557
     60          1           0       23.207328    1.996778    1.147220
     61          1           0       23.312219    3.789788    1.201730
     62          1           0       24.766014    2.873960    0.831448
     63          1           0       19.361794    3.276236    3.622597
     64          1           0       18.978504    0.443926    4.964585
     65          1           0       21.059667    1.526686    5.284001
     66          1           0       21.430652    3.288818    4.745548
     67          1           0       21.954124    1.945143    3.858053
     68          1           0       16.897216    2.347919    5.133474
     69          1           0       18.317806    3.122665    5.660276
     70          1           0       17.867384    2.116371    7.829559
     71          1           0       18.098032    0.527119    7.053650
     72          1           0       16.597415    1.228916    6.891577
     73          1           0       13.303126   -2.204619    3.833945
     74          1           0       13.105258   -0.444829    3.820541
     75          1           0       14.431193   -1.243213    4.680773
     76          1           0       13.254094   -1.743575   -1.487030
     77          1           0       16.665958   -5.812717   -0.660460
     78          1           0       15.494643   -5.903755   -1.992616
     79          1           0       15.171514   -6.601522   -0.470448
     80         12           0      -18.088497    0.420761    0.157631
     81          6           0      -15.028414   -0.999417   -0.278360
     82          6           0      -19.420153   -2.596111    1.138481
     83          6           0      -21.110880    1.930674    0.372409
     84          6           0      -16.802532    3.370297   -1.304658
     85          7           0      -17.348905   -1.630158    0.187928
     86          6           0      -16.014942   -1.875514    0.284851
     87          6           0      -15.697910   -3.220509    0.845205
     88          6           0      -17.197948   -3.787438    1.043961
     89          6           0      -18.071575   -2.605673    0.777972
     90          6           0      -17.532516   -5.002746    0.065636
     91          6           0      -14.934933   -3.032525    2.238536
     92          6           0      -14.065776   -4.194326    2.724741
     93          1           0      -14.114877   -5.627945    2.140083
     94          7           0      -19.999636   -0.168430    0.769839
     95          6           0      -20.341326   -1.485595    1.117419
     96          6           0      -21.752205   -1.487684    1.427443
     97          6           0      -22.246264   -0.180766    1.239739
     98          6           0      -21.077616    0.582923    0.824696
     99          6           0      -22.457551   -2.767246    1.934416
    100          6           0      -23.779251    0.321893    1.357663
    101          8           0      -24.095647    1.517451    1.312929
    102          6           0      -24.967739   -0.601259    1.569838
    103          7           0      -18.819881    2.448211   -0.346857
    104          6           0      -20.127003    2.762988   -0.182736
    105          6           0      -20.470481    4.090154   -0.857116
    106          6           0      -18.983012    4.720731   -1.114590
    107          6           0      -18.092275    3.503690   -0.819604
    108          6           0      -21.457698    4.008338   -2.109843
    109          6           0      -18.502455    5.869354   -0.090239
    110          6           0      -17.921815    7.164632   -0.627137
    111          7           0      -16.286766    1.150887   -0.606258
    112          6           0      -15.906892    2.314719   -1.162142
    113          6           0      -14.438425    2.283794   -1.448955
    114          6           0      -14.077401    0.977321   -1.042437
    115          6           0      -15.274928    0.321744   -0.665472
    116          6           0      -13.523279    3.332467   -1.974641
    117          6           0      -12.938171    0.142134   -0.962052
    118          8           0      -11.748751    0.368350   -1.265501
    119          6           0      -13.500902   -1.187092   -0.465052
    120          6           0      -13.233435   -2.205728   -1.454506
    121          8           0      -13.504189   -2.255769   -2.613519
    122          8           0      -12.654254   -3.268948   -0.768239
    123          6           0      -12.281463   -4.565218   -1.453869
    124          1           0      -19.855257   -3.446818    1.666352
    125          1           0      -22.105831    2.381057    0.353100
    126          1           0      -16.389152    4.162760   -1.931051
    127          1           0      -15.105407   -3.946284    0.288519
    128          1           0      -17.358087   -4.135157    2.064506
    129          1           0      -18.170970   -5.783688    0.478031
    130          1           0      -16.604279   -5.381412   -0.361979
    131          1           0      -18.096668   -4.577945   -0.765291
    132          1           0      -15.629236   -2.800020    3.046227
    133          1           0      -14.301288   -2.156596    2.097164
    134          1           0      -14.244613   -4.261645    3.798608
    135          1           0      -13.020687   -3.893725    2.660851
    136          1           0      -21.792495   -3.618303    2.080452
    137          1           0      -23.239205   -2.997167    1.211119
    138          1           0      -22.953089   -2.507795    2.870237
    139          1           0      -24.843337   -0.973166    2.586176
    140          1           0      -24.869382   -1.540974    1.025997
    141          1           0      -25.888324   -0.118535    1.242445
    142          1           0      -20.954325    4.722350   -0.111630
    143          1           0      -18.898043    5.118824   -2.125920
    144          1           0      -20.996209    4.424395   -3.005713
    145          1           0      -22.388859    4.527929   -1.886756
    146          1           0      -21.668570    2.969634   -2.365371
    147          1           0      -17.821530    5.478966    0.665951
    148          1           0      -19.379806    6.127882    0.501885
    149          1           0      -16.933284    7.267054   -0.180813
    150          1           0      -18.549894    8.030853   -0.420964
    151          1           0      -17.750540    7.072294   -1.700543
    152          1           0      -13.981692    4.310277   -2.121526
    153          1           0      -13.114242    3.041771   -2.942607
    154          1           0      -12.697384    3.448178   -1.273064
    155          1           0      -13.058397   -1.493100    0.483367
    156          1           0      -12.581870   -4.540451   -2.501586
    157          1           0      -12.829819   -5.390475   -0.997637
    158          1           0      -11.200206   -4.648699   -1.344591
 ---------------------------------------------------------------------

 SCF Done:  E(RCAM-B3LYP) =  -4069.75828887     A.U. after   19 cycles

 Excitation energies and oscillator strengths:

 Excited State   1:      Singlet-A      1.6348 eV  758.41 nm  f=0.3962  <S**2>=0.000
     309 -> 315        0.16909
     311 -> 313        0.68876
     309 <- 315        0.10870
 This state for optimization and/or second-order correction.
 Total Energy, E(TD-HF/TD-DFT) =  -4069.69821130
 Copying the excited state density for this state as the 1-particle RhoCI density.

 Excited State   2:      Singlet-A      1.7390 eV  712.97 nm  f=0.3917  <S**2>=0.000
     310 -> 316        0.19176
     312 -> 314        0.68291
     310 <- 316        0.10976

 Excited State   3:      Singlet-A      2.1489 eV  576.97 nm  f=0.1476  <S**2>=0.000
     309 -> 313        0.65208
     311 -> 315       -0.25547

 Excited State   4:      Singlet-A      2.2288 eV  556.29 nm  f=0.1027  <S**2>=0.000
     310 -> 314        0.63902
     312 -> 316       -0.29490

 Excited State   5:      Singlet-A      2.8505 eV  434.95 nm  f=0.0000  <S**2>=0.000
     312 -> 313        0.70709

 The electronic state is 1-A.
 Alpha  occ. eigenvalues --  -46.89937 -46.89369 -19.26210 -19.23640 -19.20311
 Alpha  occ. eigenvalues --  -19.19551 -19.19167 -19.18743 -19.18464 -19.17230
 Alpha  occ. eigenvalues --  -14.42571 -14.42446 -14.42023 -14.41640 -14.40043
 Alpha  occ. eigenvalues --  -14.39649 -14.39520 -14.39359 -10.40463 -10.38612
 Alpha  occ. eigenvalues --  -10.36203 -10.34437 -10.34263 -10.33568 -10.32811
 Alpha  occ. eigenvalues --  -10.32081 -10.31856 -10.31714 -10.31597 -10.30999
 Alpha  occ. eigenvalues --  -10.30915 -10.30749 -10.30685 -10.30643 -10.30615
 Alpha  occ. eigenvalues --  -10.30184 -10.30165 -10.29963 -10.29836 -10.29714
 Alpha  occ. eigenvalues --  -10.29378 -10.28975 -10.28887 -10.28844 -10.28822
 Alpha  occ. eigenvalues --  -10.28741 -10.28448 -10.28419 -10.28287 -10.28264
 Alpha  occ. eigenvalues --  -10.28222 -10.28188 -10.28157 -10.28154 -10.27955
 Alpha  occ. eigenvalues --  -10.27937 -10.27935 -10.27922 -10.27792 -10.27790
 Alpha  occ. eigenvalues --  -10.27508 -10.27499 -10.27485 -10.27426 -10.27370
 Alpha  occ. eigenvalues --  -10.27333 -10.27220 -10.26783 -10.26765 -10.26712
 Alpha  occ. eigenvalues --  -10.26681 -10.26637 -10.26405 -10.26338 -10.26216
 Alpha  occ. eigenvalues --  -10.26175 -10.26135 -10.26088 -10.26054 -10.26039
 Alpha  occ. eigenvalues --  -10.25862 -10.25503 -10.25336 -10.25158 -10.25072
 Alpha  occ. eigenvalues --  -10.24715  -3.18409  -3.17776  -1.93267  -1.92901
 Alpha  occ. eigenvalues --   -1.92695  -1.92684  -1.92213  -1.92087  -1.15669
 Alpha  occ. eigenvalues --   -1.15591  -1.11408  -1.09487  -1.09344  -1.08289
 Alpha  occ. eigenvalues --   -1.07240  -1.07160  -1.05531  -1.05159  -1.04428
 Alpha  occ. eigenvalues --   -1.04355  -1.03545  -1.02927  -1.02599  -1.02147
 Alpha  occ. eigenvalues --   -0.93683  -0.93459  -0.89836  -0.88726  -0.88577
 Alpha  occ. eigenvalues --   -0.88396  -0.88228  -0.87934  -0.87486  -0.87244
 Alpha  occ. eigenvalues --   -0.87034  -0.86876  -0.86190  -0.85880  -0.84544
 Alpha  occ. eigenvalues --   -0.84292  -0.83991  -0.83443  -0.83092  -0.82332
 Alpha  occ. eigenvalues --   -0.82171  -0.81579  -0.81156  -0.80978  -0.80584
 Alpha  occ. eigenvalues --   -0.80267  -0.78511  -0.78381  -0.77800  -0.77440
 Alpha  occ. eigenvalues --   -0.77088  -0.76986  -0.76691  -0.76167  -0.75471
 Alpha  occ. eigenvalues --   -0.75157  -0.73581  -0.72557  -0.71954  -0.71749
 Alpha  occ. eigenvalues --   -0.70029  -0.69385  -0.69224  -0.68608  -0.68395
 Alpha  occ. eigenvalues --   -0.68194  -0.66564  -0.66270  -0.65953  -0.65488
 Alpha  occ. eigenvalues --   -0.65308  -0.65171  -0.64709  -0.64483  -0.64394
 Alpha  occ. eigenvalues --   -0.64220  -0.63590  -0.61777  -0.60418  -0.60276
 Alpha  occ. eigenvalues --   -0.59894  -0.59390  -0.59150  -0.58884  -0.58762
 Alpha  occ. eigenvalues --   -0.58436  -0.58059  -0.57724  -0.57617  -0.57214
 Alpha  occ. eigenvalues --   -0.56526  -0.55996  -0.55793  -0.55472  -0.55322
 Alpha  occ. eigenvalues --   -0.55257  -0.55105  -0.54461  -0.54196  -0.53966
 Alpha  occ. eigenvalues --   -0.53737  -0.53268  -0.53181  -0.53012  -0.52946
 Alpha  occ. eigenvalues --   -0.52725  -0.52503  -0.52173  -0.52101  -0.52073
 Alpha  occ. eigenvalues --   -0.51844  -0.51798  -0.51668  -0.51597  -0.51374
 Alpha  occ. eigenvalues --   -0.51346  -0.51075  -0.50773  -0.50690  -0.50587
 Alpha  occ. eigenvalues --   -0.50514  -0.49978  -0.49775  -0.49709  -0.49666
 Alpha  occ. eigenvalues --   -0.49458  -0.49363  -0.49179  -0.49092  -0.48993
 Alpha  occ. eigenvalues --   -0.48883  -0.48275  -0.48225  -0.48115  -0.47920
 Alpha  occ. eigenvalues --   -0.47865  -0.47583  -0.47556  -0.47300  -0.47236
 Alpha  occ. eigenvalues --   -0.47217  -0.47079  -0.46897  -0.46895  -0.46559
 Alpha  occ. eigenvalues --   -0.46422  -0.46408  -0.46217  -0.46139  -0.46136
 Alpha  occ. eigenvalues --   -0.45610  -0.45553  -0.45524  -0.45313  -0.45156
 Alpha  occ. eigenvalues --   -0.45012  -0.44878  -0.44654  -0.44320  -0.44227
 Alpha  occ. eigenvalues --   -0.44149  -0.43996  -0.43949  -0.43867  -0.43662
 Alpha  occ. eigenvalues --   -0.43378  -0.43110  -0.43068  -0.42701  -0.42637
 Alpha  occ. eigenvalues --   -0.42634  -0.42366  -0.42288  -0.42069  -0.41942
 Alpha  occ. eigenvalues --   -0.41720  -0.41711  -0.41597  -0.41480  -0.41282
 Alpha  occ. eigenvalues --   -0.41269  -0.41103  -0.41021  -0.40775  -0.40559
 Alpha  occ. eigenvalues --   -0.40220  -0.40178  -0.39692  -0.39374  -0.39025
 Alpha  occ. eigenvalues --   -0.38668  -0.38391  -0.37980  -0.37754  -0.37501
 Alpha  occ. eigenvalues --   -0.37359  -0.36874  -0.36726  -0.36543  -0.36135
 Alpha  occ. eigenvalues --   -0.36036  -0.35595  -0.34775  -0.34451  -0.34201
 Alpha  occ. eigenvalues --   -0.33857  -0.33122  -0.33076  -0.31561  -0.31215
 Alpha  occ. eigenvalues --   -0.31070  -0.30989  -0.30886  -0.30497  -0.30141
 Alpha  occ. eigenvalues --   -0.30017  -0.29541  -0.28344  -0.24454  -0.23801
 Alpha  occ. eigenvalues --   -0.21711  -0.21100
 Alpha virt. eigenvalues --   -0.09657  -0.08482  -0.01950  -0.01669   0.00031
 Alpha virt. eigenvalues --    0.00153   0.01008   0.02338   0.02700   0.02824
 Alpha virt. eigenvalues --    0.04581   0.04705   0.04924   0.05366   0.05929

 Mulliken charges:
               1
     1  Mg   0.824947
     2  C    0.019294
     3  C   -0.076966
     4  C   -0.075337
     5  C   -0.091294
     6  N   -0.272122
     7  C   -0.046288
     8  C    0.019124
     9  C   -0.037953
    10  C    0.011839
    11  C    0.090886
    12  C    0.034491
    13  C   -0.113765
    14  H    0.012091
    15  N   -0.363510
    16  C    0.155757
    17  C   -0.164933
    18  C   -0.053243
    19  C    0.113959
    20  C    0.136389
    21  C   -0.034879
    22  O   -0.178727
    23  C    0.046388
    24  N   -0.288425
    25  C    0.057790
    26  C   -0.083505
    27  C   -0.035981
    28  C    0.048080
    29  C    0.096434
    30  C    0.030971
    31  C    0.010223
    32  N   -0.351641
    33  C    0.123580
    34  C   -0.172827
    35  C    0.107940
    36  C    0.078532
    37  C    0.118792
    38  C   -0.023645
    39  O   -0.180863
    40  C   -0.040749
    41  C    0.244516
    42  O   -0.225223
    43  O   -0.349258
    44  C    0.180489
    45  H   -0.016071
    46  H   -0.017650
    47  H   -0.037893
    48  H    0.015005
    49  H    0.022388
    50  H    0.014176
    51  H    0.019034
    52  H    0.005472
    53  H    0.034739
    54  H    0.020751
    55  H    0.042952
    56  H    0.034079
    57  H    0.010755
    58  H    0.039505
    59  H    0.029655
    60  H    0.015076
    61  H    0.049005
    62  H    0.031072
    63  H    0.029337
    64  H    0.016104
    65  H    0.016679
    66  H    0.016733
    67  H    0.012725
    68  H    0.006106
    69  H    0.002112
    70  H    0.033144
    71  H    0.005078
    72  H    0.010983
    73  H    0.037305
    74  H    0.037137
    75  H    0.010919
    76  H    0.037114
    77  H    0.035785
    78  H    0.037912
    79  H    0.041399
    80  Mg   0.812027
    81  C   -0.074076
    82  C   -0.059201
    83  C   -0.048977
    84  C   -0.095313
    85  N   -0.287483
    86  C   -0.007233
    87  C   -0.035686
    88  C   -0.060100
    89  C    0.073596
    90  C    0.067938
    91  C    0.021913
    92  C   -0.043671
    93  H    0.021823
    94  N   -0.352738
    95  C    0.090803
    96  C   -0.158000
    97  C   -0.044758
    98  C    0.100228
    99  C    0.108433
   100  C    0.033402
   101  O   -0.220477
   102  C    0.070308
   103  N   -0.263488
   104  C    0.011721
   105  C   -0.016167
   106  C   -0.070735
   107  C    0.089967
   108  C    0.065472
   109  C    0.016607
   110  C    0.018714
   111  N   -0.299344
   112  C    0.080638
   113  C   -0.145583
   114  C   -0.016566
   115  C    0.164941
   116  C    0.124105
   117  C    0.057628
   118  O   -0.193206
   119  C    0.017363
   120  C    0.186345
   121  O   -0.169743
   122  O   -0.386232
   123  C    0.166615
   124  H   -0.032760
   125  H   -0.011550
   126  H   -0.026907
   127  H    0.021798
   128  H    0.005711
   129  H    0.022379
   130  H    0.011955
   131  H    0.016929
   132  H    0.008675
   133  H    0.010176
   134  H    0.020023
   135  H    0.030604
   136  H    0.019237
   137  H    0.030188
   138  H    0.026413
   139  H    0.033396
   140  H    0.005435
   141  H    0.050213
   142  H    0.010912
   143  H    0.010639
   144  H    0.011990
   145  H    0.028738
   146  H    0.024163
   147  H    0.014770
   148  H   -0.003697
   149  H    0.015282
   150  H    0.026155
   151  H    0.004563
   152  H    0.001589
   153  H    0.042163
   154  H    0.040970
   155  H    0.039735
   156  H    0.049388
   157  H    0.037284
   158  H    0.051635
 Sum of Mulliken charges =  -0.00000

 Dipole moment (field-independent basis, Debye):
    X=             -0.0530    Y=             -2.5148    Z=              5.9433  Tot=              6.4537
 Quadrupole moment (field-independent basis, Debye-Ang):
   XX=           -426.3432   YY=           -478.7677   ZZ=           -487.5859
   XY=              7.2413   XZ=             40.2513   YZ=             -4.5732

 Normal termination of Gaussian 16 at Wed Sep 15 00:26:31 2021.
