 Gaussian 16, Revision A.03,
 Gaussian 16:  ES64L-G16RevA.03 25-Dec-2016

 -----------------------------------
 #p cam-b3lyp/Def2SVP td=(nstates=5)
 -----------------------------------

 --------------------------------
 TDDFT excited states in gaussian
 --------------------------------
 Symbolic Z-matrix:
 Charge =  0 Multiplicity = 1

                         Standard orientation:
 ---------------------------------------------------------------------
 Center     Atomic      Atomic             Coordinates (Angstroms)
 Number     Number       Type             X           Y           Z
 ---------------------------------------------------------------------
      1         12           0       24.820124   -0.873394    0.268483
      2          6           0       24.728856    2.472249   -1.058372
      3          6           0       24.647936    0.531353    3.375070
      4          6           0       25.212061   -3.968279    1.501180
      5          6           0       25.467851   -1.997154   -2.872977
      6          7           0       24.645149    1.359776    1.068477
      7          6           0       24.588085    2.481667    0.293534
      8          6           0       24.273704    3.617427    1.191617
      9          6           0       24.380681    3.043512    2.631599
     10          6           0       24.624370    1.523731    2.423375
     11          6           0       25.558133    3.688785    3.429526
     12          6           0       22.965216    4.320753    0.930953
     13          6           0       22.673172    5.631990    1.642506
     14          1           0       22.209275    6.751277    0.808283
     15          7           0       24.803932   -1.613915    2.144035
     16          6           0       24.821475   -0.846408    3.341287
     17          6           0       24.727133   -1.807736    4.455989
     18          6           0       24.979048   -3.060167    3.902045
     19          6           0       25.072941   -2.907456    2.438823
     20          6           0       24.585560   -1.337277    5.888513
     21          6           0       25.065504   -4.440912    4.587606
     22          8           0       25.515784   -5.464972    4.040550
     23          6           0       24.549941   -4.533430    5.965641
     24          7           0       25.345785   -2.755978   -0.549362
     25          6           0       25.440827   -3.897198    0.101557
     26          6           0       25.825094   -5.096767   -0.807529
     27          6           0       25.646585   -4.470399   -2.192267
     28          6           0       25.432393   -3.011134   -1.861528
     29          6           0       27.291627   -5.576062   -0.539333
     30          6           0       24.541047   -5.030322   -3.058668
     31          6           0       24.873948   -5.251924   -4.544832
     32          7           0       24.956448    0.029603   -1.575882
     33          6           0       25.219373   -0.588236   -2.778965
     34          6           0       25.182103    0.386916   -3.910314
     35          6           0       25.012900    1.557032   -3.197940
     36          6           0       24.933859    1.327601   -1.819024
     37          6           0       25.169668    0.112056   -5.379768
     38          6           0       24.887662    2.994470   -3.389144
     39          8           0       24.862939    3.608454   -4.449860
     40          6           0       24.694033    3.668317   -2.011361
     41          6           0       25.656390    4.738045   -1.940109
     42          8           0       26.888925    4.631242   -1.731370
     43          8           0       25.023529    5.943627   -1.963031
     44          6           0       25.779037    7.131122   -1.628717
     45          1           0       24.507147    0.958792    4.369763
     46          1           0       25.502386   -4.941014    1.903228
     47          1           0       25.907176   -2.418696   -3.779272
     48          1           0       25.101210    4.301804    1.009281
     49          1           0       23.473439    3.207778    3.213260
     50          1           0       25.445757    4.119214    4.425116
     51          1           0       25.899043    4.499586    2.785917
     52          1           0       26.464938    3.085792    3.483618
     53          1           0       22.119619    3.711340    1.250278
     54          1           0       22.715982    4.337661   -0.129675
     55          1           0       23.563445    6.001116    2.149475
     56          1           0       21.768313    5.445940    2.220470
     57          1           0       25.256385   -1.831762    6.590756
     58          1           0       23.576256   -1.431359    6.288696
     59          1           0       24.847568   -0.292333    6.056299
     60          1           0       23.546648   -4.107682    5.986690
     61          1           0       25.246945   -3.901254    6.514665
     62          1           0       24.444870   -5.595922    6.182013
     63          1           0       25.090005   -5.876278   -0.604363
     64          1           0       26.524601   -4.475317   -2.837519
     65          1           0       27.942761   -5.369641   -1.388239
     66          1           0       27.335768   -6.656181   -0.399603
     67          1           0       27.624806   -5.007129    0.328791
     68          1           0       23.637208   -4.424423   -3.003432
     69          1           0       24.168359   -5.880435   -2.488175
     70          1           0       24.236512   -6.065742   -4.889115
     71          1           0       25.941488   -5.373843   -4.730700
     72          1           0       24.592798   -4.286809   -4.965741
     73          1           0       24.181007    0.160478   -5.836553
     74          1           0       25.725056   -0.817606   -5.500439
     75          1           0       25.877753    0.779035   -5.873123
     76          1           0       23.737285    4.183422   -2.096922
     77          1           0       26.791124    6.940556   -1.270703
     78          1           0       25.214680    7.766153   -0.946376
     79          1           0       25.913334    7.785671   -2.490295
     80         12           0      -25.535140   -0.462497   -0.236617
     81          6           0      -23.174556    2.153962   -0.008560
     82          6           0      -27.752539    1.390958    1.587117
     83          6           0      -27.378342   -3.178668    0.071776
     84          6           0      -22.988160   -2.460987   -1.687403
     85          7           0      -25.478406    1.604004    0.577802
     86          6           0      -24.453324    2.431719    0.530221
     87          6           0      -24.946776    3.821222    0.891032
     88          6           0      -26.207034    3.532128    1.794331
     89          6           0      -26.526001    2.067523    1.313317
     90          6           0      -25.880252    3.742358    3.321670
     91          6           0      -25.387276    4.636698   -0.351716
     92          6           0      -25.429946    6.216497   -0.161141
     93          1           0      -25.092311    6.880524    1.176480
     94          7           0      -27.373767   -0.782405    0.504863
     95          6           0      -28.222708    0.127609    1.185531
     96          6           0      -29.508763   -0.555251    1.459165
     97          6           0      -29.358419   -1.937627    1.080671
     98          6           0      -27.999353   -2.065905    0.511390
     99          6           0      -30.703482    0.125135    2.028230
    100          6           0      -30.331553   -3.178687    1.141523
    101          8           0      -30.062431   -4.295508    0.678588
    102          6           0      -31.604776   -3.045630    1.925702
    103          7           0      -25.182674   -2.584307   -0.639551
    104          6           0      -26.114691   -3.485298   -0.476109
    105          6           0      -25.751686   -4.872964   -0.925246
    106          6           0      -24.306846   -4.663065   -1.500298
    107          6           0      -24.157325   -3.114774   -1.360326
    108          6           0      -25.960525   -5.904519    0.187313
    109          6           0      -24.125879   -5.105288   -2.946961
    110          6           0      -22.775528   -5.825505   -3.300582
    111          7           0      -23.464826   -0.253860   -0.852191
    112          6           0      -22.581528   -1.160095   -1.470962
    113          6           0      -21.398531   -0.462471   -1.841627
    114          6           0      -21.479570    0.788221   -1.150249
    115          6           0      -22.742113    0.882827   -0.621941
    116          6           0      -20.348975   -0.960737   -2.793260
    117          6           0      -20.894495    2.122231   -0.873581
    118          8           0      -19.810831    2.576764   -1.176121
    119          6           0      -21.903890    2.908103    0.091464
    120          6           0      -21.819884    4.380883   -0.142971
    121          8           0      -22.065238    4.957595   -1.161240
    122          8           0      -21.304630    5.049632    0.983146
    123          6           0      -20.526586    6.279484    0.723226
    124          1           0      -28.428760    1.837031    2.319956
    125          1           0      -27.959461   -4.099280   -0.005795
    126          1           0      -22.253581   -3.082825   -2.203459
    127          1           0      -24.053300    4.297190    1.294946
    128          1           0      -27.042025    4.185378    1.538818
    129          1           0      -24.837281    4.030810    3.448113
    130          1           0      -25.931443    2.733409    3.730999
    131          1           0      -26.478336    4.508243    3.815606
    132          1           0      -26.398806    4.283718   -0.556618
    133          1           0      -24.726643    4.352204   -1.170619
    134          1           0      -26.442003    6.497111   -0.456800
    135          1           0      -24.770522    6.604737   -0.937750
    136          1           0      -30.710823    1.211940    2.103105
    137          1           0      -30.899986   -0.175396    3.057008
    138          1           0      -31.506402   -0.152596    1.344924
    139          1           0      -32.440129   -2.644088    1.352271
    140          1           0      -31.250509   -2.388690    2.721024
    141          1           0      -31.813224   -4.037266    2.326396
    142          1           0      -26.465957   -5.037702   -1.731851
    143          1           0      -23.525615   -5.159581   -0.926068
    144          1           0      -25.902089   -5.487595    1.193200
    145          1           0      -25.128985   -6.601048    0.087657
    146          1           0      -26.912887   -6.428359    0.102544
    147          1           0      -24.200698   -4.258341   -3.628795
    148          1           0      -25.042773   -5.651065   -3.169017
    149          1           0      -22.073491   -5.788843   -2.467749
    150          1           0      -22.367638   -5.241905   -4.125629
    151          1           0      -22.804497   -6.862320   -3.637269
    152          1           0      -20.122097   -1.971052   -2.452492
    153          1           0      -19.424930   -0.382311   -2.793946
    154          1           0      -20.768619   -1.047916   -3.795963
    155          1           0      -21.524549    2.845480    1.110903
    156          1           0      -21.070424    7.115825    1.162650
    157          1           0      -20.349509    6.441033   -0.340663
    158          1           0      -19.577744    6.129442    1.238224
 ---------------------------------------------------------------------

 SCF Done:  E(RCAM-B3LYP) =  -4069.81006439     A.U. after   19 cycles

 Excitation energies and oscillator strengths:

 Excited State   1:      Singlet-A      1.7540 eV  706.87 nm  f=0.3776  <S**2>=0.000
     309 -> 316        0.19893
     312 -> 314        0.68126
     309 <- 316        0.11271
 This state for optimization and/or second-order correction.
 Total Energy, E(TD-HF/TD-DFT) =  -4069.74560663
 Copying the excited state density for this state as the 1-particle RhoCI density.

 Excited State   2:      Singlet-A      1.7950 eV  690.74 nm  f=0.3738  <S**2>=0.000
     310 -> 315        0.18900
     311 -> 313        0.68028
     310 <- 315        0.10308

 Excited State   3:      Singlet-A      2.1693 eV  571.54 nm  f=0.0988  <S**2>=0.000
     310 -> 313        0.64307
     311 -> 315       -0.27290

 Excited State   4:      Singlet-A      2.3187 eV  534.71 nm  f=0.0718  <S**2>=0.000
     309 -> 314        0.61703
     312 -> 316       -0.33882

 Excited State   5:      Singlet-A      3.1933 eV  388.26 nm  f=0.0000  <S**2>=0.000
     312 -> 313        0.70710

 The electronic state is 1-A.
 Alpha  occ. eigenvalues --  -46.88545 -46.88493 -19.25154 -19.23272 -19.20311
 Alpha  occ. eigenvalues --  -19.19582 -19.19023 -19.18828 -19.18600 -19.18371
 Alpha  occ. eigenvalues --  -14.41973 -14.41899 -14.41745 -14.41095 -14.39757
 Alpha  occ. eigenvalues --  -14.39749 -14.39591 -14.38009 -10.39131 -10.38554
 Alpha  occ. eigenvalues --  -10.36802 -10.35242 -10.34819 -10.34442 -10.32219
 Alpha  occ. eigenvalues --  -10.31554 -10.31208 -10.30889 -10.30821 -10.30742
 Alpha  occ. eigenvalues --  -10.30640 -10.30616 -10.30599 -10.30552 -10.30467
 Alpha  occ. eigenvalues --  -10.30398 -10.30386 -10.30101 -10.30074 -10.29738
 Alpha  occ. eigenvalues --  -10.29213 -10.29027 -10.28590 -10.28394 -10.28214
 Alpha  occ. eigenvalues --  -10.28193 -10.28111 -10.28096 -10.28004 -10.27985
 Alpha  occ. eigenvalues --  -10.27985 -10.27943 -10.27897 -10.27861 -10.27700
 Alpha  occ. eigenvalues --  -10.27637 -10.27631 -10.27598 -10.27595 -10.27530
 Alpha  occ. eigenvalues --  -10.27393 -10.27319 -10.27214 -10.27072 -10.26958
 Alpha  occ. eigenvalues --  -10.26910 -10.26903 -10.26702 -10.26274 -10.26227
 Alpha  occ. eigenvalues --  -10.26207 -10.26161 -10.26088 -10.26085 -10.25983
 Alpha  occ. eigenvalues --  -10.25978 -10.25927 -10.25912 -10.25879 -10.25869
 Alpha  occ. eigenvalues --  -10.25758 -10.25687 -10.25623 -10.25453 -10.24597
 Alpha  occ. eigenvalues --  -10.24430  -3.17098  -3.17005  -1.92007  -1.91918
 Alpha  occ. eigenvalues --   -1.91545  -1.91462  -1.91411  -1.91302  -1.16102
 Alpha  occ. eigenvalues --   -1.15207  -1.10489  -1.09548  -1.09465  -1.09055
 Alpha  occ. eigenvalues --   -1.07004  -1.05949  -1.05759  -1.05112  -1.04571
 Alpha  occ. eigenvalues --   -1.04525  -1.03068  -1.02174  -1.01699  -1.00975
 Alpha  occ. eigenvalues --   -0.93155  -0.91822  -0.90085  -0.89307  -0.89288
 Alpha  occ. eigenvalues --   -0.88907  -0.88469  -0.87751  -0.87600  -0.87581
 Alpha  occ. eigenvalues --   -0.87241  -0.87073  -0.86616  -0.85446  -0.84665
 Alpha  occ. eigenvalues --   -0.84058  -0.83988  -0.83694  -0.82925  -0.82872
 Alpha  occ. eigenvalues --   -0.82598  -0.81702  -0.81234  -0.80870  -0.80679
 Alpha  occ. eigenvalues --   -0.79871  -0.78660  -0.78605  -0.77711  -0.77433
 Alpha  occ. eigenvalues --   -0.77195  -0.76565  -0.76384  -0.75405  -0.75238
 Alpha  occ. eigenvalues --   -0.75155  -0.72981  -0.72513  -0.71946  -0.71702
 Alpha  occ. eigenvalues --   -0.69833  -0.69536  -0.69254  -0.68627  -0.68075
 Alpha  occ. eigenvalues --   -0.67258  -0.66636  -0.66523  -0.66413  -0.66049
 Alpha  occ. eigenvalues --   -0.65401  -0.65199  -0.65099  -0.64550  -0.64530
 Alpha  occ. eigenvalues --   -0.63470  -0.62533  -0.61054  -0.60401  -0.60209
 Alpha  occ. eigenvalues --   -0.59895  -0.59480  -0.59108  -0.58768  -0.58607
 Alpha  occ. eigenvalues --   -0.58385  -0.58061  -0.57603  -0.57547  -0.56836
 Alpha  occ. eigenvalues --   -0.56462  -0.56458  -0.55741  -0.55509  -0.55442
 Alpha  occ. eigenvalues --   -0.55086  -0.54429  -0.54272  -0.54021  -0.53884
 Alpha  occ. eigenvalues --   -0.53685  -0.53480  -0.53206  -0.53159  -0.53123
 Alpha  occ. eigenvalues --   -0.52958  -0.52829  -0.52184  -0.52025  -0.51963
 Alpha  occ. eigenvalues --   -0.51871  -0.51737  -0.51678  -0.51369  -0.51205
 Alpha  occ. eigenvalues --   -0.51200  -0.50914  -0.50780  -0.50514  -0.50478
 Alpha  occ. eigenvalues --   -0.50284  -0.50181  -0.50037  -0.49921  -0.49642
 Alpha  occ. eigenvalues --   -0.49287  -0.49069  -0.48945  -0.48657  -0.48631
 Alpha  occ. eigenvalues --   -0.48372  -0.48338  -0.48334  -0.48030  -0.47950
 Alpha  occ. eigenvalues --   -0.47843  -0.47792  -0.47526  -0.47354  -0.47322
 Alpha  occ. eigenvalues --   -0.47224  -0.47026  -0.46996  -0.46564  -0.46531
 Alpha  occ. eigenvalues --   -0.46498  -0.46220  -0.46157  -0.46033  -0.45566
 Alpha  occ. eigenvalues --   -0.45563  -0.45453  -0.45130  -0.45048  -0.45044
 Alpha  occ. eigenvalues --   -0.44883  -0.44517  -0.44258  -0.43952  -0.43948
 Alpha  occ. eigenvalues --   -0.43850  -0.43726  -0.43698  -0.43410  -0.43333
 Alpha  occ. eigenvalues --   -0.43141  -0.43080  -0.42743  -0.42606  -0.42489
 Alpha  occ. eigenvalues --   -0.42424  -0.42261  -0.42032  -0.42018  -0.41742
 Alpha  occ. eigenvalues --   -0.41695  -0.41671  -0.41558  -0.41554  -0.41361
 Alpha  occ. eigenvalues --   -0.41226  -0.41154  -0.41058  -0.40982  -0.40859
 Alpha  occ. eigenvalues --   -0.40142  -0.40111  -0.40006  -0.39925  -0.39064
 Alpha  occ. eigenvalues --   -0.38805  -0.38791  -0.37902  -0.37729  -0.37565
 Alpha  occ. eigenvalues --   -0.37032  -0.36383  -0.36055  -0.35993  -0.35760
 Alpha  occ. eigenvalues --   -0.35632  -0.35410  -0.34178  -0.33804  -0.33801
 Alpha  occ. eigenvalues --   -0.33524  -0.33105  -0.32998  -0.31907  -0.31556
 Alpha  occ. eigenvalues --   -0.31195  -0.31037  -0.30579  -0.30530  -0.30482
 Alpha  occ. eigenvalues --   -0.30252  -0.29928  -0.28306  -0.24064  -0.23732
 Alpha  occ. eigenvalues --   -0.21334  -0.20902
 Alpha virt. eigenvalues --   -0.08494  -0.08139  -0.02031  -0.01783  -0.00130
 Alpha virt. eigenvalues --    0.00758   0.02529   0.02713   0.03002   0.03029
 Alpha virt. eigenvalues --    0.04568   0.04816   0.05531   0.05761   0.06138

 Mulliken charges:
               1
     1  Mg   0.834418
     2  C    0.024637
     3  C   -0.055717
     4  C   -0.051631
     5  C   -0.106215
     6  N   -0.264133
     7  C   -0.113519
     8  C    0.060314
     9  C   -0.062116
    10  C    0.034810
    11  C    0.055109
    12  C    0.051956
    13  C   -0.062183
    14  H    0.017801
    15  N   -0.433203
    16  C    0.175009
    17  C   -0.115169
    18  C   -0.045480
    19  C    0.143472
    20  C    0.083566
    21  C    0.007301
    22  O   -0.223216
    23  C    0.070555
    24  N   -0.254212
    25  C   -0.037002
    26  C   -0.004005
    27  C   -0.057322
    28  C    0.011902
    29  C    0.079541
    30  C    0.047609
    31  C    0.022754
    32  N   -0.327814
    33  C    0.125496
    34  C   -0.201391
    35  C    0.044244
    36  C    0.113390
    37  C    0.151098
    38  C   -0.008631
    39  O   -0.172821
    40  C    0.036428
    41  C    0.195466
    42  O   -0.253683
    43  O   -0.318306
    44  C    0.171988
    45  H   -0.038313
    46  H    0.004185
    47  H   -0.019204
    48  H    0.008456
    49  H    0.010568
    50  H    0.018370
    51  H   -0.002279
    52  H    0.013793
    53  H   -0.010865
    54  H    0.002168
    55  H    0.034883
    56  H    0.034215
    57  H    0.018560
    58  H    0.030375
    59  H    0.016777
    60  H    0.031171
    61  H    0.040915
    62  H    0.035912
    63  H    0.017076
    64  H    0.006246
    65  H    0.011844
    66  H    0.025602
    67  H    0.033356
    68  H   -0.002008
    69  H   -0.015555
    70  H    0.028556
    71  H    0.017456
    72  H    0.021565
    73  H    0.054909
    74  H   -0.004399
    75  H    0.025633
    76  H    0.050990
    77  H    0.049979
    78  H    0.029572
    79  H    0.028398
    80  Mg   0.811721
    81  C    0.065945
    82  C   -0.080724
    83  C   -0.049841
    84  C   -0.080325
    85  N   -0.243685
    86  C   -0.044134
    87  C   -0.078541
    88  C   -0.052579
    89  C    0.070643
    90  C    0.081535
    91  C    0.031102
    92  C   -0.039719
    93  H    0.027220
    94  N   -0.472424
    95  C    0.156181
    96  C   -0.129846
    97  C   -0.044020
    98  C    0.185483
    99  C    0.083031
   100  C    0.032489
   101  O   -0.206808
   102  C    0.049070
   103  N   -0.232701
   104  C   -0.065516
   105  C    0.007707
   106  C   -0.051196
   107  C    0.034424
   108  C    0.080390
   109  C    0.038146
   110  C   -0.000207
   111  N   -0.356289
   112  C    0.124442
   113  C   -0.178852
   114  C    0.006947
   115  C    0.040646
   116  C    0.124960
   117  C    0.058958
   118  O   -0.165420
   119  C   -0.025047
   120  C    0.157010
   121  O   -0.178224
   122  O   -0.379228
   123  C    0.174379
   124  H   -0.025466
   125  H   -0.012905
   126  H   -0.046858
   127  H    0.010043
   128  H    0.010006
   129  H    0.016353
   130  H    0.011414
   131  H    0.026200
   132  H    0.000550
   133  H    0.030974
   134  H    0.019283
   135  H    0.041701
   136  H    0.019253
   137  H    0.042655
   138  H    0.038269
   139  H    0.056934
   140  H    0.022335
   141  H    0.039038
   142  H    0.015476
   143  H    0.015274
   144  H    0.024416
   145  H    0.009844
   146  H    0.034416
   147  H    0.006802
   148  H   -0.002331
   149  H    0.016782
   150  H    0.017338
   151  H    0.022486
   152  H    0.015594
   153  H    0.033856
   154  H    0.028250
   155  H    0.049788
   156  H    0.034579
   157  H    0.052977
   158  H    0.037571
 Sum of Mulliken charges =  -0.00000

 Dipole moment (field-independent basis, Debye):
    X=             -7.5174    Y=             -2.6558    Z=              5.8573  Tot=              9.8931
 Quadrupole moment (field-independent basis, Debye-Ang):
   XX=           -388.1793   YY=           -501.0719   ZZ=           -497.8454
   XY=             -5.4484   XZ=             25.9405   YZ=             51.9156

 Normal termination of Gaussian 16 at Wed Sep 15 23:44:47 2021.
