 Gaussian 16, Revision A.03,
 Gaussian 16:  ES64L-G16RevA.03 25-Dec-2016

 ----------------------------------------------------------
 #p cam-b3lyp/Def2SVP td=(nstates=5) density=(transition=1)
 ----------------------------------------------------------

 --------------------------------
 TDDFT excited states in gaussian
 --------------------------------
 Symbolic Z-matrix:
 Charge =  0 Multiplicity = 1

                         Standard orientation:
 ---------------------------------------------------------------------
 Center     Atomic      Atomic             Coordinates (Angstroms)
 Number     Number       Type             X           Y           Z
 ---------------------------------------------------------------------
      1         12           0      -24.944603   -0.680993   -0.325104
      2          6           0      -25.175692    2.330956    1.390894
      3          6           0      -24.156210    1.208459   -3.124761
      4          6           0      -25.212003   -3.547508   -2.135583
      5          6           0      -25.914247   -2.353748    2.541527
      6          7           0      -24.750549    1.526178   -0.814959
      7          6           0      -24.851609    2.599530    0.057002
      8          6           0      -24.697858    4.006601   -0.643272
      9          6           0      -24.694955    3.554744   -2.155057
     10          6           0      -24.562933    1.990384   -2.054101
     11          6           0      -25.862550    3.897961   -3.084803
     12          6           0      -23.435334    4.733292   -0.144691
     13          6           0      -23.638240    5.911173    0.771596
     14          1           0      -22.674665    7.098649    0.598423
     15          7           0      -24.538514   -1.187791   -2.294083
     16          6           0      -24.161770   -0.264223   -3.218617
     17          6           0      -23.999418   -1.014361   -4.479302
     18          6           0      -24.385878   -2.346649   -4.265189
     19          6           0      -24.718168   -2.441788   -2.896842
     20          6           0      -23.393727   -0.381459   -5.665877
     21          6           0      -24.490977   -3.490617   -5.230710
     22          8           0      -24.748927   -4.675574   -4.880067
     23          6           0      -24.344259   -3.355792   -6.645900
     24          7           0      -25.393567   -2.630655    0.135441
     25          6           0      -25.414972   -3.650013   -0.766222
     26          6           0      -25.790824   -4.952974   -0.178274
     27          6           0      -25.963409   -4.606382    1.344196
     28          6           0      -25.809501   -3.132068    1.321244
     29          6           0      -26.983255   -5.810653   -0.695017
     30          6           0      -25.006763   -5.418557    2.349997
     31          6           0      -23.547777   -4.980868    2.675457
     32          7           0      -25.489670   -0.192159    1.573376
     33          6           0      -25.821691   -0.972511    2.643213
     34          6           0      -25.882354   -0.197328    3.804514
     35          6           0      -25.713319    1.150631    3.303303
     36          6           0      -25.451276    1.081179    1.949531
     37          6           0      -26.071838   -0.672455    5.243883
     38          6           0      -25.572656    2.503114    3.761007
     39          8           0      -25.541108    3.035386    4.851894
     40          6           0      -25.442643    3.363475    2.455441
     41          6           0      -26.692511    4.113922    2.222375
     42          8           0      -27.501693    3.937575    1.285157
     43          8           0      -26.960806    5.057356    3.151360
     44          6           0      -28.065411    6.046947    2.908756
     45          1           0      -23.971916    1.812225   -4.015090
     46          1           0      -25.350487   -4.491987   -2.666253
     47          1           0      -26.052362   -2.822612    3.518535
     48          1           0      -25.629841    4.572777   -0.636180
     49          1           0      -23.771125    3.953224   -2.574291
     50          1           0      -26.420596    2.995733   -3.336267
     51          1           0      -25.416103    4.170365   -4.040005
     52          1           0      -26.546869    4.663776   -2.718022
     53          1           0      -22.967790    5.134402   -1.044686
     54          1           0      -22.755561    3.987393    0.267185
     55          1           0      -23.531194    5.549681    1.794660
     56          1           0      -24.636975    6.347920    0.762774
     57          1           0      -22.482780   -0.950005   -5.848544
     58          1           0      -23.145520    0.680470   -5.644199
     59          1           0      -24.054186   -0.508974   -6.523531
     60          1           0      -24.919652   -2.468525   -6.908752
     61          1           0      -24.542548   -4.301894   -7.147904
     62          1           0      -23.329565   -3.056800   -6.908892
     63          1           0      -24.863224   -5.495459   -0.358595
     64          1           0      -26.995731   -4.790087    1.639627
     65          1           0      -26.650818   -6.750445   -1.135990
     66          1           0      -27.527735   -5.292770   -1.485325
     67          1           0      -27.736712   -6.008980    0.067178
     68          1           0      -24.917655   -6.381180    1.846041
     69          1           0      -25.658181   -5.496532    3.220573
     70          1           0      -23.260115   -3.998412    2.302009
     71          1           0      -22.771269   -5.722103    2.484369
     72          1           0      -23.532051   -4.949550    3.764104
     73          1           0      -26.934245   -0.202510    5.717807
     74          1           0      -25.203263   -0.342703    5.813687
     75          1           0      -26.103958   -1.755719    5.363477
     76          1           0      -24.721104    4.154509    2.660483
     77          1           0      -27.774967    6.756614    3.683554
     78          1           0      -29.073740    5.655499    3.039380
     79          1           0      -27.983113    6.448879    1.898440
     80         12           0       24.959168   -0.668693    0.333506
     81          6           0       25.549414    2.005800   -1.754703
     82          6           0       23.831941    1.646687    2.810734
     83          6           0       24.708751   -3.117036    2.502741
     84          6           0       26.226194   -2.869766   -2.056779
     85          7           0       24.743106    1.558150    0.423409
     86          6           0       25.011988    2.431049   -0.551951
     87          6           0       24.582951    3.860012   -0.084337
     88          6           0       24.165881    3.682713    1.447285
     89          6           0       24.302797    2.156383    1.608505
     90          6           0       25.084637    4.295069    2.487020
     91          6           0       23.523080    4.536311   -0.966918
     92          6           0       23.951398    5.936330   -1.373347
     93          1           0       22.912945    7.018375   -1.703365
     94          7           0       24.276493   -0.718026    2.346937
     95          6           0       23.820438    0.277686    3.161873
     96          6           0       23.401323   -0.201846    4.402559
     97          6           0       23.750599   -1.597205    4.420252
     98          6           0       24.265777   -1.883133    3.036637
     99          6           0       22.775079    0.664643    5.485559
    100          6           0       23.676834   -2.587156    5.571297
    101          8           0       24.191881   -3.711966    5.420041
    102          6           0       23.125710   -2.215876    6.887261
    103          7           0       25.375151   -2.654520    0.193977
    104          6           0       25.135403   -3.542243    1.222689
    105          6           0       25.533712   -5.032061    0.908381
    106          6           0       25.745653   -4.913386   -0.661230
    107          6           0       25.808342   -3.388565   -0.864975
    108          6           0       26.766435   -5.723768    1.613621
    109          6           0       24.784143   -5.745593   -1.625741
    110          6           0       23.407522   -5.168726   -1.825357
    111          7           0       25.850139   -0.530068   -1.441580
    112          6           0       26.330510   -1.469455   -2.334010
    113          6           0       26.817250   -0.883600   -3.515466
    114          6           0       26.488522    0.463842   -3.327469
    115          6           0       25.891445    0.655915   -2.047510
    116          6           0       27.347548   -1.684159   -4.627598
    117          6           0       26.682677    1.706497   -3.969780
    118          8           0       27.294264    1.925886   -5.017279
    119          6           0       26.049330    2.825913   -2.989597
    120          6           0       27.073060    3.801810   -2.659716
    121          8           0       28.000188    3.651371   -1.897222
    122          8           0       26.932054    4.889838   -3.406796
    123          6           0       27.917794    5.924709   -3.322135
    124          1           0       23.538457    2.365313    3.578227
    125          1           0       24.683269   -4.024667    3.108848
    126          1           0       26.617052   -3.592903   -2.775704
    127          1           0       25.544951    4.369622   -0.128374
    128          1           0       23.224116    4.222896    1.550411
    129          1           0       25.896931    4.895852    2.076851
    130          1           0       25.581233    3.511204    3.058271
    131          1           0       24.493300    4.806306    3.247264
    132          1           0       22.525342    4.587858   -0.530722
    133          1           0       23.389094    3.915279   -1.852308
    134          1           0       24.475836    5.821694   -2.322683
    135          1           0       24.587872    6.299445   -0.566629
    136          1           0       22.497122    1.647469    5.104772
    137          1           0       23.535101    0.893404    6.232967
    138          1           0       21.982037    0.129739    6.006778
    139          1           0       23.491122   -2.888165    7.664355
    140          1           0       22.047020   -2.365160    6.830655
    141          1           0       23.399717   -1.191343    7.137797
    142          1           0       24.682434   -5.710543    0.972467
    143          1           0       26.699318   -5.374646   -0.914824
    144          1           0       27.199147   -5.001808    2.305054
    145          1           0       27.577320   -5.817424    0.890174
    146          1           0       26.608342   -6.680820    2.111614
    147          1           0       24.620569   -6.702095   -1.129906
    148          1           0       25.229262   -5.997598   -2.587514
    149          1           0       23.094214   -5.445158   -2.831492
    150          1           0       23.213169   -4.108716   -1.666808
    151          1           0       22.767120   -5.642344   -1.081249
    152          1           0       26.948571   -2.685299   -4.788826
    153          1           0       28.431038   -1.689209   -4.740167
    154          1           0       27.052187   -1.069853   -5.477801
    155          1           0       25.237110    3.314750   -3.527245
    156          1           0       27.684238    6.657896   -2.549284
    157          1           0       27.889539    6.464000   -4.268775
    158          1           0       28.893136    5.490028   -3.102838
 ---------------------------------------------------------------------

 SCF Done:  E(RCAM-B3LYP) =  -4069.83079895     A.U. after   16 cycles

 Excitation energies and oscillator strengths:

 Excited State   1:      Singlet-A      1.7035 eV  727.84 nm  f=0.3339  <S**2>=0.000
     310 -> 316        0.17679
     312 -> 314        0.68307
     310 <- 316        0.10727
 This state for optimization and/or second-order correction.
 Total Energy, E(TD-HF/TD-DFT) =  -4069.76819796
 Copying the excited state density for this state as the 1-particle RhoCI density.

 Excited State   2:      Singlet-A      1.7068 eV  726.42 nm  f=0.4681  <S**2>=0.000
     309 -> 315        0.17221
     311 -> 313        0.68506
     309 <- 315        0.10511

 Excited State   3:      Singlet-A      2.2075 eV  561.65 nm  f=0.1397  <S**2>=0.000
     310 -> 314        0.65094
     312 -> 316       -0.26118

 Excited State   4:      Singlet-A      2.2215 eV  558.10 nm  f=0.1614  <S**2>=0.000
     309 -> 313        0.65326
     311 -> 315       -0.25408

 Excited State   5:      Singlet-A      3.0837 eV  402.06 nm  f=0.0000  <S**2>=0.000
     312 -> 313        0.70711

 The electronic state is 1-A.
 Alpha  occ. eigenvalues --  -46.87694 -46.87545 -19.24836 -19.24079 -19.18633
 Alpha  occ. eigenvalues --  -19.18600 -19.18275 -19.18250 -19.18240 -19.17966
 Alpha  occ. eigenvalues --  -14.42307 -14.42175 -14.42017 -14.41876 -14.39722
 Alpha  occ. eigenvalues --  -14.39547 -14.38972 -14.38374 -10.38554 -10.38311
 Alpha  occ. eigenvalues --  -10.34877 -10.34532 -10.34519 -10.34194 -10.32029
 Alpha  occ. eigenvalues --  -10.31511 -10.31227 -10.31195 -10.31166 -10.30973
 Alpha  occ. eigenvalues --  -10.30819 -10.30746 -10.30608 -10.30482 -10.30164
 Alpha  occ. eigenvalues --  -10.30138 -10.30039 -10.29393 -10.29062 -10.28996
 Alpha  occ. eigenvalues --  -10.28921 -10.28571 -10.28563 -10.28533 -10.28380
 Alpha  occ. eigenvalues --  -10.28308 -10.28291 -10.28284 -10.28276 -10.28163
 Alpha  occ. eigenvalues --  -10.27970 -10.27853 -10.27746 -10.27708 -10.27678
 Alpha  occ. eigenvalues --  -10.27671 -10.27596 -10.27507 -10.27392 -10.27303
 Alpha  occ. eigenvalues --  -10.27271 -10.27267 -10.27198 -10.27158 -10.27106
 Alpha  occ. eigenvalues --  -10.26922 -10.26896 -10.26808 -10.26763 -10.26711
 Alpha  occ. eigenvalues --  -10.26612 -10.26330 -10.26314 -10.26284 -10.26194
 Alpha  occ. eigenvalues --  -10.26174 -10.26014 -10.25927 -10.25904 -10.25755
 Alpha  occ. eigenvalues --  -10.25735 -10.25681 -10.25569 -10.24989 -10.24647
 Alpha  occ. eigenvalues --  -10.24625  -3.16479  -3.16260  -1.91377  -1.91170
 Alpha  occ. eigenvalues --   -1.90950  -1.90783  -1.90719  -1.90564  -1.17941
 Alpha  occ. eigenvalues --   -1.15149  -1.09541  -1.08862  -1.08511  -1.07964
 Alpha  occ. eigenvalues --   -1.07806  -1.05145  -1.04854  -1.04602  -1.04100
 Alpha  occ. eigenvalues --   -1.03710  -1.03340  -1.03253  -1.02556  -1.02242
 Alpha  occ. eigenvalues --   -0.93096  -0.92097  -0.89374  -0.89050  -0.88782
 Alpha  occ. eigenvalues --   -0.88462  -0.88354  -0.88312  -0.87660  -0.87590
 Alpha  occ. eigenvalues --   -0.87526  -0.87022  -0.86794  -0.86112  -0.84602
 Alpha  occ. eigenvalues --   -0.84393  -0.83873  -0.83659  -0.82960  -0.82821
 Alpha  occ. eigenvalues --   -0.82476  -0.82407  -0.81190  -0.81001  -0.80604
 Alpha  occ. eigenvalues --   -0.80559  -0.78569  -0.78349  -0.77523  -0.77341
 Alpha  occ. eigenvalues --   -0.76903  -0.76882  -0.76223  -0.75990  -0.75309
 Alpha  occ. eigenvalues --   -0.75292  -0.73459  -0.73126  -0.71461  -0.71348
 Alpha  occ. eigenvalues --   -0.70119  -0.69661  -0.68847  -0.68788  -0.68016
 Alpha  occ. eigenvalues --   -0.67804  -0.67155  -0.67113  -0.65402  -0.65213
 Alpha  occ. eigenvalues --   -0.65101  -0.64928  -0.64624  -0.64615  -0.64393
 Alpha  occ. eigenvalues --   -0.64379  -0.62352  -0.61505  -0.60436  -0.60011
 Alpha  occ. eigenvalues --   -0.59974  -0.59658  -0.59162  -0.59003  -0.58607
 Alpha  occ. eigenvalues --   -0.58521  -0.58359  -0.57809  -0.57691  -0.57318
 Alpha  occ. eigenvalues --   -0.56535  -0.56213  -0.56182  -0.55650  -0.55101
 Alpha  occ. eigenvalues --   -0.54909  -0.54682  -0.54456  -0.54369  -0.53842
 Alpha  occ. eigenvalues --   -0.53543  -0.53260  -0.53175  -0.52924  -0.52784
 Alpha  occ. eigenvalues --   -0.52541  -0.52514  -0.52452  -0.52362  -0.52140
 Alpha  occ. eigenvalues --   -0.52088  -0.51899  -0.51731  -0.51337  -0.51084
 Alpha  occ. eigenvalues --   -0.50851  -0.50365  -0.50308  -0.50305  -0.50178
 Alpha  occ. eigenvalues --   -0.49969  -0.49775  -0.49675  -0.49651  -0.49480
 Alpha  occ. eigenvalues --   -0.49439  -0.49267  -0.49152  -0.48971  -0.48954
 Alpha  occ. eigenvalues --   -0.48819  -0.48491  -0.48404  -0.48200  -0.48154
 Alpha  occ. eigenvalues --   -0.47942  -0.47783  -0.47779  -0.47339  -0.47241
 Alpha  occ. eigenvalues --   -0.46888  -0.46767  -0.46510  -0.46509  -0.46386
 Alpha  occ. eigenvalues --   -0.46263  -0.46033  -0.46004  -0.45719  -0.45548
 Alpha  occ. eigenvalues --   -0.45433  -0.45415  -0.45278  -0.45185  -0.45160
 Alpha  occ. eigenvalues --   -0.44936  -0.44816  -0.44597  -0.44384  -0.44262
 Alpha  occ. eigenvalues --   -0.43994  -0.43907  -0.43831  -0.43806  -0.43642
 Alpha  occ. eigenvalues --   -0.43502  -0.43429  -0.43249  -0.42906  -0.42773
 Alpha  occ. eigenvalues --   -0.42687  -0.42536  -0.42468  -0.42005  -0.41614
 Alpha  occ. eigenvalues --   -0.41596  -0.41519  -0.41495  -0.41329  -0.41139
 Alpha  occ. eigenvalues --   -0.41121  -0.40997  -0.40806  -0.40494  -0.40346
 Alpha  occ. eigenvalues --   -0.39993  -0.39717  -0.39208  -0.38938  -0.38894
 Alpha  occ. eigenvalues --   -0.38217  -0.38208  -0.37832  -0.37747  -0.37200
 Alpha  occ. eigenvalues --   -0.36925  -0.36545  -0.36517  -0.36402  -0.36365
 Alpha  occ. eigenvalues --   -0.36192  -0.35616  -0.34320  -0.34244  -0.33892
 Alpha  occ. eigenvalues --   -0.33202  -0.33142  -0.32894  -0.31457  -0.31007
 Alpha  occ. eigenvalues --   -0.30793  -0.30627  -0.30543  -0.30071  -0.30047
 Alpha  occ. eigenvalues --   -0.29908  -0.29776  -0.29332  -0.24134  -0.23654
 Alpha  occ. eigenvalues --   -0.21490  -0.21123
 Alpha virt. eigenvalues --   -0.09109  -0.08703  -0.01438  -0.01321   0.00476
 Alpha virt. eigenvalues --    0.00672   0.02349   0.02469   0.03153   0.03553
 Alpha virt. eigenvalues --    0.05032   0.05628   0.05629   0.05658   0.05761

 Mulliken charges:
               1
     1  Mg  12.000071
     2  C    5.977468
     3  C    6.020486
     4  C    6.024853
     5  C    5.997376
     6  N    6.995233
     7  C    6.029194
     8  C    5.987464
     9  C    6.006163
    10  C    5.972046
    11  C    6.002251
    12  C    5.995250
    13  C    5.998221
    14  H    1.007102
    15  N    7.008925
    16  C    5.952110
    17  C    5.969878
    18  C    5.993755
    19  C    5.958659
    20  C    6.008155
    21  C    5.987619
    22  O    7.974312
    23  C    6.004948
    24  N    7.009600
    25  C    5.956941
    26  C    6.016790
    27  C    5.985411
    28  C    6.034627
    29  C    5.998795
    30  C    5.995463
    31  C    5.998258
    32  N    6.993467
    33  C    6.031594
    34  C    6.028938
    35  C    6.006227
    36  C    6.031997
    37  C    5.996219
    38  C    6.013347
    39  O    8.029547
    40  C    6.005260
    41  C    6.000756
    42  O    8.009902
    43  O    7.998247
    44  C    5.997592
    45  H    0.989871
    46  H    0.992036
    47  H    1.013397
    48  H    1.004705
    49  H    0.998900
    50  H    1.004113
    51  H    1.000834
    52  H    0.986996
    53  H    1.009953
    54  H    1.000461
    55  H    0.994431
    56  H    0.999781
    57  H    0.977317
    58  H    0.977543
    59  H    0.976248
    60  H    0.996567
    61  H    0.985441
    62  H    0.993105
    63  H    0.999856
    64  H    1.000627
    65  H    0.999803
    66  H    1.002815
    67  H    0.988746
    68  H    1.013238
    69  H    0.998474
    70  H    0.999020
    71  H    1.009182
    72  H    0.998229
    73  H    1.019797
    74  H    1.019007
    75  H    1.018132
    76  H    1.008613
    77  H    1.003058
    78  H    1.002861
    79  H    1.006324
    80  Mg  12.000206
    81  C    5.998645
    82  C    6.001451
    83  C    6.001832
    84  C    5.999154
    85  N    6.999602
    86  C    6.002018
    87  C    5.999437
    88  C    6.001194
    89  C    5.997673
    90  C    6.000246
    91  C    5.999907
    92  C    5.999895
    93  H    1.000376
    94  N    7.000646
    95  C    5.996887
    96  C    5.998813
    97  C    5.998687
    98  C    5.997138
    99  C    6.000265
   100  C    5.999038
   101  O    7.997766
   102  C    6.000448
   103  N    7.000012
   104  C    5.997094
   105  C    6.001180
   106  C    5.999214
   107  C    6.002062
   108  C    5.999975
   109  C    5.999611
   110  C    5.999771
   111  N    6.999682
   112  C    6.002941
   113  C    6.001881
   114  C    6.000261
   115  C    6.002674
   116  C    5.999606
   117  C    6.001135
   118  O    8.002354
   119  C    6.000317
   120  C    6.000284
   121  O    8.000508
   122  O    8.000090
   123  C    5.999767
   124  H    0.999323
   125  H    0.999606
   126  H    1.000804
   127  H    0.999839
   128  H    0.999394
   129  H    0.998926
   130  H    1.000268
   131  H    0.999831
   132  H    1.000658
   133  H    0.999507
   134  H    0.999563
   135  H    1.000346
   136  H    0.998684
   137  H    0.998582
   138  H    0.998832
   139  H    0.998867
   140  H    0.999184
   141  H    0.999588
   142  H    0.999707
   143  H    1.000157
   144  H    1.000239
   145  H    0.999135
   146  H    0.999891
   147  H    1.000795
   148  H    0.999849
   149  H    0.999995
   150  H    0.999972
   151  H    1.000799
   152  H    1.001522
   153  H    1.001692
   154  H    1.001081
   155  H    1.000688
   156  H    1.000552
   157  H    1.000267
   158  H    1.000116
 Sum of Mulliken charges = 624.00000

 Dipole moment (field-independent basis, Debye):
    X=             -1.7276    Y=              2.6477    Z=              9.6631  Tot=             10.1671
 Quadrupole moment (field-independent basis, Debye-Ang):
   XX=            114.2417   YY=              0.8352   ZZ=            -10.4324
   XY=            -62.3863   XZ=           -277.9701   YZ=             -7.6319

 Normal termination of Gaussian 16 at Wed Sep 22 00:28:31 2021.
