 Gaussian 16, Revision A.03,
 Gaussian 16:  ES64L-G16RevA.03 25-Dec-2016

 -----------------------------------
 #p cam-b3lyp/Def2SVP td=(nstates=5)
 -----------------------------------

 --------------------------------
 TDDFT excited states in gaussian
 --------------------------------
 Symbolic Z-matrix:
 Charge =  0 Multiplicity = 1

                         Standard orientation:
 ---------------------------------------------------------------------
 Center     Atomic      Atomic             Coordinates (Angstroms)
 Number     Number       Type             X           Y           Z
 ---------------------------------------------------------------------
      1         12           0       24.992695    0.044312    0.065364
      2          6           0       21.737082   -1.053700   -0.602938
      3          6           0       24.983967    1.302010   -3.156249
      4          6           0       27.957109    1.433120    0.717642
      5          6           0       24.466201   -0.537227    3.471976
      6          7           0       23.317789    0.260657   -1.676992
      7          6           0       22.135050   -0.381795   -1.724527
      8          6           0       21.384528   -0.170813   -3.017519
      9          6           0       22.617730    0.329840   -3.861966
     10          6           0       23.719215    0.717047   -2.880570
     11          6           0       23.144613   -0.819296   -4.762341
     12          6           0       20.166136    0.738685   -2.814266
     13          6           0       20.269124    1.962561   -1.880455
     14          1           0       19.752684    3.279397   -2.448008
     15          7           0       26.282839    1.180962   -1.042927
     16          6           0       26.135695    1.474483   -2.372706
     17          6           0       27.445308    1.843912   -2.925481
     18          6           0       28.327985    2.052269   -1.791317
     19          6           0       27.520883    1.529580   -0.646847
     20          6           0       27.643177    2.296850   -4.422610
     21          6           0       29.733227    2.658568   -1.819038
     22          8           0       30.275380    2.896126   -2.862299
     23          6           0       30.465044    2.917717   -0.533830
     24          7           0       25.953270    0.580305    1.940346
     25          6           0       27.273537    1.066386    1.971389
     26          6           0       27.857085    1.180456    3.443038
     27          6           0       26.701476    0.465608    4.292835
     28          6           0       25.637133    0.099420    3.159694
     29          6           0       29.335388    0.637198    3.776656
     30          6           0       26.075739    1.279523    5.515529
     31          6           0       25.660903    0.281248    6.706060
     32          7           0       23.456417   -0.706160    1.267069
     33          6           0       23.428859   -0.965060    2.622357
     34          6           0       22.181035   -1.641815    2.954337
     35          6           0       21.464878   -1.786800    1.738174
     36          6           0       22.260285   -1.121199    0.736953
     37          6           0       21.812480   -2.242703    4.285495
     38          6           0       20.207660   -2.214923    1.042518
     39          8           0       19.176087   -2.659446    1.494576
     40          6           0       20.409068   -1.791764   -0.474477
     41          6           0       20.368216   -3.059739   -1.282334
     42          8           0       19.311734   -3.677099   -1.567841
     43          8           0       21.635542   -3.340376   -1.772123
     44          6           0       21.701635   -4.383259   -2.740648
     45          1           0       25.018995    1.618887   -4.200753
     46          1           0       28.980940    1.668564    1.016381
     47          1           0       24.401122   -0.892442    4.502654
     48          1           0       21.090248   -1.116449   -3.472401
     49          1           0       22.471767    1.185215   -4.520216
     50          1           0       24.223099   -0.673680   -4.828332
     51          1           0       22.610382   -0.837787   -5.711215
     52          1           0       23.125376   -1.842083   -4.384683
     53          1           0       19.413258    0.114389   -2.334077
     54          1           0       19.815920    1.058013   -3.795910
     55          1           0       21.318757    2.140419   -1.647801
     56          1           0       19.665555    1.763229   -0.995444
     57          1           0       27.316473    3.313024   -4.645087
     58          1           0       27.123670    1.603458   -5.084073
     59          1           0       28.654947    2.214344   -4.817948
     60          1           0       31.380724    3.488000   -0.693432
     61          1           0       30.724576    2.005572    0.003883
     62          1           0       29.784390    3.602100   -0.026745
     63          1           0       27.822175    2.262702    3.562256
     64          1           0       27.045115   -0.487055    4.694849
     65          1           0       30.023464    1.466673    3.617700
     66          1           0       29.600947   -0.211764    3.147308
     67          1           0       29.349471    0.292352    4.810775
     68          1           0       25.120948    1.727257    5.240065
     69          1           0       26.748590    2.071119    5.846225
     70          1           0       24.589238    0.328544    6.899871
     71          1           0       26.189143    0.564621    7.615954
     72          1           0       25.776090   -0.792301    6.560669
     73          1           0       21.827864   -1.451836    5.034660
     74          1           0       22.548714   -2.997777    4.561871
     75          1           0       20.805922   -2.660634    4.288010
     76          1           0       19.492506   -1.254924   -0.718040
     77          1           0       22.719227   -4.451699   -3.124573
     78          1           0       20.927109   -4.267986   -3.499082
     79          1           0       21.577154   -5.368131   -2.290580
     80         12           0      -24.886474    0.583624    0.451645
     81          6           0      -21.930477   -1.275319    0.378179
     82          6           0      -26.582988   -2.425599   -0.149062
     83          6           0      -27.730988    2.270896   -0.059076
     84          6           0      -23.026645    3.443719   -0.000231
     85          7           0      -24.336265   -1.684428    0.245171
     86          6           0      -23.041054   -2.095391    0.200815
     87          6           0      -22.962399   -3.654297   -0.045023
     88          6           0      -24.487042   -3.959338   -0.468735
     89          6           0      -25.191270   -2.626988   -0.161934
     90          6           0      -24.506015   -4.167990   -2.024726
     91          6           0      -22.613245   -4.328729    1.332393
     92          6           0      -22.607729   -5.880745    1.387430
     93          1           0      -23.182449   -6.789244    2.433221
     94          7           0      -26.867792   -0.024851    0.169593
     95          6           0      -27.411544   -1.306412   -0.019151
     96          6           0      -28.794766   -1.163266   -0.201162
     97          6           0      -29.171638    0.156589    0.008108
     98          6           0      -27.903390    0.865090    0.058545
     99          6           0      -29.657525   -2.369794   -0.377039
    100          6           0      -30.582425    0.832482    0.002300
    101          8           0      -30.790839    2.021713    0.217312
    102          6           0      -31.875106    0.014616   -0.064125
    103          7           0      -25.279889    2.548747   -0.083567
    104          6           0      -26.546803    3.020083   -0.086870
    105          6           0      -26.634034    4.557902   -0.140466
    106          6           0      -25.129565    4.926897   -0.263677
    107          6           0      -24.409486    3.618261    0.007906
    108          6           0      -27.637587    5.115756   -1.203621
    109          6           0      -24.615389    6.111968    0.598888
    110          6           0      -24.431229    5.848284    2.033092
    111          7           0      -22.895514    1.063729    0.322982
    112          6           0      -22.294042    2.217670    0.149076
    113          6           0      -20.835450    2.095396    0.239579
    114          6           0      -20.683797    0.675530    0.340913
    115          6           0      -21.937635    0.096338    0.349029
    116          6           0      -19.847557    3.108488    0.587125
    117          6           0      -19.677667   -0.363354    0.475229
    118          8           0      -18.479396   -0.286978    0.626139
    119          6           0      -20.481863   -1.668201    0.427624
    120          6           0      -20.006929   -2.587479   -0.702545
    121          8           0      -20.297447   -2.444166   -1.861686
    122          8           0      -19.151834   -3.533552   -0.189904
    123          6           0      -18.655006   -4.469185   -1.224957
    124          1           0      -27.107919   -3.380605   -0.205223
    125          1           0      -28.645538    2.866064   -0.010618
    126          1           0      -22.689489    4.481649   -0.012075
    127          1           0      -22.300705   -3.914481   -0.871591
    128          1           0      -24.935228   -4.817833    0.033032
    129          1           0      -24.918392   -3.354226   -2.620384
    130          1           0      -25.247891   -4.910951   -2.318554
    131          1           0      -23.532762   -4.411534   -2.450347
    132          1           0      -23.308294   -3.930218    2.070950
    133          1           0      -21.645395   -3.932946    1.641352
    134          1           0      -21.563284   -6.140891    1.213013
    135          1           0      -23.213544   -6.108362    0.511215
    136          1           0      -29.132435   -3.324423   -0.419228
    137          1           0      -30.343135   -2.171375   -1.201991
    138          1           0      -30.244181   -2.399126    0.541564
    139          1           0      -32.024777   -0.494291   -1.016403
    140          1           0      -32.772944    0.557970    0.230848
    141          1           0      -31.805900   -0.727031    0.731879
    142          1           0      -27.029764    4.707107    0.863754
    143          1           0      -24.997999    5.140371   -1.324444
    144          1           0      -28.458093    4.418415   -1.369430
    145          1           0      -27.114850    5.257745   -2.149863
    146          1           0      -28.104507    6.050885   -0.893702
    147          1           0      -25.408349    6.843818    0.448150
    148          1           0      -23.723721    6.539944    0.140371
    149          1           0      -23.458873    5.383090    2.194242
    150          1           0      -25.252906    5.253525    2.431628
    151          1           0      -24.373828    6.770424    2.612182
    152          1           0      -20.404165    3.852385    1.157620
    153          1           0      -19.387902    3.710017   -0.197241
    154          1           0      -19.071426    2.599410    1.157601
    155          1           0      -20.358972   -2.166898    1.389594
    156          1           0      -17.629525   -4.741893   -0.976430
    157          1           0      -18.497207   -4.047345   -2.217780
    158          1           0      -19.237666   -5.389791   -1.231068
 ---------------------------------------------------------------------

 SCF Done:  E(RCAM-B3LYP) =  -4069.81764214     A.U. after   18 cycles

 Excitation energies and oscillator strengths:

 Excited State   1:      Singlet-A      1.7449 eV  710.55 nm  f=0.4951  <S**2>=0.000
     310 -> 316       -0.18255
     311 -> 313        0.13221
     312 -> 314        0.67082
     310 <- 316       -0.10496
 This state for optimization and/or second-order correction.
 Total Energy, E(TD-HF/TD-DFT) =  -4069.75351802
 Copying the excited state density for this state as the 1-particle RhoCI density.

 Excited State   2:      Singlet-A      1.7469 eV  709.75 nm  f=0.2551  <S**2>=0.000
     309 -> 315        0.19044
     311 -> 313        0.66773
     312 -> 314       -0.13278
     309 <- 315        0.10739

 Excited State   3:      Singlet-A      2.2374 eV  554.14 nm  f=0.1043  <S**2>=0.000
     309 -> 313        0.63522
     311 -> 315       -0.29910

 Excited State   4:      Singlet-A      2.2617 eV  548.19 nm  f=0.1156  <S**2>=0.000
     310 -> 314        0.64504
     312 -> 316        0.27673

 Excited State   5:      Singlet-A      3.1903 eV  388.63 nm  f=0.0000  <S**2>=0.000
     312 -> 313        0.70710

 The electronic state is 1-A.
 Alpha  occ. eigenvalues --  -46.90383 -46.88682 -19.26026 -19.25756 -19.20386
 Alpha  occ. eigenvalues --  -19.19998 -19.19531 -19.19410 -19.19028 -19.18807
 Alpha  occ. eigenvalues --  -14.42247 -14.42220 -14.41799 -14.41036 -14.40510
 Alpha  occ. eigenvalues --  -14.39462 -14.39121 -14.39113 -10.39960 -10.39752
 Alpha  occ. eigenvalues --  -10.36145 -10.35773 -10.35294 -10.34482 -10.32818
 Alpha  occ. eigenvalues --  -10.31966 -10.31818 -10.31783 -10.31115 -10.31051
 Alpha  occ. eigenvalues --  -10.30837 -10.30606 -10.30574 -10.30550 -10.30334
 Alpha  occ. eigenvalues --  -10.30197 -10.29937 -10.29874 -10.29624 -10.29593
 Alpha  occ. eigenvalues --  -10.29569 -10.29536 -10.29252 -10.28944 -10.28671
 Alpha  occ. eigenvalues --  -10.28650 -10.28532 -10.28521 -10.28510 -10.28427
 Alpha  occ. eigenvalues --  -10.28378 -10.28370 -10.28053 -10.27981 -10.27935
 Alpha  occ. eigenvalues --  -10.27895 -10.27780 -10.27775 -10.27735 -10.27713
 Alpha  occ. eigenvalues --  -10.27709 -10.27621 -10.27572 -10.27482 -10.27400
 Alpha  occ. eigenvalues --  -10.27249 -10.27075 -10.27012 -10.26933 -10.26859
 Alpha  occ. eigenvalues --  -10.26416 -10.26330 -10.26282 -10.26248 -10.26209
 Alpha  occ. eigenvalues --  -10.26169 -10.26164 -10.25968 -10.25966 -10.25932
 Alpha  occ. eigenvalues --  -10.25873 -10.25809 -10.25262 -10.25247 -10.25105
 Alpha  occ. eigenvalues --  -10.24270  -3.18746  -3.17245  -1.93608  -1.93221
 Alpha  occ. eigenvalues --   -1.93036  -1.92132  -1.91714  -1.91532  -1.16804
 Alpha  occ. eigenvalues --   -1.16443  -1.11493  -1.10643  -1.10376  -1.10272
 Alpha  occ. eigenvalues --   -1.08740  -1.07035  -1.04946  -1.04773  -1.03874
 Alpha  occ. eigenvalues --   -1.03758  -1.03324  -1.02950  -1.02416  -1.01884
 Alpha  occ. eigenvalues --   -0.93796  -0.92499  -0.89411  -0.89005  -0.88540
 Alpha  occ. eigenvalues --   -0.88324  -0.88221  -0.87728  -0.87459  -0.87333
 Alpha  occ. eigenvalues --   -0.87198  -0.86174  -0.86036  -0.85653  -0.84838
 Alpha  occ. eigenvalues --   -0.84042  -0.83600  -0.83338  -0.82700  -0.82379
 Alpha  occ. eigenvalues --   -0.81870  -0.81515  -0.80901  -0.80794  -0.80387
 Alpha  occ. eigenvalues --   -0.80355  -0.78488  -0.77570  -0.77524  -0.77277
 Alpha  occ. eigenvalues --   -0.76693  -0.76558  -0.76408  -0.76127  -0.75310
 Alpha  occ. eigenvalues --   -0.74838  -0.72801  -0.72457  -0.72047  -0.71775
 Alpha  occ. eigenvalues --   -0.70027  -0.69920  -0.69391  -0.69137  -0.68330
 Alpha  occ. eigenvalues --   -0.68207  -0.67147  -0.66981  -0.65886  -0.65346
 Alpha  occ. eigenvalues --   -0.64882  -0.64826  -0.64802  -0.64616  -0.64416
 Alpha  occ. eigenvalues --   -0.63986  -0.63705  -0.62462  -0.60047  -0.60019
 Alpha  occ. eigenvalues --   -0.59423  -0.59353  -0.59261  -0.58945  -0.58607
 Alpha  occ. eigenvalues --   -0.58217  -0.58166  -0.57783  -0.57335  -0.57326
 Alpha  occ. eigenvalues --   -0.56528  -0.56282  -0.56080  -0.55701  -0.55480
 Alpha  occ. eigenvalues --   -0.55479  -0.55211  -0.55051  -0.54569  -0.54289
 Alpha  occ. eigenvalues --   -0.53988  -0.53652  -0.53225  -0.53203  -0.53113
 Alpha  occ. eigenvalues --   -0.53052  -0.52775  -0.52665  -0.52524  -0.52070
 Alpha  occ. eigenvalues --   -0.51916  -0.51625  -0.51430  -0.51105  -0.51075
 Alpha  occ. eigenvalues --   -0.50989  -0.50687  -0.50575  -0.50542  -0.50262
 Alpha  occ. eigenvalues --   -0.50035  -0.49929  -0.49897  -0.49705  -0.49605
 Alpha  occ. eigenvalues --   -0.49540  -0.49430  -0.49195  -0.48950  -0.48922
 Alpha  occ. eigenvalues --   -0.48795  -0.48680  -0.48473  -0.48365  -0.47877
 Alpha  occ. eigenvalues --   -0.47559  -0.47473  -0.47302  -0.47227  -0.47071
 Alpha  occ. eigenvalues --   -0.46938  -0.46660  -0.46634  -0.46304  -0.46091
 Alpha  occ. eigenvalues --   -0.46070  -0.45975  -0.45710  -0.45679  -0.45545
 Alpha  occ. eigenvalues --   -0.45343  -0.45314  -0.45194  -0.45052  -0.44943
 Alpha  occ. eigenvalues --   -0.44871  -0.44709  -0.44401  -0.44237  -0.44183
 Alpha  occ. eigenvalues --   -0.44054  -0.43944  -0.43845  -0.43830  -0.43642
 Alpha  occ. eigenvalues --   -0.43626  -0.43375  -0.43312  -0.43257  -0.43220
 Alpha  occ. eigenvalues --   -0.42973  -0.42876  -0.42772  -0.42546  -0.42379
 Alpha  occ. eigenvalues --   -0.42368  -0.42214  -0.42201  -0.41990  -0.41824
 Alpha  occ. eigenvalues --   -0.41724  -0.41635  -0.41224  -0.40747  -0.40362
 Alpha  occ. eigenvalues --   -0.40228  -0.39909  -0.39586  -0.39087  -0.38933
 Alpha  occ. eigenvalues --   -0.38818  -0.38449  -0.38111  -0.37821  -0.37721
 Alpha  occ. eigenvalues --   -0.37298  -0.37263  -0.37180  -0.36770  -0.36689
 Alpha  occ. eigenvalues --   -0.36332  -0.36307  -0.34899  -0.34676  -0.34381
 Alpha  occ. eigenvalues --   -0.34244  -0.33145  -0.33137  -0.31418  -0.31362
 Alpha  occ. eigenvalues --   -0.31195  -0.31067  -0.30891  -0.30780  -0.30598
 Alpha  occ. eigenvalues --   -0.30027  -0.29719  -0.29156  -0.24023  -0.23767
 Alpha  occ. eigenvalues --   -0.21383  -0.21049
 Alpha virt. eigenvalues --   -0.08624  -0.08359  -0.02068  -0.01304   0.00105
 Alpha virt. eigenvalues --    0.00461   0.00776   0.01924   0.02019   0.02581
 Alpha virt. eigenvalues --    0.04448   0.05176   0.05501   0.05572   0.05927

 Mulliken charges:
               1
     1  Mg   0.821358
     2  C    0.141418
     3  C   -0.072416
     4  C   -0.088193
     5  C   -0.079413
     6  N   -0.220257
     7  C   -0.143089
     8  C    0.066424
     9  C   -0.054768
    10  C   -0.010680
    11  C    0.063596
    12  C    0.064051
    13  C   -0.078571
    14  H    0.015515
    15  N   -0.372571
    16  C    0.163219
    17  C   -0.137171
    18  C   -0.058542
    19  C    0.190599
    20  C    0.093536
    21  C   -0.010341
    22  O   -0.168302
    23  C    0.051851
    24  N   -0.300581
    25  C   -0.021038
    26  C   -0.011929
    27  C   -0.040264
    28  C    0.045016
    29  C    0.055021
    30  C    0.036435
    31  C   -0.036872
    32  N   -0.352632
    33  C    0.125103
    34  C   -0.196521
    35  C    0.022511
    36  C    0.045485
    37  C    0.117940
    38  C    0.064009
    39  O   -0.137382
    40  C   -0.139061
    41  C    0.228298
    42  O   -0.237462
    43  O   -0.322920
    44  C    0.183483
    45  H   -0.018139
    46  H   -0.048448
    47  H   -0.045700
    48  H    0.002315
    49  H   -0.000443
    50  H    0.003816
    51  H    0.026704
    52  H    0.004868
    53  H    0.013120
    54  H    0.020359
    55  H    0.050665
    56  H    0.037485
    57  H    0.040185
    58  H    0.005486
    59  H    0.031842
    60  H    0.019327
    61  H    0.059869
    62  H    0.032471
    63  H    0.026034
    64  H    0.015634
    65  H    0.028243
    66  H    0.025951
    67  H    0.028335
    68  H    0.025566
    69  H    0.018993
    70  H    0.017239
    71  H    0.020675
    72  H    0.021738
    73  H    0.015716
    74  H    0.029783
    75  H    0.034214
    76  H    0.055856
    77  H    0.031219
    78  H    0.037715
    79  H    0.027410
    80  Mg   0.838619
    81  C    0.003057
    82  C   -0.061088
    83  C   -0.104775
    84  C   -0.054752
    85  N   -0.218652
    86  C   -0.092776
    87  C   -0.042324
    88  C   -0.061315
    89  C    0.011008
    90  C    0.050374
    91  C    0.024640
    92  C   -0.040715
    93  H    0.041607
    94  N   -0.391172
    95  C    0.155144
    96  C   -0.142624
    97  C   -0.042414
    98  C    0.127173
    99  C    0.119226
   100  C    0.040013
   101  O   -0.203599
   102  C    0.039545
   103  N   -0.333285
   104  C    0.048218
   105  C   -0.057737
   106  C    0.015402
   107  C   -0.039400
   108  C    0.082147
   109  C    0.031356
   110  C    0.039674
   111  N   -0.320468
   112  C    0.146503
   113  C   -0.155185
   114  C   -0.024203
   115  C    0.123356
   116  C    0.118390
   117  C    0.036046
   118  O   -0.148979
   119  C   -0.004651
   120  C    0.202093
   121  O   -0.198438
   122  O   -0.329884
   123  C    0.164237
   124  H   -0.038359
   125  H   -0.000518
   126  H   -0.043692
   127  H    0.025041
   128  H    0.023752
   129  H    0.021423
   130  H    0.003536
   131  H    0.029333
   132  H    0.011267
   133  H    0.008536
   134  H    0.027412
   135  H    0.016214
   136  H    0.020642
   137  H    0.026088
   138  H    0.028267
   139  H    0.036689
   140  H    0.028188
   141  H    0.021105
   142  H    0.014636
   143  H    0.015000
   144  H    0.028210
   145  H    0.010036
   146  H    0.017403
   147  H   -0.003809
   148  H    0.009899
   149  H    0.011573
   150  H    0.012324
   151  H    0.011272
   152  H    0.009253
   153  H    0.018049
   154  H    0.040714
   155  H    0.048875
   156  H    0.031926
   157  H    0.052103
   158  H    0.038224
 Sum of Mulliken charges =  -0.00000

 Dipole moment (field-independent basis, Debye):
    X=              1.7120    Y=             -1.8255    Z=              1.4719  Tot=              2.9034
 Quadrupole moment (field-independent basis, Debye-Ang):
   XX=           -165.4084   YY=           -486.0003   ZZ=           -489.4280
   XY=             43.4916   XZ=             47.9094   YZ=             17.1679

 Normal termination of Gaussian 16 at Wed Sep  1 23:36:30 2021.
