 Gaussian 16, Revision A.03,
 Gaussian 16:  ES64L-G16RevA.03 25-Dec-2016

 ----------------------------------------------------------
 #p cam-b3lyp/Def2SVP td=(nstates=5) density=(transition=1)
 ----------------------------------------------------------

 --------------------------------
 TDDFT excited states in gaussian
 --------------------------------
 Symbolic Z-matrix:
 Charge =  0 Multiplicity = 1

                         Standard orientation:
 ---------------------------------------------------------------------
 Center     Atomic      Atomic             Coordinates (Angstroms)
 Number     Number       Type             X           Y           Z
 ---------------------------------------------------------------------
      1         12           0      -17.722136   -0.749787    0.475229
      2          6           0      -17.470939    2.335014   -1.238044
      3          6           0      -16.578143    0.794800    3.135815
      4          6           0      -17.006395   -3.769841    1.614973
      5          6           0      -18.253348   -2.200725   -2.724922
      6          7           0      -17.272922    1.437008    0.859431
      7          6           0      -17.309025    2.482496    0.116502
      8          6           0      -17.168193    3.764225    0.963159
      9          6           0      -16.403289    3.242690    2.283936
     10          6           0      -16.690518    1.697771    2.074402
     11          6           0      -14.862737    3.577614    2.387430
     12          6           0      -18.621372    4.342040    1.374603
     13          6           0      -18.846736    5.880522    1.534017
     14          1           0      -17.594147    6.724206    1.974553
     15          7           0      -17.097151   -1.414344    2.230419
     16          6           0      -16.716063   -0.562982    3.256627
     17          6           0      -16.320986   -1.401837    4.442581
     18          6           0      -16.491167   -2.773095    3.979378
     19          6           0      -16.872648   -2.782832    2.564521
     20          6           0      -15.825347   -0.764562    5.726963
     21          6           0      -16.312936   -4.036457    4.792335
     22          8           0      -16.427474   -5.185104    4.342565
     23          6           0      -16.017471   -3.915781    6.232342
     24          7           0      -17.742601   -2.789749   -0.435969
     25          6           0      -17.351128   -3.825487    0.284019
     26          6           0      -17.745080   -5.182412   -0.452194
     27          6           0      -18.135774   -4.603760   -1.918347
     28          6           0      -18.077001   -3.098689   -1.671412
     29          6           0      -16.618022   -6.267182   -0.427703
     30          6           0      -19.506872   -5.033178   -2.536197
     31          6           0      -19.461350   -5.937091   -3.741312
     32          7           0      -18.063907   -0.099790   -1.582011
     33          6           0      -18.259635   -0.842844   -2.729160
     34          6           0      -18.272958   -0.000714   -3.851574
     35          6           0      -17.925069    1.251785   -3.311196
     36          6           0      -17.768602    1.176272   -1.947406
     37          6           0      -18.494646   -0.354553   -5.235357
     38          6           0      -17.773108    2.598305   -3.706120
     39          8           0      -17.930542    3.251719   -4.773100
     40          6           0      -17.198549    3.315128   -2.402635
     41          6           0      -17.824236    4.650551   -2.230860
     42          8           0      -19.008890    4.909127   -2.028727
     43          8           0      -16.765632    5.612802   -2.226895
     44          6           0      -17.144236    7.023814   -2.078286
     45          1           0      -16.330499    1.375234    4.027485
     46          1           0      -16.824632   -4.764276    2.026344
     47          1           0      -18.495334   -2.647578   -3.692160
     48          1           0      -16.416356    4.385116    0.476679
     49          1           0      -16.823159    3.760209    3.145800
     50          1           0      -14.458373    3.932261    1.439616
     51          1           0      -14.273866    2.691244    2.622748
     52          1           0      -14.780317    4.353415    3.148559
     53          1           0      -18.989968    3.857596    2.278924
     54          1           0      -19.343892    3.981989    0.641921
     55          1           0      -19.625746    6.137832    2.252395
     56          1           0      -18.992505    6.277750    0.528727
     57          1           0      -16.277297   -1.215998    6.610898
     58          1           0      -15.996692    0.311191    5.766279
     59          1           0      -14.735642   -0.767468    5.732102
     60          1           0      -15.102020   -3.347654    6.399909
     61          1           0      -15.918867   -4.907716    6.673399
     62          1           0      -16.794635   -3.446438    6.835533
     63          1           0      -18.658379   -5.625758   -0.055585
     64          1           0      -17.323671   -4.724092   -2.636875
     65          1           0      -15.707499   -5.858558    0.010929
     66          1           0      -16.603513   -6.564706   -1.476407
     67          1           0      -17.026559   -7.130477    0.095980
     68          1           0      -20.019932   -4.122790   -2.846926
     69          1           0      -20.122995   -5.494731   -1.764275
     70          1           0      -18.410909   -6.218804   -3.800926
     71          1           0      -19.699350   -5.332891   -4.617522
     72          1           0      -20.052537   -6.844625   -3.625343
     73          1           0      -19.419691   -0.929624   -5.266579
     74          1           0      -17.823226   -1.106529   -5.649981
     75          1           0      -18.603985    0.551207   -5.832088
     76          1           0      -16.119828    3.420325   -2.522693
     77          1           0      -16.271759    7.670057   -2.177984
     78          1           0      -17.440488    7.193840   -1.043022
     79          1           0      -17.843989    7.291376   -2.869326
     80         12           0       17.879433   -0.603152    0.037599
     81          6           0       15.584968    2.056552    0.471120
     82          6           0       20.379196    1.660811    0.159744
     83          6           0       19.945338   -3.084670   -0.503155
     84          6           0       15.070240   -2.671842   -0.797146
     85          7           0       17.995168    1.670135    0.188150
     86          6           0       16.932145    2.452159    0.607905
     87          6           0       17.501838    3.761406    1.035847
     88          6           0       18.896375    3.803003    0.410263
     89          6           0       19.166403    2.286503    0.244696
     90          6           0       18.862563    4.516819   -0.992958
     91          6           0       17.554432    4.048661    2.631875
     92          6           0       17.166590    5.449642    3.196399
     93          1           0       17.829168    6.685045    2.520953
     94          7           0       19.918192   -0.658871   -0.155814
     95          6           0       20.729937    0.352223   -0.056643
     96          6           0       22.101692   -0.133038   -0.287078
     97          6           0       22.053426   -1.559998   -0.272931
     98          6           0       20.590200   -1.836592   -0.337091
     99          6           0       23.421911    0.701221   -0.467181
    100          6           0       23.158790   -2.614688   -0.232145
    101          8           0       22.963330   -3.839987   -0.344376
    102          6           0       24.542370   -2.166641   -0.269813
    103          7           0       17.511820   -2.602763   -0.751104
    104          6           0       18.584719   -3.490099   -0.768396
    105          6           0       18.035198   -4.950641   -0.998815
    106          6           0       16.498337   -4.765444   -0.941057
    107          6           0       16.329112   -3.253151   -0.779085
    108          6           0       18.615512   -5.617645   -2.246178
    109          6           0       15.742135   -5.640558    0.090036
    110          6           0       14.377366   -6.233485   -0.331388
    111          7           0       15.767218   -0.405968   -0.157325
    112          6           0       14.771763   -1.296918   -0.545877
    113          6           0       13.490820   -0.668368   -0.345702
    114          6           0       13.766595    0.656818   -0.005444
    115          6           0       15.176138    0.798927    0.119520
    116          6           0       12.226896   -1.269821   -0.450696
    117          6           0       13.182648    1.952421    0.371935
    118          8           0       12.031452    2.334101    0.511402
    119          6           0       14.366497    2.911712    0.723566
    120          6           0       14.235681    4.134595   -0.166762
    121          8           0       14.579536    4.378739   -1.301118
    122          8           0       13.682177    5.042866    0.688713
    123          6           0       13.709217    6.470629    0.290911
    124          1           0       21.202206    2.368025    0.285137
    125          1           0       20.662097   -3.907845   -0.472101
    126          1           0       14.202745   -3.333753   -0.826482
    127          1           0       16.972791    4.649430    0.689086
    128          1           0       19.659339    4.152606    1.105367
    129          1           0       19.775042    5.061221   -1.233728
    130          1           0       18.119697    5.312585   -1.053033
    131          1           0       18.754609    3.707785   -1.714582
    132          1           0       18.519318    3.727778    3.023085
    133          1           0       16.896352    3.349238    3.148808
    134          1           0       17.585983    5.413511    4.202491
    135          1           0       16.079834    5.423953    3.116030
    136          1           0       24.139723    0.621516    0.348896
    137          1           0       23.123276    1.743672   -0.581209
    138          1           0       24.059404    0.389259   -1.294498
    139          1           0       24.742503   -1.452059    0.529009
    140          1           0       24.776316   -1.712318   -1.232684
    141          1           0       25.156689   -3.020940    0.012906
    142          1           0       18.277367   -5.506172   -0.092689
    143          1           0       16.059901   -4.893598   -1.930540
    144          1           0       17.981877   -5.383634   -3.102293
    145          1           0       18.618744   -6.706814   -2.218143
    146          1           0       19.539276   -5.109860   -2.521544
    147          1           0       15.627316   -5.174671    1.068621
    148          1           0       16.347358   -6.496355    0.392069
    149          1           0       13.647394   -5.545043    0.094642
    150          1           0       14.307477   -7.177012    0.210837
    151          1           0       14.314253   -6.297817   -1.417310
    152          1           0       11.345336   -0.657731   -0.639878
    153          1           0       12.093860   -1.874015    0.447270
    154          1           0       12.290328   -1.917619   -1.324267
    155          1           0       14.325047    3.184490    1.777907
    156          1           0       14.000531    7.001353    1.196861
    157          1           0       12.763645    6.895339   -0.045201
    158          1           0       14.474691    6.630838   -0.467900
 ---------------------------------------------------------------------

 SCF Done:  E(RCAM-B3LYP) =  -4069.77308362     A.U. after   19 cycles

 Excitation energies and oscillator strengths:

 Excited State   1:      Singlet-A      1.7330 eV  715.43 nm  f=0.3868  <S**2>=0.000
     310 -> 316        0.19057
     312 -> 314        0.68153
     310 <- 316        0.10758
 This state for optimization and/or second-order correction.
 Total Energy, E(TD-HF/TD-DFT) =  -4069.70939728
 Copying the excited state density for this state as the 1-particle RhoCI density.

 Excited State   2:      Singlet-A      1.7997 eV  688.91 nm  f=0.3643  <S**2>=0.000
     309 -> 315        0.21209
     311 -> 313        0.67498
     309 <- 315        0.10952

 Excited State   3:      Singlet-A      2.2245 eV  557.37 nm  f=0.0798  <S**2>=0.000
     309 -> 313        0.62928
     311 -> 315       -0.30803

 Excited State   4:      Singlet-A      2.2617 eV  548.19 nm  f=0.0689  <S**2>=0.000
     310 -> 314        0.62175
     312 -> 316       -0.32225

 Excited State   5:      Singlet-A      3.1036 eV  399.49 nm  f=0.0000  <S**2>=0.000
     312 -> 313        0.70710

 The electronic state is 1-A.
 Alpha  occ. eigenvalues --  -46.89380 -46.89372 -19.24371 -19.23920 -19.20198
 Alpha  occ. eigenvalues --  -19.20041 -19.19266 -19.18979 -19.18693 -19.18431
 Alpha  occ. eigenvalues --  -14.42131 -14.41787 -14.41703 -14.41435 -14.39952
 Alpha  occ. eigenvalues --  -14.39868 -14.38965 -14.38546 -10.39271 -10.39244
 Alpha  occ. eigenvalues --  -10.35533 -10.35106 -10.34827 -10.34467 -10.31709
 Alpha  occ. eigenvalues --  -10.31502 -10.31465 -10.31065 -10.30945 -10.30823
 Alpha  occ. eigenvalues --  -10.30760 -10.30731 -10.30687 -10.30600 -10.30350
 Alpha  occ. eigenvalues --  -10.30289 -10.30228 -10.30052 -10.29997 -10.29878
 Alpha  occ. eigenvalues --  -10.29553 -10.29464 -10.29311 -10.28640 -10.28622
 Alpha  occ. eigenvalues --  -10.28551 -10.28372 -10.28365 -10.28288 -10.28222
 Alpha  occ. eigenvalues --  -10.27991 -10.27929 -10.27907 -10.27816 -10.27721
 Alpha  occ. eigenvalues --  -10.27676 -10.27592 -10.27577 -10.27543 -10.27519
 Alpha  occ. eigenvalues --  -10.27492 -10.27470 -10.27447 -10.27366 -10.27324
 Alpha  occ. eigenvalues --  -10.27193 -10.26954 -10.26699 -10.26550 -10.26382
 Alpha  occ. eigenvalues --  -10.26362 -10.26349 -10.26215 -10.26212 -10.26058
 Alpha  occ. eigenvalues --  -10.26007 -10.25889 -10.25814 -10.25808 -10.25793
 Alpha  occ. eigenvalues --  -10.25721 -10.25635 -10.25390 -10.25268 -10.24806
 Alpha  occ. eigenvalues --  -10.24620  -3.17825  -3.17767  -1.92729  -1.92665
 Alpha  occ. eigenvalues --   -1.92291  -1.92224  -1.92111  -1.92059  -1.16126
 Alpha  occ. eigenvalues --   -1.13945  -1.09602  -1.09402  -1.09372  -1.07771
 Alpha  occ. eigenvalues --   -1.07267  -1.06705  -1.05761  -1.05191  -1.05162
 Alpha  occ. eigenvalues --   -1.03950  -1.03468  -1.03064  -1.02079  -1.01449
 Alpha  occ. eigenvalues --   -0.92936  -0.92777  -0.89479  -0.88890  -0.88591
 Alpha  occ. eigenvalues --   -0.88487  -0.87995  -0.87877  -0.87572  -0.87532
 Alpha  occ. eigenvalues --   -0.87355  -0.87135  -0.86894  -0.86889  -0.84253
 Alpha  occ. eigenvalues --   -0.84242  -0.83955  -0.83601  -0.82742  -0.82704
 Alpha  occ. eigenvalues --   -0.82476  -0.82039  -0.81512  -0.81490  -0.80648
 Alpha  occ. eigenvalues --   -0.80605  -0.78949  -0.78395  -0.77694  -0.77459
 Alpha  occ. eigenvalues --   -0.77042  -0.76948  -0.75870  -0.75867  -0.75216
 Alpha  occ. eigenvalues --   -0.75126  -0.73203  -0.72517  -0.72235  -0.71826
 Alpha  occ. eigenvalues --   -0.68910  -0.68906  -0.68762  -0.68578  -0.67905
 Alpha  occ. eigenvalues --   -0.67707  -0.67375  -0.67207  -0.65904  -0.65641
 Alpha  occ. eigenvalues --   -0.65574  -0.65485  -0.65319  -0.65057  -0.64580
 Alpha  occ. eigenvalues --   -0.64337  -0.61948  -0.61235  -0.60516  -0.60490
 Alpha  occ. eigenvalues --   -0.60125  -0.59614  -0.59267  -0.59243  -0.58329
 Alpha  occ. eigenvalues --   -0.58326  -0.57953  -0.57722  -0.57510  -0.57317
 Alpha  occ. eigenvalues --   -0.56975  -0.56162  -0.55906  -0.55747  -0.55459
 Alpha  occ. eigenvalues --   -0.55212  -0.54473  -0.54427  -0.53774  -0.53708
 Alpha  occ. eigenvalues --   -0.53576  -0.53510  -0.53255  -0.53233  -0.53202
 Alpha  occ. eigenvalues --   -0.52957  -0.52947  -0.52586  -0.52453  -0.52438
 Alpha  occ. eigenvalues --   -0.52221  -0.52130  -0.51694  -0.51578  -0.51534
 Alpha  occ. eigenvalues --   -0.51213  -0.51090  -0.50898  -0.50808  -0.50530
 Alpha  occ. eigenvalues --   -0.50423  -0.50328  -0.49986  -0.49847  -0.49617
 Alpha  occ. eigenvalues --   -0.49538  -0.49368  -0.49180  -0.48992  -0.48846
 Alpha  occ. eigenvalues --   -0.48766  -0.48646  -0.48361  -0.48186  -0.48022
 Alpha  occ. eigenvalues --   -0.47790  -0.47670  -0.47594  -0.47399  -0.47292
 Alpha  occ. eigenvalues --   -0.47140  -0.47012  -0.46902  -0.46772  -0.46657
 Alpha  occ. eigenvalues --   -0.46280  -0.46264  -0.46083  -0.45929  -0.45566
 Alpha  occ. eigenvalues --   -0.45558  -0.45321  -0.45042  -0.44937  -0.44893
 Alpha  occ. eigenvalues --   -0.44701  -0.44361  -0.44206  -0.44056  -0.43909
 Alpha  occ. eigenvalues --   -0.43892  -0.43856  -0.43693  -0.43538  -0.43317
 Alpha  occ. eigenvalues --   -0.43027  -0.42975  -0.42968  -0.42730  -0.42585
 Alpha  occ. eigenvalues --   -0.42314  -0.42171  -0.41924  -0.41914  -0.41667
 Alpha  occ. eigenvalues --   -0.41561  -0.41550  -0.41249  -0.41151  -0.41039
 Alpha  occ. eigenvalues --   -0.40876  -0.40738  -0.40627  -0.40561  -0.40270
 Alpha  occ. eigenvalues --   -0.40256  -0.40033  -0.39864  -0.39621  -0.39008
 Alpha  occ. eigenvalues --   -0.38783  -0.38469  -0.37810  -0.37674  -0.37403
 Alpha  occ. eigenvalues --   -0.37378  -0.36534  -0.36460  -0.36427  -0.36085
 Alpha  occ. eigenvalues --   -0.35938  -0.35617  -0.34673  -0.34456  -0.33908
 Alpha  occ. eigenvalues --   -0.33881  -0.33529  -0.33111  -0.31774  -0.31696
 Alpha  occ. eigenvalues --   -0.31275  -0.31180  -0.30568  -0.30482  -0.30473
 Alpha  occ. eigenvalues --   -0.30226  -0.29273  -0.29268  -0.24139  -0.23979
 Alpha  occ. eigenvalues --   -0.21651  -0.20979
 Alpha virt. eigenvalues --   -0.08592  -0.08287  -0.02628  -0.02068  -0.00215
 Alpha virt. eigenvalues --   -0.00146   0.01741   0.02279   0.02310   0.02345
 Alpha virt. eigenvalues --    0.04602   0.05185   0.05530   0.05629   0.05771

 Mulliken charges:
               1
     1  Mg  12.000026
     2  C    5.999885
     3  C    6.000057
     4  C    6.000068
     5  C    5.999933
     6  N    6.999945
     7  C    6.000127
     8  C    6.000005
     9  C    6.000066
    10  C    5.999819
    11  C    6.000061
    12  C    5.999953
    13  C    6.000027
    14  H    0.999923
    15  N    7.000053
    16  C    5.999779
    17  C    5.999842
    18  C    5.999967
    19  C    5.999823
    20  C    6.000070
    21  C    5.999903
    22  O    7.999916
    23  C    6.000044
    24  N    7.000020
    25  C    5.999818
    26  C    6.000092
    27  C    5.999971
    28  C    6.000137
    29  C    5.999989
    30  C    5.999929
    31  C    5.999998
    32  N    7.000010
    33  C    6.000201
    34  C    6.000203
    35  C    5.999973
    36  C    6.000151
    37  C    5.999899
    38  C    6.000088
    39  O    8.000172
    40  C    6.000009
    41  C    6.000037
    42  O    8.000113
    43  O    7.999946
    44  C    5.999989
    45  H    0.999928
    46  H    0.999995
    47  H    1.000107
    48  H    0.999916
    49  H    1.000008
    50  H    0.999823
    51  H    0.999883
    52  H    0.999941
    53  H    1.000109
    54  H    1.000034
    55  H    1.000110
    56  H    1.000013
    57  H    0.999967
    58  H    0.999919
    59  H    0.999724
    60  H    0.999854
    61  H    0.999964
    62  H    1.000048
    63  H    1.000071
    64  H    0.999930
    65  H    0.999894
    66  H    0.999971
    67  H    1.000076
    68  H    1.000026
    69  H    1.000138
    70  H    0.999967
    71  H    1.000020
    72  H    1.000130
    73  H    1.000208
    74  H    1.000108
    75  H    1.000116
    76  H    0.999906
    77  H    0.999936
    78  H    1.000045
    79  H    1.000080
    80  Mg  12.001747
    81  C    5.978762
    82  C    6.028184
    83  C    6.018189
    84  C    5.979109
    85  N    7.003390
    86  C    6.033059
    87  C    5.989869
    88  C    6.003951
    89  C    5.966641
    90  C    5.999041
    91  C    5.995864
    92  C    5.998996
    93  H    1.008278
    94  N    7.012530
    95  C    5.952693
    96  C    5.975966
    97  C    5.988855
    98  C    5.959954
    99  C    6.003346
   100  C    5.986535
   101  O    7.974071
   102  C    6.006835
   103  N    6.995054
   104  C    5.960335
   105  C    6.009975
   106  C    5.991565
   107  C    6.033076
   108  C    6.004532
   109  C    5.994693
   110  C    6.000068
   111  N    6.993563
   112  C    6.043994
   113  C    6.026969
   114  C    6.005604
   115  C    6.036502
   116  C    5.993424
   117  C    6.016664
   118  O    8.030402
   119  C    6.001949
   120  C    6.001698
   121  O    8.008488
   122  O    7.999581
   123  C    5.996664
   124  H    0.994458
   125  H    0.992516
   126  H    1.006164
   127  H    1.004240
   128  H    1.002534
   129  H    1.002572
   130  H    0.987957
   131  H    1.000359
   132  H    1.015278
   133  H    0.996835
   134  H    1.004067
   135  H    0.994944
   136  H    0.979020
   137  H    0.980615
   138  H    0.981688
   139  H    0.993736
   140  H    0.992229
   141  H    0.985204
   142  H    0.997007
   143  H    0.998663
   144  H    0.989788
   145  H    0.992016
   146  H    1.006655
   147  H    1.000074
   148  H    1.010643
   149  H    0.992561
   150  H    1.003855
   151  H    1.001960
   152  H    1.016710
   153  H    1.023067
   154  H    1.018417
   155  H    1.008833
   156  H    1.005335
   157  H    1.003688
   158  H    1.005649
 Sum of Mulliken charges = 624.00000

 Dipole moment (field-independent basis, Debye):
    X=            -10.6096    Y=              2.1891    Z=              0.6046  Tot=             10.8500
 Quadrupole moment (field-independent basis, Debye-Ang):
   XX=           -377.6612   YY=              1.0059   ZZ=              0.4697
   XY=             43.2893   XZ=             14.9670   YZ=              0.7596

 Normal termination of Gaussian 16 at Wed Sep 22 03:11:08 2021.
