 Gaussian 16, Revision A.03,
 Gaussian 16:  ES64L-G16RevA.03 25-Dec-2016

 -----------------------------------
 #p cam-b3lyp/Def2SVP td=(nstates=5)
 -----------------------------------

 --------------------------------
 TDDFT excited states in gaussian
 --------------------------------
 Symbolic Z-matrix:
 Charge =  0 Multiplicity = 1

                         Standard orientation:
 ---------------------------------------------------------------------
 Center     Atomic      Atomic             Coordinates (Angstroms)
 Number     Number       Type             X           Y           Z
 ---------------------------------------------------------------------
      1         12           0       30.772653   -0.156901    0.349679
      2          6           0       27.443400    0.483373    0.077781
      3          6           0       30.111379   -3.526749   -0.496092
      4          6           0       34.003222   -0.497601   -0.425909
      5          6           0       31.404611    3.384752    0.665818
      6          7           0       28.991959   -1.318848   -0.109209
      7          6           0       27.763029   -0.928431   -0.186833
      8          6           0       26.739067   -2.114764   -0.282997
      9          6           0       27.623912   -3.414196   -0.170316
     10          6           0       29.045781   -2.756526   -0.225276
     11          6           0       27.278146   -4.375926    0.967382
     12          6           0       25.793448   -2.010880   -1.621624
     13          6           0       26.297868   -1.209790   -2.810984
     14          1           0       25.705033   -1.427965   -4.203038
     15          7           0       31.888559   -1.794711   -0.371878
     16          6           0       31.474479   -3.086989   -0.588545
     17          6           0       32.544345   -3.850206   -1.066327
     18          6           0       33.712123   -2.994496   -1.105077
     19          6           0       33.227284   -1.662896   -0.655607
     20          6           0       32.403320   -5.347644   -1.269308
     21          6           0       35.109744   -3.458601   -1.553498
     22          8           0       35.241344   -4.651391   -1.908930
     23          6           0       36.286964   -2.640682   -1.604562
     24          7           0       32.493112    1.316852   -0.012926
     25          6           0       33.691762    0.817840   -0.120048
     26          6           0       34.810879    1.890320    0.006987
     27          6           0       33.989023    3.133914    0.410724
     28          6           0       32.486405    2.638937    0.391141
     29          6           0       35.856065    1.576104    1.015731
     30          6           0       34.264014    4.395109   -0.536497
     31          6           0       35.031896    5.611552    0.126625
     32          7           0       29.716482    1.607830    0.491014
     33          6           0       30.057606    2.956775    0.650311
     34          6           0       28.798350    3.758231    0.751897
     35          6           0       27.792868    2.817195    0.488539
     36          6           0       28.384201    1.532489    0.302138
     37          6           0       28.631925    5.179544    0.989157
     38          6           0       26.415861    2.743403    0.307799
     39          8           0       25.495616    3.571320    0.376643
     40          6           0       26.108299    1.229592    0.128156
     41          6           0       25.098235    0.810829    1.222820
     42          8           0       24.024598    0.254001    1.068571
     43          8           0       25.538076    1.134729    2.488098
     44          6           0       24.651809    0.824787    3.616245
     45          1           0       29.811059   -4.529115   -0.807877
     46          1           0       35.088761   -0.580184   -0.508555
     47          1           0       31.604994    4.424532    0.932163
     48          1           0       26.176079   -2.104269    0.650678
     49          1           0       27.598498   -4.009160   -1.083791
     50          1           0       28.101252   -4.410111    1.680858
     51          1           0       27.125556   -5.396028    0.613050
     52          1           0       26.348137   -4.167997    1.496561
     53          1           0       24.864816   -1.633095   -1.193162
     54          1           0       25.592028   -2.957636   -2.123268
     55          1           0       27.361152   -1.447481   -2.829743
     56          1           0       26.216984   -0.166645   -2.504830
     57          1           0       33.077118   -6.031407   -0.752354
     58          1           0       32.402451   -5.553730   -2.339905
     59          1           0       31.407047   -5.653841   -0.950854
     60          1           0       36.647925   -2.208902   -0.671256
     61          1           0       36.089750   -1.728067   -2.166104
     62          1           0       37.114429   -3.097738   -2.146348
     63          1           0       35.420364    2.115739   -0.868024
     64          1           0       34.122903    3.418101    1.454544
     65          1           0       36.809582    1.245050    0.604555
     66          1           0       35.586960    0.684207    1.582727
     67          1           0       36.025973    2.437230    1.661817
     68          1           0       33.299281    4.820287   -0.816598
     69          1           0       34.892651    4.181488   -1.399893
     70          1           0       35.820995    5.953305   -0.541995
     71          1           0       35.564606    5.233507    0.999304
     72          1           0       34.283552    6.399707    0.211690
     73          1           0       29.483196    5.448778    1.614856
     74          1           0       27.706180    5.373115    1.532216
     75          1           0       28.549892    5.643896    0.006878
     76          1           0       25.451926    1.022006   -0.716623
     77          1           0       24.903196    1.491122    4.441631
     78          1           0       24.714313   -0.167554    4.062553
     79          1           0       23.590885    0.875340    3.369568
     80         12           0      -30.711044    0.409751    0.182811
     81          6           0      -27.902412   -1.719714    0.174842
     82          6           0      -28.630029    2.910417   -0.630015
     83          6           0      -33.431549    2.162028   -0.274343
     84          6           0      -32.685192   -2.564800    0.341722
     85          7           0      -28.516577    0.540173   -0.225309
     86          6           0      -27.542473   -0.392656   -0.104093
     87          6           0      -26.148097    0.148430   -0.346868
     88          6           0      -26.447985    1.701019   -0.325248
     89          6           0      -27.958312    1.775378   -0.412490
     90          6           0      -25.891831    2.470662    0.943090
     91          6           0      -25.295380   -0.271811   -1.622469
     92          6           0      -25.952684   -0.964045   -2.845938
     93          1           0      -25.366015   -0.651986   -4.273245
     94          7           0      -30.939075    2.363614   -0.259738
     95          6           0      -30.000219    3.207745   -0.665952
     96          6           0      -30.644050    4.488151   -1.067456
     97          6           0      -32.096038    4.298890   -0.789849
     98          6           0      -32.197357    2.883175   -0.434303
     99          6           0      -29.884689    5.730770   -1.447146
    100          6           0      -33.173294    5.331984   -0.993021
    101          8           0      -32.846578    6.462346   -1.346359
    102          6           0      -34.719561    5.078044   -0.852647
    103          7           0      -32.849398   -0.147836   -0.065488
    104          6           0      -33.674589    0.841189   -0.068687
    105          6           0      -35.143989    0.236050    0.048806
    106          6           0      -34.840481   -1.262543   -0.008415
    107          6           0      -33.329409   -1.358353    0.077662
    108          6           0      -36.028492    0.642183    1.239385
    109          6           0      -35.228666   -1.949141   -1.418595
    110          6           0      -36.375737   -2.975795   -1.389200
    111          7           0      -30.440001   -1.697576    0.183061
    112          6           0      -31.292391   -2.753085    0.372424
    113          6           0      -30.531313   -3.993942    0.670899
    114          6           0      -29.157885   -3.671809    0.479522
    115          6           0      -29.195682   -2.222218    0.294625
    116          6           0      -31.107069   -5.408649    0.903768
    117          6           0      -27.809336   -4.130345    0.442293
    118          8           0      -27.273445   -5.251813    0.449291
    119          6           0      -26.917165   -2.869035    0.318385
    120          6           0      -25.997652   -2.855229    1.542975
    121          8           0      -24.827092   -3.089083    1.686952
    122          8           0      -26.711278   -2.284240    2.602327
    123          6           0      -25.980244   -2.054367    3.887082
    124          1           0      -27.930279    3.703662   -0.901946
    125          1           0      -34.310722    2.799208   -0.397067
    126          1           0      -33.296831   -3.415227    0.648976
    127          1           0      -25.599771   -0.091927    0.563814
    128          1           0      -25.972924    2.170008   -1.187036
    129          1           0      -25.425858    1.779454    1.644571
    130          1           0      -26.816662    2.779630    1.429021
    131          1           0      -25.238085    3.281973    0.622422
    132          1           0      -24.488024   -0.909130   -1.261539
    133          1           0      -24.778292    0.609170   -2.004231
    134          1           0      -26.997323   -0.653162   -2.830675
    135          1           0      -25.812378   -2.044305   -2.868528
    136          1           0      -30.501521    6.629202   -1.446612
    137          1           0      -29.370959    5.500875   -2.381349
    138          1           0      -29.075520    5.768722   -0.717082
    139          1           0      -35.137067    4.626558    0.048115
    140          1           0      -35.014023    4.367765   -1.625246
    141          1           0      -35.296704    5.995760   -0.962081
    142          1           0      -35.770493    0.548088   -0.786112
    143          1           0      -35.306500   -1.922745    0.723892
    144          1           0      -35.527797    1.358055    1.891450
    145          1           0      -36.374414   -0.227032    1.799766
    146          1           0      -36.936540    1.168892    0.945897
    147          1           0      -34.388051   -2.493200   -1.847075
    148          1           0      -35.479073   -1.122355   -2.083645
    149          1           0      -36.290108   -3.796611   -2.101692
    150          1           0      -37.264560   -2.416183   -1.680492
    151          1           0      -36.352163   -3.345576   -0.364039
    152          1           0      -32.155799   -5.530400    0.634749
    153          1           0      -30.999635   -5.561595    1.977343
    154          1           0      -30.447543   -6.126999    0.417466
    155          1           0      -26.316581   -2.940042   -0.587853
    156          1           0      -25.167683   -2.730245    4.152703
    157          1           0      -26.749191   -2.222053    4.640971
    158          1           0      -25.609514   -1.052071    4.102668
 ---------------------------------------------------------------------

 SCF Done:  E(RCAM-B3LYP) =  -4069.76259343     A.U. after   19 cycles

 Excitation energies and oscillator strengths:

 Excited State   1:      Singlet-A      1.7059 eV  726.78 nm  f=0.4330  <S**2>=0.000
     309 -> 316       -0.16085
     311 -> 313        0.68878
     309 <- 316       -0.10272
 This state for optimization and/or second-order correction.
 Total Energy, E(TD-HF/TD-DFT) =  -4069.69990124
 Copying the excited state density for this state as the 1-particle RhoCI density.

 Excited State   2:      Singlet-A      1.7690 eV  700.87 nm  f=0.4101  <S**2>=0.000
     310 -> 315        0.18508
     312 -> 314        0.68379
     310 <- 315        0.10632

 Excited State   3:      Singlet-A      2.2508 eV  550.84 nm  f=0.1200  <S**2>=0.000
     309 -> 313        0.64223
     311 -> 316        0.27237

 Excited State   4:      Singlet-A      2.2834 eV  542.99 nm  f=0.0987  <S**2>=0.000
     310 -> 314        0.63711
     312 -> 315       -0.29626

 Excited State   5:      Singlet-A      3.1136 eV  398.21 nm  f=0.0000  <S**2>=0.000
     312 -> 313        0.70711

 The electronic state is 1-A.
 Alpha  occ. eigenvalues --  -46.90327 -46.90073 -19.24908 -19.24602 -19.20418
 Alpha  occ. eigenvalues --  -19.20124 -19.19470 -19.18981 -19.18605 -19.17434
 Alpha  occ. eigenvalues --  -14.43211 -14.42320 -14.41938 -14.41845 -14.40552
 Alpha  occ. eigenvalues --  -14.40440 -14.40169 -14.39835 -10.39883 -10.39733
 Alpha  occ. eigenvalues --  -10.35694 -10.35611 -10.34729 -10.34272 -10.33015
 Alpha  occ. eigenvalues --  -10.31871 -10.31785 -10.31527 -10.31518 -10.31282
 Alpha  occ. eigenvalues --  -10.31128 -10.31031 -10.30775 -10.30766 -10.30753
 Alpha  occ. eigenvalues --  -10.30734 -10.30660 -10.30391 -10.30180 -10.30113
 Alpha  occ. eigenvalues --  -10.30105 -10.29871 -10.29648 -10.29407 -10.29315
 Alpha  occ. eigenvalues --  -10.29278 -10.29039 -10.28973 -10.28818 -10.28801
 Alpha  occ. eigenvalues --  -10.28759 -10.28483 -10.28433 -10.28307 -10.28023
 Alpha  occ. eigenvalues --  -10.27915 -10.27825 -10.27736 -10.27629 -10.27575
 Alpha  occ. eigenvalues --  -10.27566 -10.27378 -10.27251 -10.27189 -10.27188
 Alpha  occ. eigenvalues --  -10.27106 -10.27094 -10.27081 -10.27053 -10.26919
 Alpha  occ. eigenvalues --  -10.26847 -10.26839 -10.26720 -10.26588 -10.26574
 Alpha  occ. eigenvalues --  -10.26416 -10.26384 -10.26348 -10.26183 -10.26169
 Alpha  occ. eigenvalues --  -10.26021 -10.25795 -10.25663 -10.25625 -10.25383
 Alpha  occ. eigenvalues --  -10.24923  -3.18734  -3.18551  -1.93612  -1.93440
 Alpha  occ. eigenvalues --   -1.93223  -1.93005  -1.93001  -1.92854  -1.16152
 Alpha  occ. eigenvalues --   -1.16062  -1.09575  -1.09333  -1.09067  -1.07629
 Alpha  occ. eigenvalues --   -1.07364  -1.07282  -1.06750  -1.05048  -1.04830
 Alpha  occ. eigenvalues --   -1.04524  -1.04017  -1.03655  -1.03308  -1.02263
 Alpha  occ. eigenvalues --   -0.93589  -0.93013  -0.89813  -0.89684  -0.89444
 Alpha  occ. eigenvalues --   -0.89002  -0.88830  -0.88619  -0.88337  -0.88307
 Alpha  occ. eigenvalues --   -0.87814  -0.86909  -0.85416  -0.85309  -0.84897
 Alpha  occ. eigenvalues --   -0.84661  -0.84208  -0.83964  -0.82965  -0.82908
 Alpha  occ. eigenvalues --   -0.82525  -0.81800  -0.81475  -0.80815  -0.80552
 Alpha  occ. eigenvalues --   -0.80283  -0.78525  -0.78495  -0.77717  -0.77409
 Alpha  occ. eigenvalues --   -0.77035  -0.76980  -0.76697  -0.76370  -0.75377
 Alpha  occ. eigenvalues --   -0.75295  -0.73414  -0.73326  -0.72404  -0.71968
 Alpha  occ. eigenvalues --   -0.69579  -0.69573  -0.69274  -0.68937  -0.68699
 Alpha  occ. eigenvalues --   -0.68422  -0.67534  -0.66864  -0.66854  -0.66050
 Alpha  occ. eigenvalues --   -0.65702  -0.65669  -0.65520  -0.64884  -0.64881
 Alpha  occ. eigenvalues --   -0.64558  -0.63349  -0.63169  -0.60915  -0.60610
 Alpha  occ. eigenvalues --   -0.60207  -0.59971  -0.59472  -0.58960  -0.58559
 Alpha  occ. eigenvalues --   -0.58536  -0.58095  -0.58038  -0.57318  -0.57267
 Alpha  occ. eigenvalues --   -0.56378  -0.56344  -0.55882  -0.55702  -0.55630
 Alpha  occ. eigenvalues --   -0.55615  -0.55080  -0.54827  -0.54559  -0.54537
 Alpha  occ. eigenvalues --   -0.53954  -0.53880  -0.53618  -0.53520  -0.53266
 Alpha  occ. eigenvalues --   -0.53017  -0.52891  -0.52832  -0.52610  -0.52242
 Alpha  occ. eigenvalues --   -0.52025  -0.51773  -0.51543  -0.51502  -0.51263
 Alpha  occ. eigenvalues --   -0.51254  -0.51118  -0.50950  -0.50699  -0.50625
 Alpha  occ. eigenvalues --   -0.50278  -0.50022  -0.49914  -0.49806  -0.49578
 Alpha  occ. eigenvalues --   -0.49495  -0.49238  -0.49035  -0.49008  -0.48882
 Alpha  occ. eigenvalues --   -0.48833  -0.48566  -0.48562  -0.48522  -0.48306
 Alpha  occ. eigenvalues --   -0.48299  -0.47907  -0.47668  -0.47640  -0.47442
 Alpha  occ. eigenvalues --   -0.47420  -0.47243  -0.47196  -0.46941  -0.46849
 Alpha  occ. eigenvalues --   -0.46765  -0.46653  -0.46285  -0.46198  -0.46094
 Alpha  occ. eigenvalues --   -0.45908  -0.45896  -0.45735  -0.45535  -0.45366
 Alpha  occ. eigenvalues --   -0.45261  -0.45022  -0.44878  -0.44877  -0.44610
 Alpha  occ. eigenvalues --   -0.44465  -0.44216  -0.43924  -0.43833  -0.43601
 Alpha  occ. eigenvalues --   -0.43587  -0.43301  -0.43131  -0.42703  -0.42685
 Alpha  occ. eigenvalues --   -0.42677  -0.42263  -0.42259  -0.42082  -0.42080
 Alpha  occ. eigenvalues --   -0.42017  -0.42014  -0.41497  -0.41472  -0.41255
 Alpha  occ. eigenvalues --   -0.40962  -0.40928  -0.40862  -0.40725  -0.40691
 Alpha  occ. eigenvalues --   -0.39996  -0.39976  -0.39845  -0.39243  -0.39079
 Alpha  occ. eigenvalues --   -0.38859  -0.38729  -0.38214  -0.38046  -0.37854
 Alpha  occ. eigenvalues --   -0.37665  -0.36901  -0.36869  -0.36668  -0.36533
 Alpha  occ. eigenvalues --   -0.36403  -0.36326  -0.35019  -0.34819  -0.34306
 Alpha  occ. eigenvalues --   -0.34270  -0.34049  -0.33652  -0.31915  -0.31616
 Alpha  occ. eigenvalues --   -0.31419  -0.31087  -0.31053  -0.30970  -0.30927
 Alpha  occ. eigenvalues --   -0.30182  -0.29275  -0.29028  -0.24946  -0.24498
 Alpha  occ. eigenvalues --   -0.21673  -0.21538
 Alpha virt. eigenvalues --   -0.09532  -0.08918  -0.02037  -0.01903  -0.00623
 Alpha virt. eigenvalues --   -0.00034   0.00622   0.01182   0.01863   0.02206
 Alpha virt. eigenvalues --    0.04301   0.04964   0.05004   0.05254   0.05430

 Mulliken charges:
               1
     1  Mg   0.825799
     2  C    0.014955
     3  C   -0.064095
     4  C   -0.034147
     5  C   -0.085247
     6  N   -0.280163
     7  C   -0.033735
     8  C   -0.003311
     9  C   -0.057042
    10  C    0.024071
    11  C    0.073109
    12  C    0.009627
    13  C   -0.045405
    14  H    0.044632
    15  N   -0.376607
    16  C    0.139167
    17  C   -0.133927
    18  C   -0.051319
    19  C    0.178981
    20  C    0.140060
    21  C    0.018688
    22  O   -0.238771
    23  C    0.063182
    24  N   -0.229452
    25  C   -0.016331
    26  C   -0.028436
    27  C    0.002420
    28  C    0.020994
    29  C    0.047842
    30  C    0.001348
    31  C   -0.010168
    32  N   -0.376982
    33  C    0.118810
    34  C   -0.164093
    35  C    0.035766
    36  C    0.123890
    37  C    0.127109
    38  C    0.044594
    39  O   -0.184327
    40  C   -0.043146
    41  C    0.174903
    42  O   -0.212581
    43  O   -0.339385
    44  C    0.178550
    45  H   -0.011508
    46  H   -0.063600
    47  H   -0.026495
    48  H    0.025720
    49  H    0.012393
    50  H    0.017780
    51  H    0.012578
    52  H    0.020258
    53  H    0.032830
    54  H    0.016825
    55  H    0.030180
    56  H    0.016163
    57  H    0.036980
    58  H    0.022634
    59  H   -0.021586
    60  H    0.042192
    61  H    0.019896
    62  H    0.027708
    63  H    0.019230
    64  H    0.008132
    65  H    0.006271
    66  H    0.010275
    67  H    0.018323
    68  H    0.012633
    69  H    0.017226
    70  H    0.010721
    71  H    0.016207
    72  H    0.026518
    73  H    0.022302
    74  H    0.042583
    75  H    0.050603
    76  H    0.029781
    77  H    0.033943
    78  H    0.019735
    79  H    0.044745
    80  Mg   0.823445
    81  C   -0.024898
    82  C   -0.082114
    83  C   -0.031352
    84  C   -0.095656
    85  N   -0.272509
    86  C   -0.080803
    87  C    0.045101
    88  C   -0.108071
    89  C    0.036594
    90  C    0.079834
    91  C    0.047745
    92  C   -0.094756
    93  H    0.010129
    94  N   -0.388586
    95  C    0.149217
    96  C   -0.157973
    97  C   -0.043810
    98  C    0.147791
    99  C    0.134736
   100  C    0.013422
   101  O   -0.209451
   102  C    0.034117
   103  N   -0.199576
   104  C    0.025797
   105  C   -0.006826
   106  C   -0.076360
   107  C    0.051570
   108  C    0.059929
   109  C   -0.001651
   110  C    0.015455
   111  N   -0.315910
   112  C    0.114095
   113  C   -0.179614
   114  C    0.031501
   115  C    0.134942
   116  C    0.119662
   117  C    0.021416
   118  O   -0.182625
   119  C   -0.017375
   120  C    0.214346
   121  O   -0.175874
   122  O   -0.370367
   123  C    0.173494
   124  H   -0.036631
   125  H   -0.077743
   126  H   -0.024242
   127  H    0.012997
   128  H    0.011047
   129  H    0.013910
   130  H    0.016926
   131  H    0.032877
   132  H    0.019950
   133  H    0.021127
   134  H    0.051461
   135  H    0.052552
   136  H    0.053412
   137  H    0.017457
   138  H    0.015904
   139  H    0.036749
   140  H    0.036765
   141  H    0.025228
   142  H    0.009792
   143  H    0.001047
   144  H    0.011998
   145  H    0.014758
   146  H    0.005282
   147  H    0.019546
   148  H    0.001091
   149  H    0.020978
   150  H    0.015873
   151  H    0.009299
   152  H    0.021167
   153  H    0.031329
   154  H    0.046325
   155  H    0.038496
   156  H    0.048716
   157  H    0.026418
   158  H    0.029956
 Sum of Mulliken charges =  -0.00000

 Dipole moment (field-independent basis, Debye):
    X=             -0.1754    Y=              2.4613    Z=              5.6996  Tot=              6.2108
 Quadrupole moment (field-independent basis, Debye-Ang):
   XX=           -104.2060   YY=           -566.8847   ZZ=           -500.5383
   XY=            124.0505   XZ=             32.2251   YZ=              0.1103

 Normal termination of Gaussian 16 at Wed Sep 15 00:59:07 2021.
