 Gaussian 16, Revision A.03,
 Gaussian 16:  ES64L-G16RevA.03 25-Dec-2016

 ----------------------------------------------------------
 #p cam-b3lyp/Def2SVP td=(nstates=5) density=(transition=1)
 ----------------------------------------------------------

 --------------------------------
 TDDFT excited states in gaussian
 --------------------------------
 Symbolic Z-matrix:
 Charge =  0 Multiplicity = 1

                         Standard orientation:
 ---------------------------------------------------------------------
 Center     Atomic      Atomic             Coordinates (Angstroms)
 Number     Number       Type             X           Y           Z
 ---------------------------------------------------------------------
      1         12           0       16.241950    0.706306   -0.245405
      2          6           0       15.656737   -2.064057    1.878071
      3          6           0       13.518005    2.183848    1.091105
      4          6           0       16.752101    3.179591   -2.328892
      5          6           0       18.600917   -1.347886   -2.001369
      6          7           0       14.648920    0.092351    1.267609
      7          6           0       14.812259   -0.966134    2.145507
      8          6           0       13.835928   -0.762840    3.253326
      9          6           0       12.823205    0.240867    2.701255
     10          6           0       13.688399    0.934184    1.619197
     11          6           0       11.599241   -0.499210    2.042540
     12          6           0       14.439543   -0.279097    4.679589
     13          6           0       13.920158   -0.903598    6.010790
     14          1           0       12.376926   -0.963046    6.201475
     15          7           0       15.220546    2.454379   -0.558499
     16          6           0       14.170777    2.861103    0.092377
     17          6           0       13.749724    4.154614   -0.473159
     18          6           0       14.794886    4.597825   -1.339153
     19          6           0       15.647249    3.381982   -1.468970
     20          6           0       12.440576    4.974891   -0.182155
     21          6           0       15.045850    5.939638   -2.026482
     22          8           0       15.950945    6.143048   -2.858098
     23          6           0       14.055905    6.993520   -1.865860
     24          7           0       17.425970    0.792751   -2.074682
     25          6           0       17.542876    2.030149   -2.702344
     26          6           0       18.720385    1.961720   -3.749741
     27          6           0       19.342546    0.566250   -3.494489
     28          6           0       18.430998   -0.038149   -2.424124
     29          6           0       18.270754    2.279624   -5.176045
     30          6           0       20.859139    0.540934   -3.178060
     31          6           0       21.703755   -0.601249   -3.789451
     32          7           0       16.994705   -1.284083   -0.145204
     33          6           0       17.894543   -1.989831   -0.937610
     34          6           0       18.155115   -3.261856   -0.313098
     35          6           0       17.260115   -3.351926    0.754052
     36          6           0       16.560421   -2.117639    0.851977
     37          6           0       19.123400   -4.206498   -0.687731
     38          6           0       16.810402   -4.176123    1.885622
     39          8           0       17.153805   -5.271092    2.302155
     40          6           0       15.753965   -3.339988    2.679474
     41          6           0       14.481164   -4.165309    2.743231
     42          8           0       13.553718   -4.324747    1.982292
     43          8           0       14.542082   -4.672125    4.009165
     44          6           0       13.306175   -5.262715    4.575930
     45          1           0       12.692774    2.711684    1.574431
     46          1           0       17.016311    4.098156   -2.856866
     47          1           0       19.464989   -1.897980   -2.378610
     48          1           0       13.272471   -1.643766    3.561879
     49          1           0       12.577877    1.027108    3.414799
     50          1           0       10.656647    0.039655    2.132558
     51          1           0       11.351682   -1.441225    2.532463
     52          1           0       11.849074   -0.563094    0.984034
     53          1           0       14.417510    0.809081    4.728567
     54          1           0       15.516689   -0.449403    4.694818
     55          1           0       14.273274   -0.185573    6.751848
     56          1           0       14.408293   -1.878153    5.999559
     57          1           0       12.585013    5.906591    0.364343
     58          1           0       11.780187    4.322579    0.389916
     59          1           0       11.930620    5.364058   -1.063441
     60          1           0       13.870127    7.196196   -0.810774
     61          1           0       13.120182    6.723931   -2.355763
     62          1           0       14.521802    7.916678   -2.209175
     63          1           0       19.474274    2.665390   -3.396435
     64          1           0       19.123926   -0.107600   -4.322653
     65          1           0       17.956023    1.356585   -5.664032
     66          1           0       19.058626    2.658950   -5.826010
     67          1           0       17.330842    2.829179   -5.136460
     68          1           0       21.092379    0.610460   -2.115692
     69          1           0       21.340461    1.463058   -3.506578
     70          1           0       21.780089   -1.333019   -2.985087
     71          1           0       22.690737   -0.163227   -3.941561
     72          1           0       21.212665   -0.998623   -4.677299
     73          1           0       19.004452   -5.251872   -0.403763
     74          1           0       20.084346   -3.819326   -0.347477
     75          1           0       19.098550   -4.224777   -1.776694
     76          1           0       16.129544   -3.115454    3.677615
     77          1           0       13.264134   -4.881973    5.596001
     78          1           0       13.274002   -6.350448    4.633021
     79          1           0       12.435817   -4.897138    4.031649
     80         12           0      -16.043610    0.455605    0.650845
     81          6           0      -15.854433   -2.473283   -1.376842
     82          6           0      -12.789270    0.798544    0.099794
     83          6           0      -16.275804    3.676419    1.647814
     84          6           0      -19.569151    0.243835    0.175550
     85          7           0      -14.538051   -0.725492   -0.364019
     86          6           0      -14.638775   -1.946066   -1.066207
     87          6           0      -13.268405   -2.451877   -1.617198
     88          6           0      -12.300582   -1.371907   -1.055963
     89          6           0      -13.240527   -0.402161   -0.308931
     90          6           0      -11.236518   -2.097906   -0.216077
     91          6           0      -13.125544   -2.627895   -3.190555
     92          6           0      -12.931073   -4.048895   -3.706755
     93          1           0      -11.687254   -4.324617   -4.576100
     94          7           0      -14.754242    1.978564    0.941229
     95          6           0      -13.395726    1.911813    0.632617
     96          6           0      -12.732710    3.073353    1.069521
     97          6           0      -13.665308    3.898676    1.670276
     98          6           0      -14.943136    3.252696    1.448385
     99          6           0      -11.202950    3.430652    0.974369
    100          6           0      -13.300961    5.203496    2.338848
    101          8           0      -12.180082    5.579981    2.512181
    102          6           0      -14.533172    6.030910    2.955880
    103          7           0      -17.671674    1.811325    0.816831
    104          6           0      -17.491265    3.080646    1.294680
    105          6           0      -18.890443    3.814926    1.192516
    106          6           0      -19.947230    2.747291    0.863614
    107          6           0      -19.017548    1.506945    0.577558
    108          6           0      -19.211651    4.727351    2.341992
    109          6           0      -20.679111    3.134174   -0.415496
    110          6           0      -22.049261    2.548492   -0.631478
    111          7           0      -17.477425   -0.969128   -0.171653
    112          6           0      -18.848246   -0.917502   -0.257675
    113          6           0      -19.348643   -2.110416   -0.837903
    114          6           0      -18.223578   -2.855346   -1.263960
    115          6           0      -17.116384   -2.027358   -0.924941
    116          6           0      -20.756822   -2.453464   -1.117376
    117          6           0      -17.682893   -4.044464   -1.936319
    118          8           0      -18.293506   -5.030701   -2.369919
    119          6           0      -16.117490   -3.876238   -2.025000
    120          6           0      -15.489874   -4.839538   -1.160235
    121          8           0      -15.489685   -4.689821    0.084577
    122          8           0      -15.019218   -5.832369   -1.940368
    123          6           0      -14.149528   -6.871340   -1.323768
    124          1           0      -11.711810    0.923743   -0.028872
    125          1           0      -16.309355    4.697504    2.033748
    126          1           0      -20.644525    0.067452    0.110265
    127          1           0      -13.026117   -3.415843   -1.169905
    128          1           0      -11.804248   -0.787520   -1.830125
    129          1           0      -10.666960   -1.327400    0.302757
    130          1           0      -10.533881   -2.719521   -0.770890
    131          1           0      -11.677292   -2.756726    0.532948
    132          1           0      -12.174786   -2.146429   -3.419454
    133          1           0      -13.945689   -2.121732   -3.699847
    134          1           0      -13.830762   -4.316641   -4.261866
    135          1           0      -12.831337   -4.726567   -2.858133
    136          1           0      -11.160199    4.404929    0.487056
    137          1           0      -10.650403    2.704074    0.378857
    138          1           0      -10.647761    3.399312    1.911822
    139          1           0      -14.084471    6.866605    3.492059
    140          1           0      -15.028315    5.293477    3.588092
    141          1           0      -15.095660    6.294399    2.060229
    142          1           0      -18.763544    4.466444    0.327203
    143          1           0      -20.693737    2.540662    1.630449
    144          1           0      -20.294262    4.757049    2.462114
    145          1           0      -18.804908    5.701745    2.070675
    146          1           0      -18.691786    4.486085    3.268421
    147          1           0      -20.101719    2.929680   -1.317572
    148          1           0      -20.788023    4.214018   -0.516164
    149          1           0      -22.446719    2.058799    0.257339
    150          1           0      -21.972831    1.812787   -1.432359
    151          1           0      -22.720499    3.287948   -1.068113
    152          1           0      -21.436572   -1.970512   -0.414665
    153          1           0      -20.816067   -3.537820   -1.020679
    154          1           0      -20.954236   -2.068491   -2.118101
    155          1           0      -15.715976   -3.863829   -3.038290
    156          1           0      -14.442867   -7.738712   -1.916934
    157          1           0      -14.296772   -6.994233   -0.251177
    158          1           0      -13.107000   -6.745924   -1.618125
 ---------------------------------------------------------------------

 SCF Done:  E(RCAM-B3LYP) =  -4069.80501741     A.U. after   17 cycles

 Excitation energies and oscillator strengths:

 Excited State   1:      Singlet-A      1.7222 eV  719.91 nm  f=0.3648  <S**2>=0.000
     309 -> 316        0.17011
     311 -> 313        0.68366
     309 <- 316        0.10328
 This state for optimization and/or second-order correction.
 Total Energy, E(TD-HF/TD-DFT) =  -4069.74172711
 Copying the excited state density for this state as the 1-particle RhoCI density.

 Excited State   2:      Singlet-A      1.7331 eV  715.38 nm  f=0.4061  <S**2>=0.000
     310 -> 315       -0.18955
     312 -> 314        0.67774
     310 <- 315       -0.10700

 Excited State   3:      Singlet-A      2.2582 eV  549.03 nm  f=0.1209  <S**2>=0.000
     309 -> 313        0.63688
     311 -> 316       -0.28953

 Excited State   4:      Singlet-A      2.2617 eV  548.19 nm  f=0.0654  <S**2>=0.000
     310 -> 314        0.62138
     312 -> 315        0.32209

 Excited State   5:      Singlet-A      3.0296 eV  409.24 nm  f=0.0000  <S**2>=0.000
     312 -> 313        0.70709

 The electronic state is 1-A.
 Alpha  occ. eigenvalues --  -46.89384 -46.88528 -19.26517 -19.24376 -19.20048
 Alpha  occ. eigenvalues --  -19.19689 -19.19652 -19.19270 -19.18749 -19.18696
 Alpha  occ. eigenvalues --  -14.42550 -14.42200 -14.41792 -14.41439 -14.39872
 Alpha  occ. eigenvalues --  -14.39524 -14.38969 -14.38486 -10.39519 -10.39250
 Alpha  occ. eigenvalues --  -10.35536 -10.35502 -10.35405 -10.34830 -10.32849
 Alpha  occ. eigenvalues --  -10.31713 -10.31654 -10.31513 -10.31471 -10.31007
 Alpha  occ. eigenvalues --  -10.30828 -10.30764 -10.30617 -10.30493 -10.30354
 Alpha  occ. eigenvalues --  -10.30057 -10.30001 -10.29879 -10.29634 -10.29557
 Alpha  occ. eigenvalues --  -10.29468 -10.29018 -10.28705 -10.28353 -10.28232
 Alpha  occ. eigenvalues --  -10.28226 -10.28152 -10.28041 -10.27969 -10.27933
 Alpha  occ. eigenvalues --  -10.27911 -10.27795 -10.27725 -10.27680 -10.27638
 Alpha  occ. eigenvalues --  -10.27597 -10.27547 -10.27496 -10.27368 -10.27330
 Alpha  occ. eigenvalues --  -10.27328 -10.27201 -10.27197 -10.27120 -10.27106
 Alpha  occ. eigenvalues --  -10.26940 -10.26857 -10.26703 -10.26554 -10.26456
 Alpha  occ. eigenvalues --  -10.26384 -10.26384 -10.26282 -10.26220 -10.26061
 Alpha  occ. eigenvalues --  -10.26017 -10.25863 -10.25816 -10.25771 -10.25730
 Alpha  occ. eigenvalues --  -10.25641 -10.25452 -10.25271 -10.25182 -10.24853
 Alpha  occ. eigenvalues --  -10.24810  -3.17771  -3.17126  -1.92669  -1.92228
 Alpha  occ. eigenvalues --   -1.92063  -1.92004  -1.91562  -1.91453  -1.16654
 Alpha  occ. eigenvalues --   -1.16132  -1.12006  -1.09605  -1.09376  -1.08680
 Alpha  occ. eigenvalues --   -1.07777  -1.07408  -1.05166  -1.04135  -1.03954
 Alpha  occ. eigenvalues --   -1.03198  -1.03068  -1.02853  -1.02083  -1.01764
 Alpha  occ. eigenvalues --   -0.92781  -0.92228  -0.89684  -0.89361  -0.88894
 Alpha  occ. eigenvalues --   -0.88728  -0.88491  -0.87999  -0.87576  -0.87351
 Alpha  occ. eigenvalues --   -0.87139  -0.86898  -0.86664  -0.86523  -0.84832
 Alpha  occ. eigenvalues --   -0.84252  -0.84246  -0.83605  -0.83311  -0.82746
 Alpha  occ. eigenvalues --   -0.82479  -0.81928  -0.81515  -0.81152  -0.80609
 Alpha  occ. eigenvalues --   -0.80332  -0.78399  -0.77745  -0.77463  -0.77396
 Alpha  occ. eigenvalues --   -0.77047  -0.76701  -0.76272  -0.75875  -0.75148
 Alpha  occ. eigenvalues --   -0.75131  -0.72770  -0.72521  -0.71831  -0.71740
 Alpha  occ. eigenvalues --   -0.69274  -0.68910  -0.68765  -0.68634  -0.67770
 Alpha  occ. eigenvalues --   -0.67711  -0.67378  -0.67260  -0.65714  -0.65620
 Alpha  occ. eigenvalues --   -0.65489  -0.65323  -0.65061  -0.65015  -0.64575
 Alpha  occ. eigenvalues --   -0.64341  -0.62253  -0.61953  -0.60494  -0.60165
 Alpha  occ. eigenvalues --   -0.59649  -0.59618  -0.59446  -0.59248  -0.58533
 Alpha  occ. eigenvalues --   -0.58333  -0.58230  -0.57958  -0.57514  -0.57163
 Alpha  occ. eigenvalues --   -0.56427  -0.56166  -0.56061  -0.55910  -0.55217
 Alpha  occ. eigenvalues --   -0.54992  -0.54704  -0.54478  -0.54294  -0.53830
 Alpha  occ. eigenvalues --   -0.53712  -0.53580  -0.53258  -0.53237  -0.53183
 Alpha  occ. eigenvalues --   -0.52962  -0.52894  -0.52495  -0.52442  -0.52424
 Alpha  occ. eigenvalues --   -0.52134  -0.51700  -0.51697  -0.51582  -0.51491
 Alpha  occ. eigenvalues --   -0.51251  -0.51217  -0.50811  -0.50595  -0.50428
 Alpha  occ. eigenvalues --   -0.50365  -0.50173  -0.49990  -0.49984  -0.49879
 Alpha  occ. eigenvalues --   -0.49620  -0.49371  -0.49196  -0.48997  -0.48937
 Alpha  occ. eigenvalues --   -0.48851  -0.48446  -0.48275  -0.48190  -0.48076
 Alpha  occ. eigenvalues --   -0.47674  -0.47537  -0.47504  -0.47404  -0.47144
 Alpha  occ. eigenvalues --   -0.46975  -0.46906  -0.46662  -0.46436  -0.46313
 Alpha  occ. eigenvalues --   -0.46268  -0.46104  -0.45933  -0.45629  -0.45562
 Alpha  occ. eigenvalues --   -0.45321  -0.45166  -0.45046  -0.44941  -0.44941
 Alpha  occ. eigenvalues --   -0.44749  -0.44705  -0.44365  -0.44331  -0.44143
 Alpha  occ. eigenvalues --   -0.44060  -0.43860  -0.43737  -0.43696  -0.43481
 Alpha  occ. eigenvalues --   -0.43302  -0.43100  -0.43031  -0.42979  -0.42813
 Alpha  occ. eigenvalues --   -0.42734  -0.42577  -0.42322  -0.42318  -0.42174
 Alpha  occ. eigenvalues --   -0.41949  -0.41927  -0.41673  -0.41654  -0.41555
 Alpha  occ. eigenvalues --   -0.41253  -0.40880  -0.40601  -0.40566  -0.40261
 Alpha  occ. eigenvalues --   -0.40230  -0.40128  -0.39867  -0.39624  -0.39174
 Alpha  occ. eigenvalues --   -0.38787  -0.38400  -0.38242  -0.37678  -0.37620
 Alpha  occ. eigenvalues --   -0.37407  -0.37228  -0.36717  -0.36538  -0.36465
 Alpha  occ. eigenvalues --   -0.36014  -0.35942  -0.34680  -0.34351  -0.34183
 Alpha  occ. eigenvalues --   -0.33912  -0.33115  -0.32949  -0.31808  -0.31699
 Alpha  occ. eigenvalues --   -0.31184  -0.30916  -0.30772  -0.30572  -0.30572
 Alpha  occ. eigenvalues --   -0.30477  -0.29272  -0.28945  -0.24288  -0.23983
 Alpha  occ. eigenvalues --   -0.21269  -0.20983
 Alpha virt. eigenvalues --   -0.08771  -0.08291  -0.02072  -0.01716  -0.00150
 Alpha virt. eigenvalues --    0.00552   0.01740   0.02166   0.02307   0.02717
 Alpha virt. eigenvalues --    0.04545   0.04737   0.05183   0.05625   0.05766

 Mulliken charges:
               1
     1  Mg  11.999786
     2  C    6.002247
     3  C    5.997275
     4  C    5.998111
     5  C    6.002007
     6  N    6.999680
     7  C    5.996551
     8  C    6.001091
     9  C    5.999538
    10  C    6.003424
    11  C    6.000037
    12  C    6.000449
    13  C    6.000034
    14  H    0.999374
    15  N    6.998635
    16  C    6.004887
    17  C    6.002534
    18  C    6.001180
    19  C    6.004207
    20  C    5.999647
    21  C    6.001401
    22  O    8.002636
    23  C    5.999315
    24  N    7.000501
    25  C    6.004133
    26  C    5.998938
    27  C    6.000902
    28  C    5.996569
    29  C    5.999550
    30  C    6.000617
    31  C    6.000000
    32  N    7.000726
    33  C    5.995367
    34  C    5.997165
    35  C    5.999442
    36  C    5.996104
    37  C    6.000644
    38  C    5.998143
    39  O    7.996703
    40  C    5.999806
    41  C    5.999823
    42  O    7.999145
    43  O    8.000016
    44  C    6.000319
    45  H    1.000813
    46  H    1.000724
    47  H    0.999202
    48  H    0.999571
    49  H    0.999871
    50  H    1.000028
    51  H    1.001288
    52  H    0.999937
    53  H    0.998440
    54  H    1.000227
    55  H    0.999569
    56  H    1.000425
    57  H    1.002309
    58  H    1.002206
    59  H    1.002083
    60  H    1.000706
    61  H    1.000930
    62  H    1.001526
    63  H    1.000257
    64  H    1.000082
    65  H    1.001026
    66  H    1.000736
    67  H    0.999367
    68  H    0.999971
    69  H    0.998821
    70  H    1.000758
    71  H    0.999498
    72  H    0.999747
    73  H    0.998155
    74  H    0.997498
    75  H    0.998015
    76  H    0.999052
    77  H    0.999470
    78  H    0.999515
    79  H    0.999517
    80  Mg  11.999898
    81  C    5.975116
    82  C    6.008838
    83  C    6.025332
    84  C    5.986852
    85  N    6.984265
    86  C    6.031960
    87  C    5.986577
    88  C    6.015598
    89  C    5.967319
    90  C    6.003468
    91  C    5.997405
    92  C    5.997882
    93  H    1.007123
    94  N    7.006689
    95  C    5.960030
    96  C    5.976980
    97  C    5.989796
    98  C    5.959143
    99  C    6.003411
   100  C    5.992439
   101  O    7.982881
   102  C    5.996812
   103  N    7.004058
   104  C    5.969081
   105  C    6.004227
   106  C    5.992456
   107  C    6.033705
   108  C    6.000439
   109  C    5.991640
   110  C    5.999852
   111  N    6.999604
   112  C    6.039743
   113  C    6.026780
   114  C    6.007683
   115  C    6.034099
   116  C    5.997097
   117  C    6.016600
   118  O    8.031266
   119  C    6.002907
   120  C    6.002281
   121  O    8.005146
   122  O    8.001158
   123  C    5.997762
   124  H    0.985987
   125  H    0.994356
   126  H    1.008978
   127  H    1.001590
   128  H    0.997035
   129  H    1.005749
   130  H    0.987675
   131  H    0.989222
   132  H    1.009705
   133  H    0.997857
   134  H    0.994966
   135  H    0.998966
   136  H    0.983409
   137  H    0.981445
   138  H    0.980151
   139  H    0.987817
   140  H    0.992690
   141  H    0.991777
   142  H    0.999580
   143  H    1.003613
   144  H    0.990780
   145  H    1.004291
   146  H    1.002280
   147  H    1.002388
   148  H    1.013287
   149  H    0.999930
   150  H    0.994232
   151  H    1.005920
   152  H    1.019019
   153  H    1.015770
   154  H    1.022525
   155  H    1.010991
   156  H    1.002077
   157  H    1.003165
   158  H    1.007379
 Sum of Mulliken charges = 624.00000

 Dipole moment (field-independent basis, Debye):
    X=             -8.0223    Y=             -6.0385    Z=             -3.3017  Tot=             10.5699
 Quadrupole moment (field-independent basis, Debye-Ang):
   XX=            229.0054   YY=             -2.6848   ZZ=             -0.7087
   XY=            125.2473   XZ=             43.9185   YZ=             -2.5674

 Normal termination of Gaussian 16 at Wed Sep 22 13:54:10 2021.
