 Gaussian 16, Revision A.03,
 Gaussian 16:  ES64L-G16RevA.03 25-Dec-2016

 -----------------------------------
 #p cam-b3lyp/Def2SVP td=(nstates=5)
 -----------------------------------

 --------------------------------
 TDDFT excited states in gaussian
 --------------------------------
 Symbolic Z-matrix:
 Charge =  0 Multiplicity = 1

                         Standard orientation:
 ---------------------------------------------------------------------
 Center     Atomic      Atomic             Coordinates (Angstroms)
 Number     Number       Type             X           Y           Z
 ---------------------------------------------------------------------
      1         12           0       24.517599   -0.809614    0.344760
      2          6           0       24.662773    2.228118   -1.542916
      3          6           0       25.739452    0.955057    2.997320
      4          6           0       24.827385   -3.560063    1.892560
      5          6           0       24.402906   -2.517355   -2.691048
      6          7           0       25.087865    1.317014    0.574746
      7          6           0       25.039202    2.390534   -0.207788
      8          6           0       25.353361    3.718209    0.544513
      9          6           0       26.206443    3.126200    1.754379
     10          6           0       25.619592    1.726510    1.803367
     11          6           0       27.698453    3.023036    1.454770
     12          6           0       24.057213    4.434041    1.053742
     13          6           0       24.246939    5.884655    1.506596
     14          1           0       23.180777    6.842216    1.254162
     15          7           0       24.715127   -1.177975    2.275600
     16          6           0       25.216619   -0.338374    3.213077
     17          6           0       25.152817   -1.073499    4.494561
     18          6           0       24.750300   -2.475793    4.195152
     19          6           0       24.773933   -2.467418    2.754753
     20          6           0       25.408550   -0.432930    5.824230
     21          6           0       24.410126   -3.641721    5.068665
     22          8           0       24.313579   -4.830772    4.608870
     23          6           0       24.278134   -3.365763    6.510701
     24          7           0       24.824998   -2.772570   -0.295508
     25          6           0       24.863501   -3.785137    0.577538
     26          6           0       24.808487   -5.111154   -0.121456
     27          6           0       24.477897   -4.791433   -1.650587
     28          6           0       24.481602   -3.244677   -1.574411
     29          6           0       26.082960   -5.962882   -0.042160
     30          6           0       23.242942   -5.496669   -2.265360
     31          6           0       21.979485   -4.977201   -1.616569
     32          7           0       24.350893   -0.269808   -1.750917
     33          6           0       24.344913   -1.142686   -2.848516
     34          6           0       24.323626   -0.308227   -4.063956
     35          6           0       24.335520    1.000727   -3.586103
     36          6           0       24.389033    0.984948   -2.163015
     37          6           0       24.355322   -0.786287   -5.403690
     38          6           0       24.340342    2.409030   -3.947375
     39          8           0       24.212044    3.034453   -5.000883
     40          6           0       24.675357    3.259649   -2.643520
     41          6           0       23.678239    4.383464   -2.565383
     42          8           0       22.469532    4.152964   -2.357385
     43          8           0       24.331437    5.554272   -2.509866
     44          6           0       23.400708    6.709310   -2.401320
     45          1           0       26.336660    1.348509    3.822232
     46          1           0       24.823155   -4.532722    2.388901
     47          1           0       24.281019   -2.980222   -3.672042
     48          1           0       25.954398    4.430078   -0.021545
     49          1           0       26.008722    3.652875    2.687782
     50          1           0       27.912069    3.253208    0.411070
     51          1           0       27.970002    1.991616    1.680438
     52          1           0       28.275325    3.642062    2.142376
     53          1           0       23.745233    3.984668    1.996501
     54          1           0       23.271285    4.391880    0.298847
     55          1           0       25.205549    6.283880    1.174036
     56          1           0       24.311084    5.897160    2.594681
     57          1           0       25.843296    0.559692    5.713587
     58          1           0       26.186849   -1.017215    6.314710
     59          1           0       24.515261   -0.412932    6.448705
     60          1           0       25.214997   -2.952852    6.885322
     61          1           0       23.944823   -4.297708    6.965928
     62          1           0       23.523031   -2.592406    6.654534
     63          1           0       24.019174   -5.738228    0.291083
     64          1           0       25.298788   -5.067443   -2.312879
     65          1           0       25.921930   -6.953213    0.384478
     66          1           0       26.825016   -5.406591    0.529840
     67          1           0       26.600072   -6.101205   -0.991306
     68          1           0       23.284257   -6.568476   -2.074390
     69          1           0       23.158376   -5.354793   -3.342844
     70          1           0       21.906842   -5.577225   -0.710189
     71          1           0       21.120607   -5.146632   -2.266825
     72          1           0       22.088001   -3.936492   -1.310572
     73          1           0       23.622789   -0.197067   -5.955219
     74          1           0       24.123867   -1.850186   -5.450062
     75          1           0       25.390220   -0.572100   -5.670086
     76          1           0       25.695220    3.624662   -2.760854
     77          1           0       23.628905    7.384056   -3.226474
     78          1           0       23.504347    7.096574   -1.387569
     79          1           0       22.347697    6.499449   -2.592282
     80         12           0      -25.144268   -0.424459   -0.483853
     81          6           0      -22.875740    2.230686   -0.429305
     82          6           0      -26.987624    1.335735    1.924088
     83          6           0      -27.100143   -3.097229   -0.004444
     84          6           0      -22.738696   -2.368108   -1.993408
     85          7           0      -25.024259    1.657251    0.584557
     86          6           0      -23.944411    2.468738    0.430132
     87          6           0      -24.082060    3.753460    1.339720
     88          6           0      -25.308384    3.309661    2.286445
     89          6           0      -25.794096    2.013073    1.616996
     90          6           0      -24.704748    2.933180    3.686048
     91          6           0      -24.494854    4.948173    0.403608
     92          6           0      -24.823704    6.306452    1.080917
     93          1           0      -25.957585    7.248209    0.803859
     94          7           0      -26.894593   -0.723717    0.621687
     95          6           0      -27.550415    0.114894    1.538377
     96          6           0      -28.665164   -0.577968    2.032543
     97          6           0      -28.822952   -1.778635    1.353319
     98          6           0      -27.583419   -1.907792    0.605089
     99          6           0      -29.593011    0.084016    2.997878
    100          6           0      -29.930492   -2.878250    1.460025
    101          8           0      -29.968161   -3.902837    0.787163
    102          6           0      -31.206651   -2.669461    2.279881
    103          7           0      -24.870857   -2.449780   -0.839179
    104          6           0      -25.893380   -3.319756   -0.681610
    105          6           0      -25.640103   -4.695151   -1.329306
    106          6           0      -24.186072   -4.506875   -1.844198
    107          6           0      -23.927742   -3.020750   -1.672458
    108          6           0      -25.961905   -5.917574   -0.406947
    109          6           0      -23.862367   -5.035316   -3.268542
    110          6           0      -24.362825   -4.234631   -4.394966
    111          7           0      -23.236331   -0.156091   -1.190066
    112          6           0      -22.400768   -0.991708   -1.762055
    113          6           0      -21.176388   -0.321593   -2.212025
    114          6           0      -21.369538    0.992587   -1.678256
    115          6           0      -22.595415    1.036297   -1.043469
    116          6           0      -20.249820   -0.710647   -3.267101
    117          6           0      -20.746400    2.302404   -1.602768
    118          8           0      -19.737764    2.727635   -2.118803
    119          6           0      -21.696799    3.115751   -0.715733
    120          6           0      -20.980517    3.682119    0.514748
    121          8           0      -20.715039    3.043362    1.499662
    122          8           0      -20.633108    4.990368    0.276347
    123          6           0      -19.941245    5.612399    1.428729
    124          1           0      -27.617963    1.946743    2.572228
    125          1           0      -27.808940   -3.926873   -0.052114
    126          1           0      -22.228569   -3.143147   -2.568037
    127          1           0      -23.198357    3.927514    1.954151
    128          1           0      -26.089100    4.062528    2.401903
    129          1           0      -24.652547    1.871323    3.924393
    130          1           0      -25.383033    3.198392    4.497403
    131          1           0      -23.713349    3.348255    3.866411
    132          1           0      -25.342888    4.611716   -0.192215
    133          1           0      -23.692978    5.069897   -0.325096
    134          1           0      -23.879683    6.850512    1.038645
    135          1           0      -25.031054    5.971889    2.096617
    136          1           0      -29.302482    1.083221    3.323454
    137          1           0      -29.807423   -0.628569    3.795516
    138          1           0      -30.507532    0.219239    2.419758
    139          1           0      -31.035288   -2.621948    3.355334
    140          1           0      -32.015955   -3.361348    2.046051
    141          1           0      -31.632563   -1.724364    1.942475
    142          1           0      -26.386850   -4.613739   -2.118649
    143          1           0      -23.575901   -5.017146   -1.098932
    144          1           0      -26.754942   -5.675190    0.299700
    145          1           0      -25.069513   -6.182941    0.160509
    146          1           0      -26.318916   -6.784221   -0.963720
    147          1           0      -24.351763   -6.008590   -3.250046
    148          1           0      -22.794718   -5.240074   -3.350228
    149          1           0      -23.666215   -3.421832   -4.599759
    150          1           0      -25.376523   -3.881818   -4.206125
    151          1           0      -24.374210   -4.803530   -5.325132
    152          1           0      -20.835102   -1.353355   -3.925153
    153          1           0      -19.390109   -1.337744   -3.030468
    154          1           0      -19.909344    0.212763   -3.734404
    155          1           0      -22.097376    3.929781   -1.320779
    156          1           0      -19.196442    6.309652    1.045514
    157          1           0      -19.295171    4.956219    2.012308
    158          1           0      -20.636954    6.190355    2.036184
 ---------------------------------------------------------------------

 SCF Done:  E(RCAM-B3LYP) =  -4069.82766961     A.U. after   19 cycles

 Excitation energies and oscillator strengths:

 Excited State   1:      Singlet-A      1.6799 eV  738.06 nm  f=0.3868  <S**2>=0.000
     309 -> 315        0.17553
     311 -> 313        0.68569
     309 <- 315        0.10513
 This state for optimization and/or second-order correction.
 Total Energy, E(TD-HF/TD-DFT) =  -4069.76593588
 Copying the excited state density for this state as the 1-particle RhoCI density.

 Excited State   2:      Singlet-A      1.7450 eV  710.51 nm  f=0.3915  <S**2>=0.000
     310 -> 316       -0.18612
     312 -> 314        0.68383
     310 <- 316       -0.10700

 Excited State   3:      Singlet-A      2.1925 eV  565.48 nm  f=0.0983  <S**2>=0.000
     309 -> 313        0.64073
     311 -> 315       -0.27826

 Excited State   4:      Singlet-A      2.2617 eV  548.20 nm  f=0.1157  <S**2>=0.000
     310 -> 314        0.64504
     312 -> 316        0.27672

 Excited State   5:      Singlet-A      3.1652 eV  391.71 nm  f=0.0000  <S**2>=0.000
     312 -> 313        0.70711

 The electronic state is 1-A.
 Alpha  occ. eigenvalues --  -46.88698 -46.87760 -19.26246 -19.25777 -19.20405
 Alpha  occ. eigenvalues --  -19.19425 -19.18982 -19.18825 -19.18778 -19.18133
 Alpha  occ. eigenvalues --  -14.42413 -14.42236 -14.41413 -14.41052 -14.39366
 Alpha  occ. eigenvalues --  -14.39137 -14.39129 -14.38550 -10.39772 -10.39042
 Alpha  occ. eigenvalues --  -10.36160 -10.35412 -10.34501 -10.34353 -10.31805
 Alpha  occ. eigenvalues --  -10.31641 -10.31368 -10.31068 -10.30872 -10.30622
 Alpha  occ. eigenvalues --  -10.30567 -10.30533 -10.30471 -10.30351 -10.30170
 Alpha  occ. eigenvalues --  -10.29953 -10.29884 -10.29641 -10.29609 -10.29594
 Alpha  occ. eigenvalues --  -10.29218 -10.28712 -10.28690 -10.28668 -10.28549
 Alpha  occ. eigenvalues --  -10.28500 -10.28386 -10.28328 -10.28080 -10.27953
 Alpha  occ. eigenvalues --  -10.27756 -10.27730 -10.27691 -10.27635 -10.27589
 Alpha  occ. eigenvalues --  -10.27548 -10.27497 -10.27465 -10.27445 -10.27416
 Alpha  occ. eigenvalues --  -10.27414 -10.27367 -10.27266 -10.27121 -10.27092
 Alpha  occ. eigenvalues --  -10.27028 -10.26951 -10.26666 -10.26373 -10.26344
 Alpha  occ. eigenvalues --  -10.26199 -10.26183 -10.26147 -10.25983 -10.25982
 Alpha  occ. eigenvalues --  -10.25981 -10.25827 -10.25808 -10.25401 -10.25279
 Alpha  occ. eigenvalues --  -10.25263 -10.25120 -10.24796 -10.24751 -10.24649
 Alpha  occ. eigenvalues --  -10.24287  -3.17261  -3.16503  -1.92148  -1.91730
 Alpha  occ. eigenvalues --   -1.91549  -1.91384  -1.90971  -1.90813  -1.16824
 Alpha  occ. eigenvalues --   -1.16595  -1.10391  -1.10291  -1.08761  -1.08591
 Alpha  occ. eigenvalues --   -1.07179  -1.06604  -1.04962  -1.04544  -1.03774
 Alpha  occ. eigenvalues --   -1.03724  -1.03340  -1.03197  -1.02433  -1.02375
 Alpha  occ. eigenvalues --   -0.93813  -0.91935  -0.89483  -0.89426  -0.89151
 Alpha  occ. eigenvalues --   -0.88556  -0.88250  -0.88239  -0.87834  -0.87636
 Alpha  occ. eigenvalues --   -0.87476  -0.87237  -0.87213  -0.86191  -0.84945
 Alpha  occ. eigenvalues --   -0.84059  -0.83900  -0.83616  -0.82930  -0.82612
 Alpha  occ. eigenvalues --   -0.82396  -0.81549  -0.81531  -0.80918  -0.80559
 Alpha  occ. eigenvalues --   -0.80404  -0.78761  -0.78504  -0.77587  -0.77182
 Alpha  occ. eigenvalues --   -0.76897  -0.76576  -0.76145  -0.75886  -0.74862
 Alpha  occ. eigenvalues --   -0.74855  -0.72738  -0.72474  -0.71792  -0.71636
 Alpha  occ. eigenvalues --   -0.70042  -0.69870  -0.69155  -0.68836  -0.68348
 Alpha  occ. eigenvalues --   -0.67604  -0.67182  -0.66998  -0.65363  -0.65249
 Alpha  occ. eigenvalues --   -0.64819  -0.64817  -0.64584  -0.64433  -0.64233
 Alpha  occ. eigenvalues --   -0.64002  -0.62480  -0.62260  -0.60405  -0.60062
 Alpha  occ. eigenvalues --   -0.59768  -0.59440  -0.59370  -0.58951  -0.58626
 Alpha  occ. eigenvalues --   -0.58467  -0.58234  -0.57547  -0.57342  -0.57272
 Alpha  occ. eigenvalues --   -0.56544  -0.56273  -0.55941  -0.55720  -0.55497
 Alpha  occ. eigenvalues --   -0.55483  -0.55303  -0.55227  -0.54588  -0.54486
 Alpha  occ. eigenvalues --   -0.54006  -0.53858  -0.53262  -0.53241  -0.53185
 Alpha  occ. eigenvalues --   -0.53131  -0.52877  -0.52719  -0.52681  -0.52539
 Alpha  occ. eigenvalues --   -0.52401  -0.52087  -0.51879  -0.51579  -0.51159
 Alpha  occ. eigenvalues --   -0.51123  -0.51007  -0.50591  -0.50535  -0.50277
 Alpha  occ. eigenvalues --   -0.49995  -0.49914  -0.49882  -0.49621  -0.49478
 Alpha  occ. eigenvalues --   -0.49446  -0.49211  -0.49178  -0.49060  -0.48966
 Alpha  occ. eigenvalues --   -0.48813  -0.48556  -0.48489  -0.48425  -0.48409
 Alpha  occ. eigenvalues --   -0.47894  -0.47658  -0.47491  -0.47260  -0.47087
 Alpha  occ. eigenvalues --   -0.46760  -0.46651  -0.46518  -0.46322  -0.46126
 Alpha  occ. eigenvalues --   -0.46108  -0.45992  -0.45785  -0.45728  -0.45360
 Alpha  occ. eigenvalues --   -0.45165  -0.45067  -0.44961  -0.44726  -0.44541
 Alpha  occ. eigenvalues --   -0.44470  -0.44418  -0.44200  -0.44108  -0.44071
 Alpha  occ. eigenvalues --   -0.44052  -0.43983  -0.43846  -0.43658  -0.43458
 Alpha  occ. eigenvalues --   -0.43349  -0.43329  -0.43236  -0.42990  -0.42893
 Alpha  occ. eigenvalues --   -0.42662  -0.42618  -0.42566  -0.42396  -0.42383
 Alpha  occ. eigenvalues --   -0.41972  -0.41839  -0.41667  -0.41650  -0.41497
 Alpha  occ. eigenvalues --   -0.41105  -0.40832  -0.40786  -0.40763  -0.40535
 Alpha  occ. eigenvalues --   -0.40246  -0.40196  -0.39601  -0.39404  -0.38833
 Alpha  occ. eigenvalues --   -0.38467  -0.38432  -0.37839  -0.37739  -0.37711
 Alpha  occ. eigenvalues --   -0.37318  -0.37284  -0.37226  -0.36706  -0.36676
 Alpha  occ. eigenvalues --   -0.36348  -0.36155  -0.34919  -0.34261  -0.34249
 Alpha  occ. eigenvalues --   -0.33732  -0.33153  -0.33150  -0.31434  -0.31308
 Alpha  occ. eigenvalues --   -0.31083  -0.30999  -0.30798  -0.30043  -0.29992
 Alpha  occ. eigenvalues --   -0.29412  -0.29285  -0.29172  -0.24044  -0.23783
 Alpha  occ. eigenvalues --   -0.21091  -0.21065
 Alpha virt. eigenvalues --   -0.08738  -0.08375  -0.01713  -0.01321  -0.00021
 Alpha virt. eigenvalues --    0.00444   0.01907   0.02237   0.02565   0.03161
 Alpha virt. eigenvalues --    0.04754   0.05136   0.05158   0.05553   0.06214

 Mulliken charges:
               1
     1  Mg   0.838791
     2  C   -0.002952
     3  C   -0.094115
     4  C   -0.045863
     5  C   -0.063967
     6  N   -0.256796
     7  C   -0.052462
     8  C   -0.014027
     9  C   -0.086998
    10  C    0.046328
    11  C    0.104818
    12  C    0.053460
    13  C   -0.071824
    14  H    0.036178
    15  N   -0.433142
    16  C    0.168439
    17  C   -0.177155
    18  C   -0.003999
    19  C    0.148716
    20  C    0.110188
    21  C    0.012295
    22  O   -0.249628
    23  C    0.062460
    24  N   -0.341150
    25  C    0.041242
    26  C   -0.028163
    27  C   -0.023984
    28  C    0.074856
    29  C    0.076184
    30  C    0.035130
    31  C   -0.004506
    32  N   -0.310489
    33  C    0.080433
    34  C   -0.169715
    35  C    0.008343
    36  C    0.083014
    37  C    0.127306
    38  C    0.046127
    39  O   -0.188450
    40  C   -0.005329
    41  C    0.212860
    42  O   -0.257060
    43  O   -0.304812
    44  C    0.157684
    45  H   -0.017617
    46  H   -0.016847
    47  H   -0.041505
    48  H    0.000919
    49  H   -0.004024
    50  H    0.025457
    51  H    0.016432
    52  H    0.016638
    53  H    0.011233
    54  H    0.044148
    55  H    0.017840
    56  H    0.017958
    57  H    0.005868
    58  H    0.026797
    59  H    0.039584
    60  H    0.037325
    61  H    0.035654
    62  H    0.031544
    63  H    0.016566
    64  H    0.009432
    65  H    0.023198
    66  H    0.012526
    67  H    0.004725
    68  H    0.006349
    69  H    0.004721
    70  H    0.008789
    71  H    0.018173
    72  H    0.029002
    73  H    0.047583
    74  H    0.009111
    75  H    0.045975
    76  H    0.035122
    77  H    0.042928
    78  H    0.046405
    79  H    0.053723
    80  Mg   0.838648
    81  C    0.003050
    82  C   -0.061090
    83  C   -0.104776
    84  C   -0.054743
    85  N   -0.218655
    86  C   -0.092749
    87  C   -0.042312
    88  C   -0.061338
    89  C    0.011013
    90  C    0.050381
    91  C    0.024640
    92  C   -0.040716
    93  H    0.041607
    94  N   -0.391197
    95  C    0.155165
    96  C   -0.142633
    97  C   -0.042383
    98  C    0.127178
    99  C    0.119221
   100  C    0.040013
   101  O   -0.203578
   102  C    0.039537
   103  N   -0.333289
   104  C    0.048233
   105  C   -0.057742
   106  C    0.015395
   107  C   -0.039405
   108  C    0.082146
   109  C    0.031340
   110  C    0.039676
   111  N   -0.320459
   112  C    0.146498
   113  C   -0.155187
   114  C   -0.024218
   115  C    0.123328
   116  C    0.118389
   117  C    0.036030
   118  O   -0.149018
   119  C   -0.004681
   120  C    0.202131
   121  O   -0.198441
   122  O   -0.329899
   123  C    0.164256
   124  H   -0.038360
   125  H   -0.000498
   126  H   -0.043684
   127  H    0.025014
   128  H    0.023755
   129  H    0.021431
   130  H    0.003540
   131  H    0.029315
   132  H    0.011279
   133  H    0.008521
   134  H    0.027384
   135  H    0.016220
   136  H    0.020639
   137  H    0.026101
   138  H    0.028279
   139  H    0.036696
   140  H    0.028210
   141  H    0.021109
   142  H    0.014648
   143  H    0.015007
   144  H    0.028217
   145  H    0.010041
   146  H    0.017424
   147  H   -0.003788
   148  H    0.009905
   149  H    0.011561
   150  H    0.012326
   151  H    0.011289
   152  H    0.009266
   153  H    0.018046
   154  H    0.040691
   155  H    0.048861
   156  H    0.031878
   157  H    0.052095
   158  H    0.038222
 Sum of Mulliken charges =  -0.00000

 Dipole moment (field-independent basis, Debye):
    X=             -1.1044    Y=              1.3862    Z=              5.5595  Tot=              5.8351
 Quadrupole moment (field-independent basis, Debye-Ang):
   XX=           -231.2784   YY=           -485.5954   ZZ=           -501.6477
   XY=            -13.2450   XZ=             51.6821   YZ=             55.0364

 Normal termination of Gaussian 16 at Wed Sep  1 13:03:06 2021.
