 Gaussian 16, Revision A.03,
 Gaussian 16:  ES64L-G16RevA.03 25-Dec-2016

 -----------------------------------
 #p cam-b3lyp/Def2SVP td=(nstates=5)
 -----------------------------------

 --------------------------------
 TDDFT excited states in gaussian
 --------------------------------
 Symbolic Z-matrix:
 Charge =  0 Multiplicity = 1

                         Standard orientation:
 ---------------------------------------------------------------------
 Center     Atomic      Atomic             Coordinates (Angstroms)
 Number     Number       Type             X           Y           Z
 ---------------------------------------------------------------------
      1         12           0        5.081389   -0.474567   -0.312295
      2          6           0        2.929189    2.062580   -1.002525
      3          6           0        7.832579    1.603406   -0.185586
      4          6           0        7.079536   -3.211784    0.175982
      5          6           0        2.363130   -2.800344   -0.853323
      6          7           0        5.354901    1.549464   -0.772446
      7          6           0        4.272712    2.492100   -0.786233
      8          6           0        4.771600    3.871229   -0.616361
      9          6           0        6.343530    3.657519   -0.776266
     10          6           0        6.576353    2.176864   -0.573675
     11          6           0        6.905298    4.133490   -2.208068
     12          6           0        4.242756    4.605708    0.653852
     13          6           0        3.791603    6.013913    0.435018
     14          1           0        4.672817    6.880970   -0.548120
     15          7           0        7.163684   -0.755720    0.030594
     16          6           0        8.076084    0.257064    0.017961
     17          6           0        9.350163   -0.311642    0.296411
     18          6           0        9.180569   -1.736118    0.504564
     19          6           0        7.713644   -1.990606    0.311619
     20          6           0       10.649506    0.522054    0.255512
     21          6           0       10.124697   -2.835292    0.879777
     22          8           0        9.906714   -4.050896    0.933164
     23          6           0       11.565713   -2.362449    1.306764
     24          7           0        4.794636   -2.758118   -0.436894
     25          6           0        5.736315   -3.603219   -0.098433
     26          6           0        5.202716   -5.019868    0.104081
     27          6           0        3.691355   -4.866497   -0.230076
     28          6           0        3.594839   -3.375893   -0.549124
     29          6           0        5.932065   -6.124085   -0.817674
     30          6           0        2.839728   -5.274098    1.052037
     31          6           0        2.882595   -4.420764    2.343741
     32          7           0        3.086792   -0.419039   -0.982891
     33          6           0        2.138010   -1.418522   -1.088065
     34          6           0        0.850928   -0.743593   -1.352035
     35          6           0        1.042184    0.605221   -1.326310
     36          6           0        2.458278    0.747660   -1.093842
     37          6           0       -0.398634   -1.453471   -1.745041
     38          6           0        0.431117    1.928306   -1.451002
     39          8           0       -0.719602    2.263908   -1.676062
     40          6           0        1.665724    2.912332   -1.249025
     41          6           0        1.830504    3.667148   -2.507899
     42          8           0        1.993877    3.216369   -3.655103
     43          8           0        1.750558    4.988894   -2.118737
     44          6           0        2.071842    5.954293   -3.177995
     45          1           0        8.719067    2.232811   -0.084859
     46          1           0        7.753533   -4.025683    0.453585
     47          1           0        1.514854   -3.481209   -0.943063
     48          1           0        4.369275    4.409979   -1.475193
     49          1           0        6.838235    4.210470    0.021663
     50          1           0        6.206605    4.756509   -2.766436
     51          1           0        6.970930    3.232929   -2.818467
     52          1           0        7.880548    4.554762   -1.967659
     53          1           0        5.024575    4.634844    1.412859
     54          1           0        3.393294    3.989286    0.947689
     55          1           0        3.820162    6.616579    1.341953
     56          1           0        2.776585    6.244667    0.111319
     57          1           0       10.826464    1.168260    1.115203
     58          1           0       10.549545    1.058190   -0.688093
     59          1           0       11.549611   -0.090664    0.300547
     60          1           0       12.109694   -2.042166    0.418131
     61          1           0       11.994176   -3.131328    1.949423
     62          1           0       11.561265   -1.538933    2.021132
     63          1           0        5.312055   -5.282411    1.156055
     64          1           0        3.361139   -5.493635   -1.058231
     65          1           0        6.577650   -6.691545   -0.146409
     66          1           0        6.550207   -5.635191   -1.571353
     67          1           0        5.337029   -6.881377   -1.326510
     68          1           0        2.978340   -6.300818    1.390374
     69          1           0        1.825467   -5.150320    0.671098
     70          1           0        1.860115   -4.049245    2.413029
     71          1           0        3.631553   -3.630937    2.301728
     72          1           0        3.124088   -4.989728    3.241520
     73          1           0       -1.174647   -0.820243   -1.316113
     74          1           0       -0.444553   -2.474201   -1.364976
     75          1           0       -0.543659   -1.283914   -2.811161
     76          1           0        1.242253    3.567480   -0.488200
     77          1           0        1.835424    6.904261   -2.697779
     78          1           0        1.341632    5.781491   -3.968590
     79          1           0        3.056142    5.847836   -3.634445
     80         12           0       -5.097123   -0.799090    0.154914
     81          6           0       -3.205890    2.251720    1.118919
     82          6           0       -7.720657    1.314075   -0.119890
     83          6           0       -6.670219   -3.500393   -0.370404
     84          6           0       -2.296546   -2.628377    1.373273
     85          7           0       -5.397275    1.485928    0.519723
     86          6           0       -4.469156    2.495039    0.713268
     87          6           0       -5.016837    3.912947    0.514261
     88          6           0       -6.541001    3.586475    0.574967
     89          6           0       -6.602114    2.031293    0.316731
     90          6           0       -7.222682    3.959728    1.853599
     91          6           0       -4.535067    4.694968   -0.753511
     92          6           0       -4.443225    6.181950   -0.668821
     93          1           0       -4.837248    6.933067   -1.936647
     94          7           0       -6.987420   -1.084240   -0.256366
     95          6           0       -7.959087   -0.071239   -0.396052
     96          6           0       -9.153544   -0.681101   -0.905175
     97          6           0       -8.768982   -2.075385   -1.121393
     98          6           0       -7.463840   -2.233519   -0.589014
     99          6           0      -10.466444    0.091255   -1.299646
    100          6           0       -9.624891   -3.116222   -1.775912
    101          8           0       -9.259697   -4.312960   -1.875192
    102          6           0      -10.938059   -2.814765   -2.400659
    103          7           0       -4.676189   -2.781074    0.584541
    104          6           0       -5.505031   -3.769612    0.242837
    105          6           0       -4.943123   -5.197698    0.535913
    106          6           0       -3.416070   -4.833158    0.650742
    107          6           0       -3.445673   -3.306422    0.934875
    108          6           0       -5.497281   -5.788467    1.872215
    109          6           0       -2.624795   -5.120877   -0.693807
    110          6           0       -2.703194   -6.522523   -1.334618
    111          7           0       -3.132197   -0.327248    1.019119
    112          6           0       -2.113236   -1.198634    1.386729
    113          6           0       -0.996617   -0.446158    1.908895
    114          6           0       -1.365708    0.899514    1.786650
    115          6           0       -2.708669    0.938606    1.320918
    116          6           0        0.327506   -0.986617    2.333084
    117          6           0       -0.901106    2.263922    1.999808
    118          8           0        0.157065    2.752813    2.372923
    119          6           0       -2.123011    3.170070    1.454609
    120          6           0       -2.402581    4.125683    2.512606
    121          8           0       -2.796006    3.871225    3.661844
    122          8           0       -1.757023    5.288276    2.202525
    123          6           0       -1.812540    6.384997    3.114985
    124          1           0       -8.481708    2.068377   -0.331168
    125          1           0       -7.172900   -4.454265   -0.542218
    126          1           0       -1.462371   -3.243975    1.717383
    127          1           0       -4.744085    4.487805    1.399529
    128          1           0       -7.056164    4.003963   -0.289635
    129          1           0       -7.413441    3.032319    2.393660
    130          1           0       -8.195985    4.399196    1.635789
    131          1           0       -6.689043    4.629020    2.528131
    132          1           0       -5.263055    4.496763   -1.539665
    133          1           0       -3.592041    4.249236   -1.068798
    134          1           0       -3.387513    6.358947   -0.464268
    135          1           0       -4.881782    6.577625    0.247366
    136          1           0      -10.645646    0.198035   -2.369090
    137          1           0      -10.521264    1.060333   -0.804402
    138          1           0      -11.228125   -0.540877   -0.841502
    139          1           0      -11.670312   -2.675395   -1.604959
    140          1           0      -11.185417   -3.691848   -2.999311
    141          1           0      -10.779796   -1.956025   -3.052208
    142          1           0       -5.228194   -5.809687   -0.320499
    143          1           0       -2.877307   -5.308492    1.469871
    144          1           0       -6.131376   -6.631081    1.595361
    145          1           0       -6.016262   -5.086784    2.524402
    146          1           0       -4.583193   -6.154980    2.341501
    147          1           0       -1.560628   -4.986584   -0.501330
    148          1           0       -2.907230   -4.326018   -1.383892
    149          1           0       -3.103878   -6.345840   -2.332671
    150          1           0       -3.443493   -7.048104   -0.730759
    151          1           0       -1.729311   -7.006654   -1.405635
    152          1           0        0.333284   -2.009100    1.954767
    153          1           0        0.320695   -0.975370    3.422969
    154          1           0        1.178060   -0.387952    2.007161
    155          1           0       -1.818677    3.679765    0.540627
    156          1           0       -2.427548    6.156328    3.985652
    157          1           0       -2.302861    7.186366    2.562130
    158          1           0       -0.815632    6.754990    3.350260
 ---------------------------------------------------------------------

 SCF Done:  E(RCAM-B3LYP) =  -4069.81062041     A.U. after   19 cycles

 Excitation energies and oscillator strengths:

 Excited State   1:      Singlet-A      1.6157 eV  767.38 nm  f=0.8712  <S**2>=0.000
     310 -> 316       -0.11122
     311 -> 313        0.58556
     312 -> 314       -0.36284
 This state for optimization and/or second-order correction.
 Total Energy, E(TD-HF/TD-DFT) =  -4069.75124524
 Copying the excited state density for this state as the 1-particle RhoCI density.

 Excited State   2:      Singlet-A      1.7100 eV  725.04 nm  f=0.0503  <S**2>=0.000
     309 -> 315       -0.15987
     311 -> 313        0.36677
     312 -> 314        0.57543

 Excited State   3:      Singlet-A      2.0844 eV  594.83 nm  f=0.0002  <S**2>=0.000
     312 -> 313        0.69961

 Excited State   4:      Singlet-A      2.1623 eV  573.39 nm  f=0.1617  <S**2>=0.000
     310 -> 313        0.66234
     311 -> 316        0.18748

 Excited State   5:      Singlet-A      2.2601 eV  548.59 nm  f=0.0595  <S**2>=0.000
     309 -> 314        0.60083
     312 -> 315        0.34123

 The electronic state is 1-A.
 Alpha  occ. eigenvalues --  -46.89192 -46.88558 -19.25593 -19.24624 -19.20214
 Alpha  occ. eigenvalues --  -19.19973 -19.19891 -19.19478 -19.19164 -19.17197
 Alpha  occ. eigenvalues --  -14.42198 -14.42182 -14.41985 -14.41125 -14.39485
 Alpha  occ. eigenvalues --  -14.39435 -14.39415 -14.39263 -10.39450 -10.38858
 Alpha  occ. eigenvalues --  -10.35858 -10.35683 -10.35638 -10.33758 -10.31911
 Alpha  occ. eigenvalues --  -10.31816 -10.31646 -10.31190 -10.31069 -10.30878
 Alpha  occ. eigenvalues --  -10.30469 -10.30434 -10.30317 -10.30311 -10.30186
 Alpha  occ. eigenvalues --  -10.30162 -10.30072 -10.29864 -10.29610 -10.29562
 Alpha  occ. eigenvalues --  -10.29218 -10.28802 -10.28770 -10.28695 -10.28677
 Alpha  occ. eigenvalues --  -10.28423 -10.28204 -10.28153 -10.28059 -10.27996
 Alpha  occ. eigenvalues --  -10.27932 -10.27824 -10.27820 -10.27817 -10.27813
 Alpha  occ. eigenvalues --  -10.27656 -10.27622 -10.27616 -10.27605 -10.27573
 Alpha  occ. eigenvalues --  -10.27532 -10.27420 -10.27375 -10.27372 -10.27311
 Alpha  occ. eigenvalues --  -10.27135 -10.27038 -10.27006 -10.26712 -10.26501
 Alpha  occ. eigenvalues --  -10.26465 -10.26445 -10.26262 -10.26202 -10.25998
 Alpha  occ. eigenvalues --  -10.25905 -10.25844 -10.25819 -10.25695 -10.25681
 Alpha  occ. eigenvalues --  -10.25429 -10.25402 -10.25323 -10.25303 -10.25238
 Alpha  occ. eigenvalues --  -10.24716  -3.17596  -3.17222  -1.92498  -1.92090
 Alpha  occ. eigenvalues --   -1.92041  -1.91898  -1.91674  -1.91546  -1.16333
 Alpha  occ. eigenvalues --   -1.15910  -1.10549  -1.10194  -1.09585  -1.07433
 Alpha  occ. eigenvalues --   -1.07232  -1.06791  -1.05133  -1.04626  -1.03745
 Alpha  occ. eigenvalues --   -1.03676  -1.03399  -1.02845  -1.02207  -1.01611
 Alpha  occ. eigenvalues --   -0.93278  -0.92280  -0.89081  -0.89049  -0.88668
 Alpha  occ. eigenvalues --   -0.88579  -0.88010  -0.87817  -0.87244  -0.87181
 Alpha  occ. eigenvalues --   -0.86891  -0.86568  -0.86200  -0.85956  -0.84527
 Alpha  occ. eigenvalues --   -0.84322  -0.83806  -0.83345  -0.82991  -0.82406
 Alpha  occ. eigenvalues --   -0.81797  -0.81437  -0.81167  -0.80826  -0.80598
 Alpha  occ. eigenvalues --   -0.79905  -0.78311  -0.78057  -0.77262  -0.77168
 Alpha  occ. eigenvalues --   -0.77146  -0.77100  -0.75950  -0.75752  -0.75227
 Alpha  occ. eigenvalues --   -0.74951  -0.73066  -0.72410  -0.72130  -0.70704
 Alpha  occ. eigenvalues --   -0.69944  -0.69188  -0.69116  -0.68366  -0.68174
 Alpha  occ. eigenvalues --   -0.67758  -0.67324  -0.66614  -0.65318  -0.65196
 Alpha  occ. eigenvalues --   -0.64989  -0.64842  -0.64709  -0.64631  -0.64378
 Alpha  occ. eigenvalues --   -0.64229  -0.62502  -0.61848  -0.60508  -0.60280
 Alpha  occ. eigenvalues --   -0.59513  -0.59361  -0.59154  -0.58888  -0.58666
 Alpha  occ. eigenvalues --   -0.58511  -0.58138  -0.57839  -0.57491  -0.57391
 Alpha  occ. eigenvalues --   -0.55897  -0.55670  -0.55493  -0.55371  -0.55046
 Alpha  occ. eigenvalues --   -0.54814  -0.54682  -0.54444  -0.54369  -0.54178
 Alpha  occ. eigenvalues --   -0.53372  -0.53317  -0.53148  -0.53008  -0.52971
 Alpha  occ. eigenvalues --   -0.52614  -0.52553  -0.52323  -0.52245  -0.52089
 Alpha  occ. eigenvalues --   -0.51996  -0.51875  -0.51667  -0.51517  -0.51282
 Alpha  occ. eigenvalues --   -0.51149  -0.50975  -0.50833  -0.50570  -0.50133
 Alpha  occ. eigenvalues --   -0.49990  -0.49787  -0.49674  -0.49575  -0.49520
 Alpha  occ. eigenvalues --   -0.49400  -0.48984  -0.48949  -0.48878  -0.48645
 Alpha  occ. eigenvalues --   -0.48564  -0.48517  -0.48212  -0.48109  -0.48056
 Alpha  occ. eigenvalues --   -0.47876  -0.47707  -0.47594  -0.47353  -0.47285
 Alpha  occ. eigenvalues --   -0.47174  -0.47120  -0.46855  -0.46722  -0.46215
 Alpha  occ. eigenvalues --   -0.46156  -0.46153  -0.45983  -0.45817  -0.45667
 Alpha  occ. eigenvalues --   -0.45627  -0.45106  -0.44983  -0.44915  -0.44848
 Alpha  occ. eigenvalues --   -0.44717  -0.44506  -0.44452  -0.44275  -0.43805
 Alpha  occ. eigenvalues --   -0.43685  -0.43484  -0.43353  -0.43193  -0.43013
 Alpha  occ. eigenvalues --   -0.42949  -0.42912  -0.42886  -0.42768  -0.42600
 Alpha  occ. eigenvalues --   -0.42445  -0.42272  -0.42211  -0.42027  -0.41917
 Alpha  occ. eigenvalues --   -0.41817  -0.41694  -0.41641  -0.41435  -0.41332
 Alpha  occ. eigenvalues --   -0.41051  -0.40566  -0.40562  -0.40482  -0.40393
 Alpha  occ. eigenvalues --   -0.39832  -0.39716  -0.39332  -0.39133  -0.38811
 Alpha  occ. eigenvalues --   -0.38521  -0.37908  -0.37781  -0.37458  -0.37421
 Alpha  occ. eigenvalues --   -0.37112  -0.36802  -0.36667  -0.36359  -0.36078
 Alpha  occ. eigenvalues --   -0.35922  -0.35654  -0.34611  -0.34306  -0.34175
 Alpha  occ. eigenvalues --   -0.34054  -0.33443  -0.32844  -0.31442  -0.31311
 Alpha  occ. eigenvalues --   -0.31156  -0.31101  -0.30961  -0.30446  -0.29878
 Alpha  occ. eigenvalues --   -0.29845  -0.29570  -0.29500  -0.24350  -0.23939
 Alpha  occ. eigenvalues --   -0.21429  -0.20917
 Alpha virt. eigenvalues --   -0.09378  -0.08465  -0.02299  -0.00492  -0.00325
 Alpha virt. eigenvalues --    0.00523   0.01992   0.02149   0.02303   0.02573
 Alpha virt. eigenvalues --    0.04218   0.04793   0.05149   0.05227   0.05443

 Mulliken charges:
               1
     1  Mg   0.798012
     2  C    0.025813
     3  C   -0.097660
     4  C   -0.027100
     5  C   -0.074748
     6  N   -0.372395
     7  C   -0.040946
     8  C   -0.006090
     9  C   -0.083462
    10  C    0.111001
    11  C    0.079557
    12  C    0.110578
    13  C   -0.084090
    14  H   -0.019396
    15  N   -0.377985
    16  C    0.154820
    17  C   -0.132655
    18  C   -0.038334
    19  C    0.105250
    20  C    0.104446
    21  C    0.019195
    22  O   -0.205797
    23  C    0.005606
    24  N   -0.192741
    25  C   -0.005312
    26  C   -0.021855
    27  C    0.005874
    28  C    0.004551
    29  C    0.043688
    30  C   -0.020863
    31  C    0.000658
    32  N   -0.316973
    33  C    0.121449
    34  C   -0.232346
    35  C    0.042535
    36  C    0.081508
    37  C    0.130331
    38  C    0.069105
    39  O   -0.172148
    40  C   -0.040269
    41  C    0.205385
    42  O   -0.231558
    43  O   -0.339464
    44  C    0.183634
    45  H   -0.025141
    46  H   -0.002976
    47  H   -0.024726
    48  H    0.010267
    49  H    0.001208
    50  H    0.021822
    51  H    0.022967
    52  H    0.028055
    53  H    0.013464
    54  H    0.035196
    55  H    0.020265
    56  H    0.040760
    57  H    0.032115
    58  H    0.040581
    59  H   -0.006274
    60  H    0.058965
    61  H    0.025841
    62  H    0.021153
    63  H    0.023893
    64  H    0.010082
    65  H    0.021607
    66  H    0.027819
    67  H    0.018428
    68  H    0.016289
    69  H   -0.007952
    70  H    0.019677
    71  H    0.023398
    72  H    0.015835
    73  H    0.037866
    74  H    0.017331
    75  H    0.035318
    76  H    0.047087
    77  H    0.040772
    78  H    0.035503
    79  H    0.042015
    80  Mg   0.848600
    81  C    0.025046
    82  C   -0.054212
    83  C   -0.032325
    84  C   -0.074708
    85  N   -0.231556
    86  C   -0.074690
    87  C   -0.052488
    88  C   -0.049733
    89  C   -0.040599
    90  C    0.095986
    91  C    0.076744
    92  C   -0.057267
    93  H    0.034684
    94  N   -0.406304
    95  C    0.180197
    96  C   -0.159257
    97  C   -0.027842
    98  C    0.118044
    99  C    0.117127
   100  C   -0.040747
   101  O   -0.245462
   102  C    0.073581
   103  N   -0.320543
   104  C    0.021527
   105  C   -0.057915
   106  C   -0.051260
   107  C    0.069293
   108  C    0.098724
   109  C   -0.004402
   110  C    0.028336
   111  N   -0.315745
   112  C    0.091429
   113  C   -0.192472
   114  C    0.013304
   115  C    0.090507
   116  C    0.138772
   117  C    0.078722
   118  O   -0.169115
   119  C    0.008397
   120  C    0.182670
   121  O   -0.242077
   122  O   -0.318472
   123  C    0.171015
   124  H   -0.033414
   125  H   -0.014650
   126  H   -0.027721
   127  H    0.008015
   128  H   -0.000310
   129  H    0.021525
   130  H    0.010748
   131  H    0.025564
   132  H    0.006998
   133  H    0.027519
   134  H    0.023993
   135  H    0.017386
   136  H    0.046424
   137  H    0.016809
   138  H    0.021330
   139  H    0.041275
   140  H    0.028034
   141  H    0.025368
   142  H    0.021639
   143  H   -0.002203
   144  H    0.023390
   145  H    0.038298
   146  H    0.005988
   147  H    0.000064
   148  H    0.016832
   149  H    0.021401
   150  H    0.017023
   151  H    0.022797
   152  H    0.008857
   153  H    0.031342
   154  H    0.043696
   155  H    0.049923
   156  H    0.049300
   157  H    0.016370
   158  H    0.039559
 Sum of Mulliken charges =  -0.00000

 Dipole moment (field-independent basis, Debye):
    X=              1.2250    Y=              3.7305    Z=              0.3636  Tot=              3.9433
 Quadrupole moment (field-independent basis, Debye-Ang):
   XX=           -484.0898   YY=           -479.6732   ZZ=           -534.3744
   XY=              0.8026   XZ=              9.7432   YZ=            -10.2162

 Normal termination of Gaussian 16 at Tue Sep 14 15:31:33 2021.
