 Gaussian 16, Revision A.03,
 Gaussian 16:  ES64L-G16RevA.03 25-Dec-2016

 ----------------------------------------------------------
 #p cam-b3lyp/Def2SVP td=(nstates=5) density=(transition=1)
 ----------------------------------------------------------

 --------------------------------
 TDDFT excited states in gaussian
 --------------------------------
 Symbolic Z-matrix:
 Charge =  0 Multiplicity = 1

                         Standard orientation:
 ---------------------------------------------------------------------
 Center     Atomic      Atomic             Coordinates (Angstroms)
 Number     Number       Type             X           Y           Z
 ---------------------------------------------------------------------
      1         12           0      -27.851637   -0.172680   -0.563274
      2          6           0      -24.803062    0.885265    0.721243
      3          6           0      -27.407800   -3.257985    1.122686
      4          6           0      -31.131568   -0.771112   -0.782557
      5          6           0      -28.430481    3.151441   -1.584952
      6          7           0      -26.381773   -0.959508    1.101807
      7          6           0      -25.126845   -0.409013    1.204003
      8          6           0      -24.219563   -1.261271    2.034708
      9          6           0      -24.945781   -2.681512    1.945807
     10          6           0      -26.365447   -2.320273    1.382035
     11          6           0      -24.203299   -3.798611    1.052787
     12          6           0      -23.998387   -0.604188    3.493051
     13          6           0      -22.759369   -0.968726    4.139705
     14          1           0      -22.951274   -1.583427    5.542353
     15          7           0      -29.075989   -1.834334   -0.098767
     16          6           0      -28.700353   -3.019470    0.593599
     17          6           0      -29.865010   -3.887393    0.638046
     18          6           0      -30.969358   -3.205842    0.071224
     19          6           0      -30.395615   -1.895417   -0.385199
     20          6           0      -29.848965   -5.189402    1.348415
     21          6           0      -32.448359   -3.777145    0.032397
     22          8           0      -32.625321   -4.895024    0.514080
     23          6           0      -33.536811   -3.145894   -0.828921
     24          7           0      -29.499253    1.074705   -1.010508
     25          6           0      -30.727400    0.512873   -1.144141
     26          6           0      -31.899607    1.618628   -1.511113
     27          6           0      -30.977004    2.842428   -1.983038
     28          6           0      -29.549368    2.380799   -1.550687
     29          6           0      -32.901289    1.204139   -2.654554
     30          6           0      -31.358955    4.170950   -1.327624
     31          6           0      -31.764281    5.392186   -2.187350
     32          7           0      -26.739890    1.560440   -0.718681
     33          6           0      -27.094847    2.794562   -1.180572
     34          6           0      -25.934556    3.642097   -1.196447
     35          6           0      -25.006705    2.898246   -0.374462
     36          6           0      -25.598341    1.655544   -0.090572
     37          6           0      -25.873796    5.065042   -1.671620
     38          6           0      -23.730682    2.993078    0.303472
     39          8           0      -22.863106    3.805538    0.195719
     40          6           0      -23.466869    1.624293    1.043815
     41          6           0      -22.278120    0.808661    0.489331
     42          8           0      -22.107246    0.549564   -0.682521
     43          8           0      -21.383350    0.506134    1.536432
     44          6           0      -20.138617   -0.097272    1.166963
     45          1           0      -27.180607   -4.210979    1.603390
     46          1           0      -32.215077   -0.819386   -0.656894
     47          1           0      -28.648675    4.162935   -1.932412
     48          1           0      -23.286366   -1.497022    1.522129
     49          1           0      -25.055145   -3.066827    2.960191
     50          1           0      -23.998608   -4.620266    1.739026
     51          1           0      -23.287416   -3.432108    0.590207
     52          1           0      -24.925894   -4.114971    0.299985
     53          1           0      -24.829530   -1.002735    4.074586
     54          1           0      -24.179956    0.448441    3.274340
     55          1           0      -22.177412   -0.050754    4.212625
     56          1           0      -22.241269   -1.728125    3.554120
     57          1           0      -28.833467   -5.504811    1.587305
     58          1           0      -30.223300   -5.975464    0.692133
     59          1           0      -30.398917   -5.134753    2.288211
     60          1           0      -33.831290   -2.147690   -0.503395
     61          1           0      -34.392862   -3.821358   -0.818740
     62          1           0      -33.162799   -3.119139   -1.852458
     63          1           0      -32.349722    1.832016   -0.541983
     64          1           0      -30.873122    2.949716   -3.062980
     65          1           0      -33.898882    1.068962   -2.237675
     66          1           0      -32.574918    0.263295   -3.099339
     67          1           0      -32.892714    2.014790   -3.383957
     68          1           0      -30.607341    4.494475   -0.607906
     69          1           0      -32.169626    4.104289   -0.602219
     70          1           0      -31.076325    6.237551   -2.217626
     71          1           0      -32.668885    5.776724   -1.715646
     72          1           0      -31.945267    5.103913   -3.223540
     73          1           0      -24.821848    5.300288   -1.835258
     74          1           0      -26.027573    5.817453   -0.898743
     75          1           0      -26.532428    5.301247   -2.506974
     76          1           0      -23.223981    1.941943    2.058207
     77          1           0      -19.913177   -0.645603    2.082203
     78          1           0      -19.335086    0.635316    1.093161
     79          1           0      -20.239589   -0.663178    0.241731
     80         12           0       27.650781    0.544939   -0.241066
     81          6           0       25.805712   -2.455976   -0.356460
     82          6           0       24.783036    2.103183    0.528712
     83          6           0       29.537358    3.151384    0.331544
     84          6           0       30.572308   -1.509164   -0.366777
     85          7           0       25.547667   -0.137187    0.091909
     86          6           0       24.981640   -1.356087   -0.074338
     87          6           0       23.479725   -1.362085    0.126194
     88          6           0       23.197074    0.193865    0.133651
     89          6           0       24.574701    0.807529    0.274330
     90          6           0       22.435719    0.740095   -1.143969
     91          6           0       22.801748   -2.092595    1.366191
     92          6           0       23.630545   -2.529019    2.603422
     93          1           0       22.930779   -2.484412    4.013069
     94          7           0       27.142719    2.437818    0.232554
     95          6           0       25.950753    2.875161    0.615914
     96          6           0       26.075257    4.291824    1.054923
     97          6           0       27.504326    4.647380    0.825808
     98          6           0       28.121749    3.373119    0.457056
     99          6           0       24.906849    5.166112    1.422807
    100          6           0       28.127811    5.995092    1.078750
    101          8           0       27.403878    6.921921    1.434023
    102          6           0       29.664291    6.321215    0.989283
    103          7           0       29.837958    0.793050    0.074857
    104          6           0       30.248212    2.013253    0.118655
    105          6           0       31.839708    1.983721    0.045165
    106          6           0       32.098418    0.475933    0.073807
    107          6           0       30.727838   -0.158017   -0.065991
    108          6           0       32.550019    2.710559   -1.108930
    109          6           0       32.669210   -0.057047    1.488317
    110          6           0       34.110697   -0.598126    1.486583
    111          7           0       28.161948   -1.517044   -0.276025
    112          6           0       29.343864   -2.187824   -0.448226
    113          6           0       29.092903   -3.612501   -0.787886
    114          6           0       27.691294   -3.813752   -0.640613
    115          6           0       27.195996   -2.453528   -0.437143
    116          6           0       30.148497   -4.717088   -1.017507
    117          6           0       26.600101   -4.729879   -0.655877
    118          8           0       26.507462   -5.968752   -0.694982
    119          6           0       25.308385   -3.880138   -0.548003
    120          6           0       24.481197   -4.170817   -1.803622
    121          8           0       23.479493   -4.808843   -1.991076
    122          8           0       24.968887   -3.355286   -2.830553
    123          6           0       24.240679   -3.374978   -4.137142
    124          1           0       23.836038    2.582807    0.785599
    125          1           0       30.122043    4.060372    0.492447
    126          1           0       31.458936   -2.073118   -0.662716
    127          1           0       23.081614   -1.762805   -0.805849
    128          1           0       22.560316    0.438558    0.983931
    129          1           0       22.271827   -0.055978   -1.869492
    130          1           0       23.198994    1.374205   -1.593653
    131          1           0       21.523661    1.252041   -0.836560
    132          1           0       22.290717   -2.970061    0.969743
    133          1           0       21.990036   -1.467730    1.740247
    134          1           0       24.491505   -1.860975    2.628282
    135          1           0       23.890671   -3.587068    2.608158
    136          1           0       25.155928    6.226590    1.454530
    137          1           0       24.485295    4.743765    2.335726
    138          1           0       24.159800    4.926092    0.665511
    139          1           0       30.242184    6.072939    0.098260
    140          1           0       30.174281    5.747425    1.763096
    141          1           0       29.866315    7.382690    1.129748
    142          1           0       32.286805    2.481331    0.905079
    143          1           0       32.792405    0.046689   -0.649689
    144          1           0       31.842485    3.212079   -1.769407
    145          1           0       33.203031    2.038981   -1.667305
    146          1           0       33.196835    3.522977   -0.777698
    147          1           0       32.071199   -0.878415    1.880703
    148          1           0       32.584173    0.788251    2.171550
    149          1           0       34.308340   -1.411019    2.185767
    150          1           0       34.727742    0.238052    1.815345
    151          1           0       34.251567   -0.926882    0.456863
    152          1           0       31.162054   -4.457523   -0.713603
    153          1           0       30.134027   -4.872954   -2.095929
    154          1           0       29.780725   -5.636745   -0.563120
    155          1           0       24.749126   -4.185167    0.335850
    156          1           0       23.736092   -4.292531   -4.438988
    157          1           0       25.039000   -3.235110   -4.865747
    158          1           0       23.538150   -2.569889   -4.353475
 ---------------------------------------------------------------------

 SCF Done:  E(RCAM-B3LYP) =  -4069.76531112     A.U. after   18 cycles

 Excitation energies and oscillator strengths:

 Excited State   1:      Singlet-A      1.6845 eV  736.01 nm  f=0.3879  <S**2>=0.000
     310 -> 316       -0.17410
     312 -> 314        0.68817
     310 <- 316       -0.10834
 This state for optimization and/or second-order correction.
 Total Energy, E(TD-HF/TD-DFT) =  -4069.70340536
 Copying the excited state density for this state as the 1-particle RhoCI density.

 Excited State   2:      Singlet-A      1.7690 eV  700.88 nm  f=0.4107  <S**2>=0.000
     309 -> 315        0.18509
     311 -> 313        0.68379
     309 <- 315        0.10633

 Excited State   3:      Singlet-A      2.2457 eV  552.09 nm  f=0.1078  <S**2>=0.000
     310 -> 314        0.63690
     312 -> 316        0.29189

 Excited State   4:      Singlet-A      2.2834 eV  542.99 nm  f=0.0988  <S**2>=0.000
     309 -> 313        0.63711
     311 -> 315       -0.29627

 Excited State   5:      Singlet-A      3.1634 eV  391.93 nm  f=0.0000  <S**2>=0.000
     312 -> 313        0.70711

 The electronic state is 1-A.
 Alpha  occ. eigenvalues --  -46.90075 -46.89800 -19.25131 -19.24604 -19.20743
 Alpha  occ. eigenvalues --  -19.20421 -19.19696 -19.19472 -19.18606 -19.18258
 Alpha  occ. eigenvalues --  -14.42322 -14.42312 -14.42012 -14.41847 -14.40443
 Alpha  occ. eigenvalues --  -14.40197 -14.40171 -14.39081 -10.40082 -10.39886
 Alpha  occ. eigenvalues --  -10.36380 -10.35696 -10.35612 -10.34019 -10.31873
 Alpha  occ. eigenvalues --  -10.31811 -10.31621 -10.31529 -10.31457 -10.31188
 Alpha  occ. eigenvalues --  -10.31130 -10.31034 -10.30969 -10.30778 -10.30736
 Alpha  occ. eigenvalues --  -10.30560 -10.30475 -10.30182 -10.30115 -10.30107
 Alpha  occ. eigenvalues --  -10.29873 -10.29653 -10.29411 -10.29281 -10.28975
 Alpha  occ. eigenvalues --  -10.28803 -10.28761 -10.28649 -10.28508 -10.28508
 Alpha  occ. eigenvalues --  -10.28479 -10.28221 -10.28163 -10.28134 -10.28116
 Alpha  occ. eigenvalues --  -10.28025 -10.27917 -10.27828 -10.27811 -10.27651
 Alpha  occ. eigenvalues --  -10.27631 -10.27619 -10.27569 -10.27380 -10.27253
 Alpha  occ. eigenvalues --  -10.27191 -10.27096 -10.27041 -10.26865 -10.26842
 Alpha  occ. eigenvalues --  -10.26695 -10.26590 -10.26575 -10.26438 -10.26431
 Alpha  occ. eigenvalues --  -10.26397 -10.26386 -10.26350 -10.26290 -10.26185
 Alpha  occ. eigenvalues --  -10.25860 -10.25797 -10.25697 -10.25459 -10.25385
 Alpha  occ. eigenvalues --  -10.24632  -3.18553  -3.18218  -1.93442  -1.93068
 Alpha  occ. eigenvalues --   -1.93008  -1.92856  -1.92728  -1.92485  -1.16080
 Alpha  occ. eigenvalues --   -1.16065  -1.10795  -1.10291  -1.09576  -1.09336
 Alpha  occ. eigenvalues --   -1.08736  -1.07285  -1.06753  -1.04913  -1.04832
 Alpha  occ. eigenvalues --   -1.04019  -1.03310  -1.02915  -1.02384  -1.01596
 Alpha  occ. eigenvalues --   -0.93592  -0.92244  -0.89815  -0.89217  -0.88832
 Alpha  occ. eigenvalues --   -0.88622  -0.88371  -0.88309  -0.88185  -0.86911
 Alpha  occ. eigenvalues --   -0.86874  -0.86429  -0.85814  -0.85418  -0.84899
 Alpha  occ. eigenvalues --   -0.84092  -0.83966  -0.83370  -0.82910  -0.82700
 Alpha  occ. eigenvalues --   -0.82233  -0.81802  -0.81149  -0.80817  -0.80554
 Alpha  occ. eigenvalues --   -0.80255  -0.78527  -0.77837  -0.77719  -0.77332
 Alpha  occ. eigenvalues --   -0.77037  -0.76765  -0.76699  -0.76125  -0.75379
 Alpha  occ. eigenvalues --   -0.74936  -0.73328  -0.72663  -0.72406  -0.71346
 Alpha  occ. eigenvalues --   -0.69575  -0.69277  -0.69243  -0.68701  -0.68438
 Alpha  occ. eigenvalues --   -0.67536  -0.67455  -0.66866  -0.66508  -0.65921
 Alpha  occ. eigenvalues --   -0.65704  -0.65522  -0.64884  -0.64816  -0.64505
 Alpha  occ. eigenvalues --   -0.64096  -0.63172  -0.62822  -0.60612  -0.60210
 Alpha  occ. eigenvalues --   -0.59652  -0.59480  -0.59474  -0.58995  -0.58567
 Alpha  occ. eigenvalues --   -0.58562  -0.58097  -0.58009  -0.57467  -0.57321
 Alpha  occ. eigenvalues --   -0.56380  -0.56332  -0.55884  -0.55704  -0.55334
 Alpha  occ. eigenvalues --   -0.55083  -0.54968  -0.54834  -0.54539  -0.54008
 Alpha  occ. eigenvalues --   -0.53957  -0.53621  -0.53246  -0.53019  -0.52834
 Alpha  occ. eigenvalues --   -0.52723  -0.52599  -0.52449  -0.52094  -0.52028
 Alpha  occ. eigenvalues --   -0.51776  -0.51737  -0.51643  -0.51545  -0.51256
 Alpha  occ. eigenvalues --   -0.51120  -0.51042  -0.50800  -0.50627  -0.50204
 Alpha  occ. eigenvalues --   -0.50087  -0.50025  -0.49808  -0.49706  -0.49616
 Alpha  occ. eigenvalues --   -0.49497  -0.49218  -0.49150  -0.49037  -0.48885
 Alpha  occ. eigenvalues --   -0.48763  -0.48564  -0.48524  -0.48451  -0.48301
 Alpha  occ. eigenvalues --   -0.48015  -0.47909  -0.47894  -0.47642  -0.47444
 Alpha  occ. eigenvalues --   -0.47307  -0.47245  -0.47028  -0.46952  -0.46943
 Alpha  occ. eigenvalues --   -0.46655  -0.46423  -0.46287  -0.46171  -0.46096
 Alpha  occ. eigenvalues --   -0.45924  -0.45911  -0.45678  -0.45537  -0.45368
 Alpha  occ. eigenvalues --   -0.45238  -0.44959  -0.44879  -0.44766  -0.44512
 Alpha  occ. eigenvalues --   -0.44218  -0.44077  -0.43967  -0.43927  -0.43589
 Alpha  occ. eigenvalues --   -0.43533  -0.43383  -0.43303  -0.43133  -0.43111
 Alpha  occ. eigenvalues --   -0.42712  -0.42687  -0.42683  -0.42496  -0.42262
 Alpha  occ. eigenvalues --   -0.42196  -0.42081  -0.42020  -0.41474  -0.41429
 Alpha  occ. eigenvalues --   -0.41257  -0.41076  -0.40976  -0.40931  -0.40693
 Alpha  occ. eigenvalues --   -0.40463  -0.39978  -0.39805  -0.39245  -0.38861
 Alpha  occ. eigenvalues --   -0.38654  -0.38216  -0.38185  -0.37728  -0.37667
 Alpha  occ. eigenvalues --   -0.37068  -0.36903  -0.36694  -0.36671  -0.36329
 Alpha  occ. eigenvalues --   -0.36230  -0.35607  -0.35021  -0.34788  -0.34273
 Alpha  occ. eigenvalues --   -0.34263  -0.33654  -0.33281  -0.31918  -0.31585
 Alpha  occ. eigenvalues --   -0.31421  -0.31253  -0.31055  -0.30972  -0.30219
 Alpha  occ. eigenvalues --   -0.29969  -0.29277  -0.29174  -0.24500  -0.24317
 Alpha  occ. eigenvalues --   -0.21540  -0.21170
 Alpha virt. eigenvalues --   -0.08920  -0.08784  -0.02039  -0.01649  -0.00626
 Alpha virt. eigenvalues --    0.00390   0.01181   0.01331   0.01861   0.02162
 Alpha virt. eigenvalues --    0.04297   0.04570   0.04668   0.04961   0.05432

 Mulliken charges:
               1
     1  Mg  11.998772
     2  C    6.012392
     3  C    5.971398
     4  C    5.986150
     5  C    6.028793
     6  N    6.990925
     7  C    5.971136
     8  C    6.013983
     9  C    5.987593
    10  C    6.042850
    11  C    5.998545
    12  C    6.001651
    13  C    6.004335
    14  H    0.988509
    15  N    6.989766
    16  C    6.058538
    17  C    6.008842
    18  C    6.022451
    19  C    6.035181
    20  C    5.992680
    21  C    6.012431
    22  O    8.020889
    23  C    5.996071
    24  N    7.014891
    25  C    6.025762
    26  C    5.991172
    27  C    6.008650
    28  C    5.960722
    29  C    5.998620
    30  C    6.002325
    31  C    6.000950
    32  N    7.002788
    33  C    5.950581
    34  C    5.980063
    35  C    5.987808
    36  C    5.972106
    37  C    6.002753
    38  C    5.982743
    39  O    7.968837
    40  C    5.997430
    41  C    5.994481
    42  O    7.994889
    43  O    7.996798
    44  C    6.003208
    45  H    1.008578
    46  H    1.007839
    47  H    0.993229
    48  H    0.997239
    49  H    1.004035
    50  H    1.003227
    51  H    1.014351
    52  H    0.995586
    53  H    0.987532
    54  H    1.009332
    55  H    1.003332
    56  H    0.995842
    57  H    1.019354
    58  H    1.016828
    59  H    1.019008
    60  H    1.012098
    61  H    1.013263
    62  H    1.008396
    63  H    1.002415
    64  H    0.999094
    65  H    0.999852
    66  H    0.995999
    67  H    1.010882
    68  H    1.005135
    69  H    0.990937
    70  H    1.003634
    71  H    0.995741
    72  H    0.996621
    73  H    0.986234
    74  H    0.976934
    75  H    0.981091
    76  H    0.989547
    77  H    0.993550
    78  H    0.996926
    79  H    0.994886
    80  Mg  12.000014
    81  C    5.999942
    82  C    5.999932
    83  C    6.000022
    84  C    6.000068
    85  N    7.000008
    86  C    5.999997
    87  C    6.000005
    88  C    5.999977
    89  C    6.000071
    90  C    5.999996
    91  C    5.999998
    92  C    6.000019
    93  H    0.999985
    94  N    6.999990
    95  C    6.000176
    96  C    6.000041
    97  C    6.000056
    98  C    6.000063
    99  C    5.999978
   100  C    6.000033
   101  O    8.000056
   102  C    5.999983
   103  N    7.000003
   104  C    6.000007
   105  C    5.999987
   106  C    6.000017
   107  C    5.999915
   108  C    6.000001
   109  C    6.000023
   110  C    5.999999
   111  N    6.999993
   112  C    5.999837
   113  C    5.999950
   114  C    5.999933
   115  C    5.999983
   116  C    6.000024
   117  C    5.999952
   118  O    7.999900
   119  C    6.000036
   120  C    6.000003
   121  O    7.999982
   122  O    8.000004
   123  C    6.000002
   124  H    1.000060
   125  H    0.999996
   126  H    0.999954
   127  H    1.000008
   128  H    1.000027
   129  H    1.000041
   130  H    0.999982
   131  H    1.000052
   132  H    1.000007
   133  H    1.000009
   134  H    0.999978
   135  H    0.999992
   136  H    1.000061
   137  H    1.000076
   138  H    1.000086
   139  H    1.000023
   140  H    1.000014
   141  H    1.000034
   142  H    0.999988
   143  H    0.999986
   144  H    1.000003
   145  H    1.000002
   146  H    0.999989
   147  H    1.000008
   148  H    0.999964
   149  H    0.999979
   150  H    0.999973
   151  H    0.999993
   152  H    0.999927
   153  H    0.999936
   154  H    0.999941
   155  H    0.999976
   156  H    0.999989
   157  H    0.999980
   158  H    1.000005
 Sum of Mulliken charges = 624.00000

 Dipole moment (field-independent basis, Debye):
    X=             -6.9395    Y=             -8.5119    Z=              0.9162  Tot=             11.0203
 Quadrupole moment (field-independent basis, Debye-Ang):
   XX=            383.0106   YY=              2.4931   ZZ=             -1.8774
   XY=            240.2714   XZ=            -25.7138   YZ=              1.4352

 Normal termination of Gaussian 16 at Wed Sep 22 06:40:05 2021.
