 Gaussian 16, Revision A.03,
 Gaussian 16:  ES64L-G16RevA.03 25-Dec-2016

 ----------------------------------------------------------
 #p cam-b3lyp/Def2SVP td=(nstates=5) density=(transition=1)
 ----------------------------------------------------------

 --------------------------------
 TDDFT excited states in gaussian
 --------------------------------
 Symbolic Z-matrix:
 Charge =  0 Multiplicity = 1

                         Standard orientation:
 ---------------------------------------------------------------------
 Center     Atomic      Atomic             Coordinates (Angstroms)
 Number     Number       Type             X           Y           Z
 ---------------------------------------------------------------------
      1         12           0       26.014664   -0.836110    0.143996
      2          6           0       26.781092    2.440326   -0.573752
      3          6           0       25.099582    0.189900    3.364013
      4          6           0       25.327092   -4.037969    0.962366
      5          6           0       27.266689   -1.809188   -2.856472
      6          7           0       26.211530    1.098446    1.336761
      7          6           0       26.333115    2.348317    0.716839
      8          6           0       25.896673    3.499656    1.644281
      9          6           0       25.474282    2.694078    2.927745
     10          6           0       25.537141    1.228217    2.555875
     11          6           0       26.329850    3.018820    4.145731
     12          6           0       24.776413    4.492709    1.172134
     13          6           0       25.219722    6.029960    0.892811
     14          1           0       24.445528    7.002107    1.788384
     15          7           0       25.424096   -1.801185    1.901493
     16          6           0       24.971857   -1.180340    3.077067
     17          6           0       24.318526   -2.141826    3.971318
     18          6           0       24.429295   -3.487493    3.322198
     19          6           0       25.023848   -3.169133    1.962935
     20          6           0       23.718671   -1.755532    5.305302
     21          6           0       24.038506   -4.813627    3.777990
     22          8           0       24.324561   -5.807936    3.094764
     23          6           0       23.343965   -5.062495    5.105390
     24          7           0       26.345394   -2.587862   -0.774735
     25          6           0       25.857255   -3.827009   -0.320391
     26          6           0       25.995192   -5.018960   -1.351544
     27          6           0       26.672781   -4.215423   -2.577809
     28          6           0       26.748476   -2.770504   -2.034734
     29          6           0       26.879498   -6.255875   -0.828773
     30          6           0       25.826557   -4.340478   -3.891251
     31          6           0       26.560371   -4.463881   -5.189809
     32          7           0       26.964504    0.140065   -1.383496
     33          6           0       27.383201   -0.396483   -2.604456
     34          6           0       27.781734    0.632896   -3.502545
     35          6           0       27.460625    1.821829   -2.748674
     36          6           0       27.051237    1.427505   -1.468567
     37          6           0       28.262365    0.578080   -4.891790
     38          6           0       27.571401    3.246869   -2.765509
     39          8           0       27.906948    4.088257   -3.606386
     40          6           0       27.261835    3.694182   -1.265156
     41          6           0       28.482740    4.319523   -0.691343
     42          8           0       29.280876    3.844499    0.016778
     43          8           0       28.525066    5.674284   -1.012384
     44          6           0       29.277433    6.499586   -0.090451
     45          1           0       24.732944    0.530022    4.334791
     46          1           0       25.084804   -5.096592    1.076114
     47          1           0       27.529154   -2.100111   -3.875714
     48          1           0       26.775057    4.092679    1.896683
     49          1           0       24.474995    2.969136    3.266330
     50          1           0       26.899255    2.130972    4.419391
     51          1           0       25.583249    3.235585    4.908780
     52          1           0       26.961806    3.902589    4.060664
     53          1           0       23.992495    4.494345    1.929891
     54          1           0       24.340662    4.175658    0.224560
     55          1           0       24.878581    6.181058   -0.131497
     56          1           0       26.293821    6.147894    1.034255
     57          1           0       24.555556   -1.566393    5.978713
     58          1           0       23.134812   -2.600286    5.667568
     59          1           0       23.174667   -0.811079    5.280108
     60          1           0       23.479211   -6.125046    5.308407
     61          1           0       22.289921   -4.782927    5.110489
     62          1           0       23.812048   -4.651554    5.999670
     63          1           0       25.007767   -5.324331   -1.696202
     64          1           0       27.654176   -4.581207   -2.880607
     65          1           0       27.478752   -6.624857   -1.661408
     66          1           0       26.339927   -7.158107   -0.543356
     67          1           0       27.527812   -5.993364    0.007453
     68          1           0       25.080256   -3.555570   -4.012857
     69          1           0       25.240211   -5.258579   -3.923227
     70          1           0       26.340935   -3.534996   -5.715989
     71          1           0       26.226966   -5.171658   -5.948757
     72          1           0       27.630624   -4.554033   -5.001129
     73          1           0       27.858923   -0.320885   -5.358646
     74          1           0       29.342495    0.471667   -4.792038
     75          1           0       28.082968    1.545857   -5.360496
     76          1           0       26.455702    4.427311   -1.253147
     77          1           0       30.316218    6.295253   -0.347576
     78          1           0       29.049308    6.111221    0.902009
     79          1           0       29.063915    7.559176   -0.233979
     80         12           0      -26.690842   -0.369443   -0.127577
     81          6           0      -24.960976    2.487917   -0.771127
     82          6           0      -27.928148    0.961288    2.793916
     83          6           0      -28.209552   -3.335306    0.470708
     84          6           0      -25.028615   -1.858689   -2.868181
     85          7           0      -26.285164    1.447424    1.007589
     86          6           0      -25.817144    2.558001    0.377809
     87          6           0      -26.112046    3.823719    1.108911
     88          6           0      -26.864039    3.215514    2.403368
     89          6           0      -27.052428    1.772016    2.069654
     90          6           0      -26.028191    3.407549    3.748920
     91          6           0      -27.085833    4.722543    0.212978
     92          6           0      -27.101380    6.227866    0.487516
     93          1           0      -26.494653    6.893560    1.747768
     94          7           0      -27.984972   -1.102031    1.343117
     95          6           0      -28.354512   -0.383836    2.492083
     96          6           0      -29.208672   -1.248016    3.273303
     97          6           0      -29.322839   -2.480792    2.599071
     98          6           0      -28.520683   -2.301917    1.396670
     99          6           0      -29.873344   -0.748673    4.577405
    100          6           0      -30.084186   -3.815729    3.103965
    101          8           0      -30.249499   -4.805117    2.379225
    102          6           0      -30.698982   -3.979013    4.484217
    103          7           0      -26.659233   -2.332744   -1.149553
    104          6           0      -27.358959   -3.376730   -0.644516
    105          6           0      -26.969625   -4.689595   -1.321965
    106          6           0      -26.173324   -4.150942   -2.645688
    107          6           0      -26.002148   -2.663138   -2.301082
    108          6           0      -26.221824   -5.760881   -0.403402
    109          6           0      -26.987656   -4.183811   -4.036856
    110          6           0      -26.347239   -4.789760   -5.272106
    111          7           0      -25.311899    0.145161   -1.609650
    112          6           0      -24.726934   -0.523144   -2.619106
    113          6           0      -23.868459    0.409838   -3.414203
    114          6           0      -24.007761    1.627461   -2.706774
    115          6           0      -24.793938    1.346952   -1.562574
    116          6           0      -23.086678    0.194659   -4.661629
    117          6           0      -23.565103    2.970214   -2.760755
    118          8           0      -22.821265    3.542172   -3.583886
    119          6           0      -24.159666    3.595930   -1.501594
    120          6           0      -23.082593    4.075722   -0.666194
    121          8           0      -22.132073    3.512290   -0.221024
    122          8           0      -23.404485    5.388896   -0.336331
    123          6           0      -22.543715    6.223742    0.586427
    124          1           0      -28.530351    1.383820    3.600442
    125          1           0      -28.624375   -4.313861    0.722694
    126          1           0      -24.341571   -2.294124   -3.595927
    127          1           0      -25.317041    4.495428    1.432148
    128          1           0      -27.836922    3.683754    2.552750
    129          1           0      -26.612017    3.604896    4.647679
    130          1           0      -25.237504    4.137397    3.575707
    131          1           0      -25.526677    2.457038    3.933782
    132          1           0      -28.118828    4.380403    0.278877
    133          1           0      -26.757304    4.557290   -0.813427
    134          1           0      -28.148742    6.524868    0.420224
    135          1           0      -26.639325    6.737472   -0.357149
    136          1           0      -29.681619    0.299655    4.805824
    137          1           0      -29.515419   -1.398046    5.375659
    138          1           0      -30.944418   -0.925419    4.476433
    139          1           0      -31.551179   -3.300418    4.482764
    140          1           0      -30.101934   -3.509020    5.265973
    141          1           0      -30.804833   -5.035074    4.731634
    142          1           0      -27.886684   -5.160680   -1.677785
    143          1           0      -25.242581   -4.699680   -2.790913
    144          1           0      -25.245008   -6.020220   -0.812344
    145          1           0      -26.836365   -6.653750   -0.294192
    146          1           0      -26.006521   -5.340492    0.579240
    147          1           0      -27.375951   -3.200675   -4.302484
    148          1           0      -27.899919   -4.744720   -3.835987
    149          1           0      -26.360462   -4.014453   -6.037360
    150          1           0      -26.846165   -5.698135   -5.608642
    151          1           0      -25.292955   -4.990990   -5.077035
    152          1           0      -23.202176   -0.791272   -5.111552
    153          1           0      -22.019297    0.320069   -4.477935
    154          1           0      -23.399429    0.939078   -5.393563
    155          1           0      -24.825351    4.428743   -1.730149
    156          1           0      -21.711577    5.631759    0.968096
    157          1           0      -23.128127    6.526747    1.456220
    158          1           0      -22.199890    7.061866   -0.019677
 ---------------------------------------------------------------------

 SCF Done:  E(RCAM-B3LYP) =  -4069.79789771     A.U. after   19 cycles

 Excitation energies and oscillator strengths:

 Excited State   1:      Singlet-A      1.6721 eV  741.51 nm  f=0.4076  <S**2>=0.000
     309 -> 315        0.15727
     311 -> 313        0.68850
 This state for optimization and/or second-order correction.
 Total Energy, E(TD-HF/TD-DFT) =  -4069.73645062
 Copying the excited state density for this state as the 1-particle RhoCI density.

 Excited State   2:      Singlet-A      1.7389 eV  713.01 nm  f=0.3979  <S**2>=0.000
     310 -> 316       -0.19175
     312 -> 314        0.68294
     310 <- 316       -0.10976

 Excited State   3:      Singlet-A      2.1913 eV  565.81 nm  f=0.1259  <S**2>=0.000
     309 -> 313        0.64543
     311 -> 315       -0.25763

 Excited State   4:      Singlet-A      2.2287 eV  556.30 nm  f=0.1029  <S**2>=0.000
     310 -> 314        0.63902
     312 -> 316        0.29488

 Excited State   5:      Singlet-A      3.0510 eV  406.37 nm  f=0.0000  <S**2>=0.000
     312 -> 313        0.70711

 The electronic state is 1-A.
 Alpha  occ. eigenvalues --  -46.89420 -46.87929 -19.23705 -19.22171 -19.19613
 Alpha  occ. eigenvalues --  -19.19588 -19.19213 -19.18858 -19.18800 -19.17953
 Alpha  occ. eigenvalues --  -14.42561 -14.42497 -14.41997 -14.41690 -14.40272
 Alpha  occ. eigenvalues --  -14.39571 -14.39411 -14.38584 -10.38674 -10.38109
 Alpha  occ. eigenvalues --  -10.36248 -10.35335 -10.34494 -10.34205 -10.31924
 Alpha  occ. eigenvalues --  -10.31830 -10.31766 -10.31288 -10.31050 -10.31033
 Alpha  occ. eigenvalues --  -10.30761 -10.30695 -10.30664 -10.30620 -10.30469
 Alpha  occ. eigenvalues --  -10.30281 -10.30234 -10.30013 -10.29888 -10.29765
 Alpha  occ. eigenvalues --  -10.29530 -10.29289 -10.29239 -10.29032 -10.28874
 Alpha  occ. eigenvalues --  -10.28793 -10.28559 -10.28318 -10.28269 -10.28256
 Alpha  occ. eigenvalues --  -10.28251 -10.28207 -10.28207 -10.27982 -10.27979
 Alpha  occ. eigenvalues --  -10.27861 -10.27843 -10.27753 -10.27714 -10.27612
 Alpha  occ. eigenvalues --  -10.27535 -10.27480 -10.27470 -10.27417 -10.27384
 Alpha  occ. eigenvalues --  -10.27312 -10.27163 -10.26680 -10.26539 -10.26492
 Alpha  occ. eigenvalues --  -10.26483 -10.26460 -10.26456 -10.26231 -10.26189
 Alpha  occ. eigenvalues --  -10.26187 -10.26133 -10.26086 -10.25982 -10.25912
 Alpha  occ. eigenvalues --  -10.25881 -10.25825 -10.25381 -10.25325 -10.24768
 Alpha  occ. eigenvalues --  -10.24489  -3.17827  -3.16690  -1.92746  -1.92264
 Alpha  occ. eigenvalues --   -1.92138  -1.91560  -1.91156  -1.91008  -1.16779
 Alpha  occ. eigenvalues --   -1.15654  -1.09564  -1.09533  -1.08346  -1.08118
 Alpha  occ. eigenvalues --   -1.07720  -1.07224  -1.05583  -1.04635  -1.04480
 Alpha  occ. eigenvalues --   -1.03596  -1.03435  -1.02649  -1.02067  -1.00628
 Alpha  occ. eigenvalues --   -0.93514  -0.92592  -0.89189  -0.88628  -0.88621
 Alpha  occ. eigenvalues --   -0.88503  -0.88282  -0.87537  -0.87352  -0.87204
 Alpha  occ. eigenvalues --   -0.87084  -0.86925  -0.86679  -0.86241  -0.84346
 Alpha  occ. eigenvalues --   -0.84227  -0.83493  -0.83466  -0.82409  -0.82384
 Alpha  occ. eigenvalues --   -0.81896  -0.81627  -0.81208  -0.80870  -0.80319
 Alpha  occ. eigenvalues --   -0.80228  -0.78780  -0.78432  -0.77491  -0.77407
 Alpha  occ. eigenvalues --   -0.77144  -0.76697  -0.76222  -0.75264  -0.75236
 Alpha  occ. eigenvalues --   -0.75207  -0.73070  -0.72610  -0.72005  -0.71692
 Alpha  occ. eigenvalues --   -0.69332  -0.69278  -0.68694  -0.68658  -0.68244
 Alpha  occ. eigenvalues --   -0.67949  -0.67554  -0.66003  -0.65674  -0.65357
 Alpha  occ. eigenvalues --   -0.65307  -0.65224  -0.65000  -0.64535  -0.64271
 Alpha  occ. eigenvalues --   -0.63890  -0.61837  -0.60861  -0.60469  -0.60191
 Alpha  occ. eigenvalues --   -0.59946  -0.59405  -0.59203  -0.59003  -0.58815
 Alpha  occ. eigenvalues --   -0.58493  -0.58463  -0.58298  -0.57775  -0.57699
 Alpha  occ. eigenvalues --   -0.56509  -0.56046  -0.55578  -0.55521  -0.55314
 Alpha  occ. eigenvalues --   -0.55290  -0.54256  -0.53930  -0.53790  -0.53631
 Alpha  occ. eigenvalues --   -0.53268  -0.53063  -0.52999  -0.52995  -0.52780
 Alpha  occ. eigenvalues --   -0.52675  -0.52283  -0.52220  -0.52158  -0.52156
 Alpha  occ. eigenvalues --   -0.51714  -0.51651  -0.51606  -0.51427  -0.51367
 Alpha  occ. eigenvalues --   -0.51191  -0.50827  -0.50758  -0.50561  -0.50561
 Alpha  occ. eigenvalues --   -0.50130  -0.50008  -0.49825  -0.49792  -0.49723
 Alpha  occ. eigenvalues --   -0.49627  -0.49415  -0.49146  -0.48970  -0.48937
 Alpha  occ. eigenvalues --   -0.48591  -0.48539  -0.48326  -0.48165  -0.48081
 Alpha  occ. eigenvalues --   -0.48022  -0.47971  -0.47634  -0.47287  -0.47282
 Alpha  occ. eigenvalues --   -0.46954  -0.46948  -0.46835  -0.46612  -0.46492
 Alpha  occ. eigenvalues --   -0.46477  -0.46267  -0.46189  -0.46145  -0.45997
 Alpha  occ. eigenvalues --   -0.45603  -0.45405  -0.45278  -0.45209  -0.44978
 Alpha  occ. eigenvalues --   -0.44709  -0.44638  -0.44369  -0.44282  -0.44162
 Alpha  occ. eigenvalues --   -0.43999  -0.43917  -0.43711  -0.43667  -0.43517
 Alpha  occ. eigenvalues --   -0.43336  -0.43160  -0.43063  -0.42912  -0.42691
 Alpha  occ. eigenvalues --   -0.42512  -0.42343  -0.41986  -0.41766  -0.41654
 Alpha  occ. eigenvalues --   -0.41650  -0.41421  -0.41314  -0.41179  -0.41154
 Alpha  occ. eigenvalues --   -0.41072  -0.41026  -0.40832  -0.40638  -0.40227
 Alpha  occ. eigenvalues --   -0.40135  -0.39893  -0.39741  -0.39427  -0.39066
 Alpha  occ. eigenvalues --   -0.38712  -0.38439  -0.37822  -0.37805  -0.37688
 Alpha  occ. eigenvalues --   -0.37555  -0.37075  -0.36778  -0.36600  -0.36122
 Alpha  occ. eigenvalues --   -0.36095  -0.34922  -0.34512  -0.34459  -0.34251
 Alpha  occ. eigenvalues --   -0.34086  -0.33186  -0.33174  -0.31549  -0.31435
 Alpha  occ. eigenvalues --   -0.31269  -0.31119  -0.31040  -0.30194  -0.30068
 Alpha  occ. eigenvalues --   -0.30032  -0.29780  -0.29276  -0.24380  -0.23852
 Alpha  occ. eigenvalues --   -0.21466  -0.21151
 Alpha virt. eigenvalues --   -0.09286  -0.08534  -0.02175  -0.01720  -0.00239
 Alpha virt. eigenvalues --   -0.00022   0.01938   0.02289   0.02413   0.02774
 Alpha virt. eigenvalues --    0.04649   0.05118   0.05314   0.05351   0.06244

 Mulliken charges:
               1
     1  Mg  12.003363
     2  C    5.985772
     3  C    6.017437
     4  C    6.021941
     5  C    5.988319
     6  N    6.994924
     7  C    6.027370
     8  C    5.986778
     9  C    6.009587
    10  C    5.971989
    11  C    6.001548
    12  C    5.998720
    13  C    5.996305
    14  H    1.009044
    15  N    7.005327
    16  C    5.958115
    17  C    5.971482
    18  C    5.985919
    19  C    5.963842
    20  C    6.003875
    21  C    5.989037
    22  O    7.970038
    23  C    6.007332
    24  N    7.001962
    25  C    5.960768
    26  C    6.016035
    27  C    5.986338
    28  C    6.032396
    29  C    6.003010
    30  C    5.993629
    31  C    6.000675
    32  N    6.998022
    33  C    6.042282
    34  C    6.028332
    35  C    6.006512
    36  C    6.029109
    37  C    5.997883
    38  C    6.015698
    39  O    8.034486
    40  C    5.999916
    41  C    6.000719
    42  O    8.008139
    43  O    7.999506
    44  C    5.997419
    45  H    0.991745
    46  H    0.993305
    47  H    1.010238
    48  H    1.003070
    49  H    0.999714
    50  H    1.002905
    51  H    0.999670
    52  H    0.986200
    53  H    1.010114
    54  H    0.997010
    55  H    0.996859
    56  H    0.997830
    57  H    0.978670
    58  H    0.984295
    59  H    0.978888
    60  H    0.985548
    61  H    0.989565
    62  H    0.991925
    63  H    0.995931
    64  H    1.003320
    65  H    0.987853
    66  H    1.001076
    67  H    1.001154
    68  H    1.000462
    69  H    1.012290
    70  H    0.994373
    71  H    1.005337
    72  H    1.000035
    73  H    1.019715
    74  H    1.020074
    75  H    1.014624
    76  H    1.011633
    77  H    1.002247
    78  H    1.006470
    79  H    1.004959
    80  Mg  12.000009
    81  C    6.000057
    82  C    6.000029
    83  C    5.999988
    84  C    5.999975
    85  N    7.000034
    86  C    5.999928
    87  C    6.000032
    88  C    5.999978
    89  C    6.000002
    90  C    5.999997
    91  C    6.000009
    92  C    6.000009
    93  H    0.999998
    94  N    6.999985
    95  C    6.000021
    96  C    6.000025
    97  C    5.999996
    98  C    6.000027
    99  C    5.999996
   100  C    6.000037
   101  O    8.000024
   102  C    5.999997
   103  N    6.999968
   104  C    6.000050
   105  C    5.999973
   106  C    6.000021
   107  C    5.999999
   108  C    5.999998
   109  C    6.000015
   110  C    5.999995
   111  N    7.000021
   112  C    5.999984
   113  C    5.999965
   114  C    6.000035
   115  C    5.999956
   116  C    6.000002
   117  C    5.999949
   118  O    7.999958
   119  C    5.999991
   120  C    5.999993
   121  O    8.000018
   122  O    7.999990
   123  C    5.999998
   124  H    1.000007
   125  H    1.000010
   126  H    0.999996
   127  H    0.999998
   128  H    0.999988
   129  H    1.000003
   130  H    1.000026
   131  H    1.000026
   132  H    0.999971
   133  H    0.999999
   134  H    0.999975
   135  H    0.999989
   136  H    1.000027
   137  H    1.000043
   138  H    1.000012
   139  H    0.999998
   140  H    1.000026
   141  H    1.000031
   142  H    0.999990
   143  H    1.000013
   144  H    1.000034
   145  H    1.000001
   146  H    1.000013
   147  H    0.999984
   148  H    0.999973
   149  H    0.999984
   150  H    0.999985
   151  H    1.000016
   152  H    0.999969
   153  H    0.999980
   154  H    0.999945
   155  H    0.999965
   156  H    1.000022
   157  H    0.999992
   158  H    0.999977
 Sum of Mulliken charges = 624.00000

 Dipole moment (field-independent basis, Debye):
    X=              4.2456    Y=              5.6216    Z=             -8.8846  Tot=             11.3386
 Quadrupole moment (field-independent basis, Debye-Ang):
   XX=            222.2231   YY=             -6.4554   ZZ=             -5.3351
   XY=            143.6274   XZ=           -230.4921   YZ=              9.2599

 Normal termination of Gaussian 16 at Thu Sep 23 09:06:20 2021.
