 Gaussian 16, Revision A.03,
 Gaussian 16:  ES64L-G16RevA.03 25-Dec-2016

 ----------------------------------------------------------
 #p cam-b3lyp/Def2SVP td=(nstates=5) density=(transition=1)
 ----------------------------------------------------------

 --------------------------------
 TDDFT excited states in gaussian
 --------------------------------
 Symbolic Z-matrix:
 Charge =  0 Multiplicity = 1

                         Standard orientation:
 ---------------------------------------------------------------------
 Center     Atomic      Atomic             Coordinates (Angstroms)
 Number     Number       Type             X           Y           Z
 ---------------------------------------------------------------------
      1         12           0      -30.469796   -0.517301   -0.196760
      2          6           0      -27.841264    1.721465   -0.392464
      3          6           0      -28.408607   -2.640325    1.762089
      4          6           0      -33.167271   -2.500718    0.532519
      5          6           0      -32.598190    1.758827   -1.686118
      6          7           0      -28.332566   -0.480898    0.456882
      7          6           0      -27.486738    0.601621    0.336498
      8          6           0      -26.152541    0.464410    1.161563
      9          6           0      -26.180664   -1.097307    1.514280
     10          6           0      -27.724626   -1.512857    1.204140
     11          6           0      -25.158708   -2.066172    0.806249
     12          6           0      -26.066841    1.317872    2.377773
     13          6           0      -24.979388    2.366040    2.515520
     14          1           0      -24.536803    2.694220    3.950502
     15          7           0      -30.728312   -2.388671    0.917798
     16          6           0      -29.703556   -3.083275    1.587711
     17          6           0      -30.217931   -4.308971    2.110520
     18          6           0      -31.685482   -4.216806    1.892528
     19          6           0      -31.950060   -2.983656    1.088467
     20          6           0      -29.403277   -5.290795    2.959100
     21          6           0      -32.642930   -5.294216    2.431009
     22          8           0      -32.349421   -6.287232    3.090475
     23          6           0      -34.093594   -4.964361    2.439726
     24          7           0      -32.708471   -0.307719   -0.381788
     25          6           0      -33.519027   -1.352194   -0.163355
     26          6           0      -34.948167   -0.821560   -0.266948
     27          6           0      -34.837168    0.552228   -1.079229
     28          6           0      -33.250682    0.702925   -1.095129
     29          6           0      -35.824076   -1.825091   -1.097658
     30          6           0      -35.551906    1.853686   -0.527965
     31          6           0      -36.701586    2.488717   -1.295812
     32          7           0      -30.266674    1.374861   -0.994363
     33          6           0      -31.221242    2.188307   -1.612893
     34          6           0      -30.635919    3.445864   -1.964559
     35          6           0      -29.285793    3.343895   -1.507033
     36          6           0      -29.139529    2.007813   -0.964677
     37          6           0      -31.279982    4.620742   -2.630574
     38          6           0      -28.027727    3.964075   -1.430543
     39          8           0      -27.713584    5.069370   -1.824546
     40          6           0      -27.064926    2.993221   -0.643166
     41          6           0      -25.776737    2.934398   -1.351524
     42          8           0      -24.766439    3.507345   -0.959534
     43          8           0      -25.899921    2.174940   -2.505450
     44          6           0      -24.647961    2.110631   -3.292519
     45          1           0      -27.861521   -3.390804    2.335735
     46          1           0      -33.952833   -3.232190    0.735258
     47          1           0      -33.295708    2.480507   -2.116063
     48          1           0      -25.303140    0.674727    0.512580
     49          1           0      -26.086679   -1.169138    2.598437
     50          1           0      -24.406288   -1.440402    0.326375
     51          1           0      -25.604568   -2.743113    0.077389
     52          1           0      -24.736550   -2.702410    1.583225
     53          1           0      -25.881827    0.641277    3.213454
     54          1           0      -26.992578    1.878200    2.504232
     55          1           0      -25.378389    3.306890    2.137564
     56          1           0      -24.050940    2.093652    2.014151
     57          1           0      -28.377915   -5.070109    3.254958
     58          1           0      -29.492053   -6.211592    2.383128
     59          1           0      -30.071870   -5.509928    3.790992
     60          1           0      -34.708341   -5.212165    1.575469
     61          1           0      -34.280476   -3.934670    2.744915
     62          1           0      -34.535915   -5.590268    3.215662
     63          1           0      -35.410774   -0.657331    0.706522
     64          1           0      -35.095467    0.391366   -2.125309
     65          1           0      -36.726313   -2.009751   -0.514606
     66          1           0      -35.343596   -2.771244   -1.349903
     67          1           0      -36.114589   -1.436020   -2.073801
     68          1           0      -34.739062    2.572258   -0.425227
     69          1           0      -35.987566    1.552429    0.425697
     70          1           0      -36.711622    3.531088   -0.976284
     71          1           0      -37.637206    2.034710   -0.968586
     72          1           0      -36.682777    2.513690   -2.384852
     73          1           0      -30.498112    5.374810   -2.724626
     74          1           0      -32.122251    4.921732   -2.008345
     75          1           0      -31.656199    4.436058   -3.636943
     76          1           0      -26.893544    3.514791    0.299083
     77          1           0      -24.614765    2.929712   -4.010846
     78          1           0      -24.615318    1.107151   -3.716800
     79          1           0      -23.765470    2.160423   -2.655319
     80         12           0       29.704258    0.395834    0.702649
     81          6           0       30.194567   -2.341344   -1.556173
     82          6           0       27.970109    1.967955   -1.936429
     83          6           0       29.776558    3.226363    2.341869
     84          6           0       31.711450   -1.166340    2.959474
     85          7           0       29.122939   -0.179647   -1.461678
     86          6           0       29.368291   -1.379323   -2.041225
     87          6           0       28.624420   -1.439727   -3.365175
     88          6           0       27.859722   -0.098477   -3.548056
     89          6           0       28.298226    0.603319   -2.248296
     90          6           0       28.237285    0.688222   -4.926676
     91          6           0       27.602721   -2.653859   -3.441607
     92          6           0       27.651799   -3.510748   -4.707023
     93          1           0       28.010776   -2.873779   -6.109253
     94          7           0       29.011777    2.363178    0.233868
     95          6           0       28.339834    2.750996   -0.829359
     96          6           0       28.071881    4.153513   -0.679039
     97          6           0       28.438503    4.578727    0.623037
     98          6           0       29.126200    3.407161    1.099104
     99          6           0       27.213953    4.940734   -1.668182
    100          6           0       28.169515    5.826818    1.449051
    101          8           0       28.653272    6.008984    2.551237
    102          6           0       27.208716    6.819065    0.853860
    103          7           0       30.912388    1.033684    2.229231
    104          6           0       30.588607    2.226637    2.878174
    105          6           0       31.177276    2.319042    4.312200
    106          6           0       31.633989    0.822238    4.492046
    107          6           0       31.405158    0.162823    3.132070
    108          6           0       32.290667    3.374388    4.379778
    109          6           0       30.765145    0.012197    5.566393
    110          6           0       31.375233   -0.287182    6.894613
    111          7           0       30.638725   -1.391355    0.780455
    112          6           0       31.460314   -1.879601    1.773406
    113          6           0       32.085604   -3.150608    1.417305
    114          6           0       31.605175   -3.391360    0.080741
    115          6           0       30.850000   -2.254240   -0.291484
    116          6           0       32.830774   -4.011916    2.371668
    117          6           0       31.550631   -4.353269   -1.009349
    118          8           0       32.074231   -5.481815   -1.041763
    119          6           0       30.626542   -3.684509   -2.178205
    120          6           0       31.513282   -3.553180   -3.323453
    121          8           0       32.564063   -2.950658   -3.295693
    122          8           0       31.015353   -4.168214   -4.402698
    123          6           0       31.759141   -4.233025   -5.699745
    124          1           0       27.362479    2.471974   -2.690771
    125          1           0       29.506793    3.946357    3.118140
    126          1           0       32.279310   -1.664675    3.747580
    127          1           0       29.377053   -1.516899   -4.149849
    128          1           0       26.786994   -0.253112   -3.665239
    129          1           0       28.636378   -0.001660   -5.670303
    130          1           0       28.963454    1.443367   -4.624671
    131          1           0       27.352370    1.191551   -5.315804
    132          1           0       26.560603   -2.393143   -3.262034
    133          1           0       27.826148   -3.359153   -2.641235
    134          1           0       26.718295   -4.052179   -4.861841
    135          1           0       28.374606   -4.282702   -4.442918
    136          1           0       26.169423    5.040481   -1.372573
    137          1           0       27.333025    4.570841   -2.687011
    138          1           0       27.650538    5.938110   -1.715345
    139          1           0       26.336243    6.385259    0.364357
    140          1           0       27.644883    7.492928    0.117778
    141          1           0       26.699719    7.343937    1.662316
    142          1           0       30.363205    2.605533    4.977459
    143          1           0       32.678924    0.827948    4.802451
    144          1           0       32.367980    4.007050    3.495657
    145          1           0       33.273584    2.915783    4.481870
    146          1           0       32.131089    4.007688    5.253070
    147          1           0       30.426298   -0.969198    5.234555
    148          1           0       29.803993    0.483420    5.768581
    149          1           0       30.821664    0.217433    7.685433
    150          1           0       32.383293    0.115905    6.795715
    151          1           0       31.355966   -1.359175    7.090745
    152          1           0       32.670823   -5.068768    2.160891
    153          1           0       32.551071   -3.673125    3.369039
    154          1           0       33.889296   -3.791671    2.226775
    155          1           0       29.788812   -4.326297   -2.447662
    156          1           0       32.775331   -4.582450   -5.516155
    157          1           0       31.824938   -3.263728   -6.194558
    158          1           0       31.247879   -4.810111   -6.469759
 ---------------------------------------------------------------------

 SCF Done:  E(RCAM-B3LYP) =  -4069.79066264     A.U. after   18 cycles

 Excitation energies and oscillator strengths:

 Excited State   1:      Singlet-A      1.6835 eV  736.49 nm  f=0.4004  <S**2>=0.000
     310 -> 316        0.17294
     312 -> 314        0.68700
     310 <- 316        0.10715
 This state for optimization and/or second-order correction.
 Total Energy, E(TD-HF/TD-DFT) =  -4069.72879698
 Copying the excited state density for this state as the 1-particle RhoCI density.

 Excited State   2:      Singlet-A      1.7132 eV  723.72 nm  f=0.3835  <S**2>=0.000
     309 -> 315       -0.17423
     311 -> 313        0.68635
     309 <- 315       -0.10491

 Excited State   3:      Singlet-A      2.1719 eV  570.86 nm  f=0.1596  <S**2>=0.000
     309 -> 313        0.65197
     311 -> 315        0.25356

 Excited State   4:      Singlet-A      2.1994 eV  563.73 nm  f=0.1323  <S**2>=0.000
     310 -> 314        0.65031
     312 -> 316       -0.26294

 Excited State   5:      Singlet-A      2.8918 eV  428.74 nm  f=0.0000  <S**2>=0.000
     312 -> 313        0.70711

 The electronic state is 1-A.
 Alpha  occ. eigenvalues --  -46.90524 -46.88619 -19.25262 -19.25167 -19.19872
 Alpha  occ. eigenvalues --  -19.19528 -19.19150 -19.19012 -19.18518 -19.18343
 Alpha  occ. eigenvalues --  -14.43529 -14.42034 -14.41878 -14.41712 -14.40090
 Alpha  occ. eigenvalues --  -14.39914 -14.39374 -14.39087 -10.39169 -10.38501
 Alpha  occ. eigenvalues --  -10.35786 -10.35460 -10.35314 -10.34231 -10.33150
 Alpha  occ. eigenvalues --  -10.32540 -10.32114 -10.31724 -10.31713 -10.31557
 Alpha  occ. eigenvalues --  -10.31332 -10.30866 -10.30743 -10.30518 -10.30460
 Alpha  occ. eigenvalues --  -10.30269 -10.30168 -10.29874 -10.29649 -10.29583
 Alpha  occ. eigenvalues --  -10.29466 -10.29178 -10.29134 -10.29025 -10.28751
 Alpha  occ. eigenvalues --  -10.28748 -10.28712 -10.28565 -10.28558 -10.28478
 Alpha  occ. eigenvalues --  -10.28332 -10.28306 -10.28305 -10.28238 -10.28207
 Alpha  occ. eigenvalues --  -10.28181 -10.28018 -10.27938 -10.27934 -10.27797
 Alpha  occ. eigenvalues --  -10.27726 -10.27616 -10.27502 -10.27375 -10.27086
 Alpha  occ. eigenvalues --  -10.27068 -10.27028 -10.27006 -10.26872 -10.26659
 Alpha  occ. eigenvalues --  -10.26571 -10.26426 -10.26290 -10.26225 -10.26215
 Alpha  occ. eigenvalues --  -10.26092 -10.26067 -10.26056 -10.25936 -10.25807
 Alpha  occ. eigenvalues --  -10.25577 -10.25568 -10.25462 -10.25453 -10.25021
 Alpha  occ. eigenvalues --  -10.24951  -3.18734  -3.17248  -1.93663  -1.93166
 Alpha  occ. eigenvalues --   -1.93036  -1.92113  -1.91709  -1.91558  -1.16560
 Alpha  occ. eigenvalues --   -1.15580  -1.10844  -1.10098  -1.09811  -1.08438
 Alpha  occ. eigenvalues --   -1.07524  -1.07369  -1.04860  -1.04649  -1.04097
 Alpha  occ. eigenvalues --   -1.03509  -1.03144  -1.02612  -1.01885  -1.01778
 Alpha  occ. eigenvalues --   -0.92629  -0.92163  -0.89544  -0.89422  -0.88636
 Alpha  occ. eigenvalues --   -0.88264  -0.88233  -0.88097  -0.87736  -0.87215
 Alpha  occ. eigenvalues --   -0.87108  -0.87021  -0.86406  -0.85858  -0.84558
 Alpha  occ. eigenvalues --   -0.84227  -0.84124  -0.83883  -0.82938  -0.82665
 Alpha  occ. eigenvalues --   -0.82269  -0.81833  -0.81287  -0.80930  -0.80794
 Alpha  occ. eigenvalues --   -0.80697  -0.78265  -0.77877  -0.77675  -0.77229
 Alpha  occ. eigenvalues --   -0.77030  -0.76867  -0.76279  -0.76263  -0.75567
 Alpha  occ. eigenvalues --   -0.74842  -0.73545  -0.72485  -0.72325  -0.71415
 Alpha  occ. eigenvalues --   -0.69434  -0.69036  -0.68751  -0.68035  -0.67801
 Alpha  occ. eigenvalues --   -0.67650  -0.67175  -0.66975  -0.65674  -0.65557
 Alpha  occ. eigenvalues --   -0.65515  -0.65291  -0.65162  -0.64851  -0.64624
 Alpha  occ. eigenvalues --   -0.64500  -0.63050  -0.62424  -0.60502  -0.60293
 Alpha  occ. eigenvalues --   -0.59792  -0.59501  -0.59230  -0.59109  -0.58818
 Alpha  occ. eigenvalues --   -0.58490  -0.58043  -0.57834  -0.57472  -0.57029
 Alpha  occ. eigenvalues --   -0.56594  -0.56083  -0.56016  -0.55759  -0.55489
 Alpha  occ. eigenvalues --   -0.55163  -0.54852  -0.54367  -0.53887  -0.53564
 Alpha  occ. eigenvalues --   -0.53502  -0.53317  -0.53277  -0.52991  -0.52916
 Alpha  occ. eigenvalues --   -0.52868  -0.52823  -0.52620  -0.52526  -0.52362
 Alpha  occ. eigenvalues --   -0.52136  -0.52094  -0.51885  -0.51368  -0.51287
 Alpha  occ. eigenvalues --   -0.51191  -0.50975  -0.50588  -0.50528  -0.50418
 Alpha  occ. eigenvalues --   -0.50251  -0.50072  -0.49973  -0.49753  -0.49536
 Alpha  occ. eigenvalues --   -0.49264  -0.49184  -0.49028  -0.48912  -0.48755
 Alpha  occ. eigenvalues --   -0.48686  -0.48568  -0.48399  -0.48351  -0.48144
 Alpha  occ. eigenvalues --   -0.47990  -0.47836  -0.47719  -0.47430  -0.47212
 Alpha  occ. eigenvalues --   -0.47051  -0.46746  -0.46744  -0.46624  -0.46603
 Alpha  occ. eigenvalues --   -0.46194  -0.46168  -0.46118  -0.46031  -0.45891
 Alpha  occ. eigenvalues --   -0.45875  -0.45727  -0.45350  -0.45306  -0.45228
 Alpha  occ. eigenvalues --   -0.45101  -0.44713  -0.44563  -0.44511  -0.44237
 Alpha  occ. eigenvalues --   -0.44159  -0.43824  -0.43765  -0.43674  -0.43593
 Alpha  occ. eigenvalues --   -0.43298  -0.43018  -0.43018  -0.42796  -0.42758
 Alpha  occ. eigenvalues --   -0.42610  -0.42473  -0.42465  -0.42269  -0.41844
 Alpha  occ. eigenvalues --   -0.41633  -0.41540  -0.41516  -0.41415  -0.41313
 Alpha  occ. eigenvalues --   -0.41289  -0.41010  -0.40551  -0.40524  -0.40292
 Alpha  occ. eigenvalues --   -0.40006  -0.39750  -0.39720  -0.39505  -0.39325
 Alpha  occ. eigenvalues --   -0.38393  -0.38387  -0.37921  -0.37855  -0.37449
 Alpha  occ. eigenvalues --   -0.37254  -0.36974  -0.36825  -0.36552  -0.36222
 Alpha  occ. eigenvalues --   -0.36149  -0.35935  -0.34530  -0.34454  -0.34356
 Alpha  occ. eigenvalues --   -0.33763  -0.33372  -0.33010  -0.31801  -0.31694
 Alpha  occ. eigenvalues --   -0.31260  -0.31238  -0.30740  -0.30567  -0.30229
 Alpha  occ. eigenvalues --   -0.30086  -0.29619  -0.29394  -0.24653  -0.23832
 Alpha  occ. eigenvalues --   -0.22192  -0.20961
 Alpha virt. eigenvalues --   -0.09764  -0.08718  -0.02376  -0.01117  -0.00016
 Alpha virt. eigenvalues --    0.00116   0.01779   0.02077   0.02177   0.02299
 Alpha virt. eigenvalues --    0.04471   0.04766   0.05229   0.05522   0.05802

 Mulliken charges:
               1
     1  Mg  12.000013
     2  C    6.000067
     3  C    5.999937
     4  C    5.999866
     5  C    6.000044
     6  N    7.000071
     7  C    5.999893
     8  C    6.000025
     9  C    5.999991
    10  C    6.000135
    11  C    5.999960
    12  C    6.000003
    13  C    6.000021
    14  H    0.999956
    15  N    6.999989
    16  C    6.000240
    17  C    6.000097
    18  C    6.000062
    19  C    6.000204
    20  C    5.999959
    21  C    6.000067
    22  O    8.000116
    23  C    5.999944
    24  N    6.999941
    25  C    6.000157
    26  C    5.999948
    27  C    6.000027
    28  C    5.999891
    29  C    5.999982
    30  C    6.000007
    31  C    6.000012
    32  N    6.999984
    33  C    5.999806
    34  C    5.999872
    35  C    5.999945
    36  C    5.999852
    37  C    6.000033
    38  C    5.999928
    39  O    7.999805
    40  C    5.999992
    41  C    5.999973
    42  O    7.999937
    43  O    8.000023
    44  C    6.000028
    45  H    1.000071
    46  H    1.000017
    47  H    0.999927
    48  H    0.999996
    49  H    1.000009
    50  H    1.000060
    51  H    1.000013
    52  H    1.000016
    53  H    0.999956
    54  H    1.000030
    55  H    1.000026
    56  H    0.999976
    57  H    1.000094
    58  H    1.000103
    59  H    1.000088
    60  H    1.000082
    61  H    1.000048
    62  H    1.000077
    63  H    1.000018
    64  H    1.000003
    65  H    1.000016
    66  H    0.999983
    67  H    1.000046
    68  H    1.000031
    69  H    0.999956
    70  H    0.999993
    71  H    0.999978
    72  H    0.999999
    73  H    0.999921
    74  H    0.999906
    75  H    0.999898
    76  H    0.999956
    77  H    0.999981
    78  H    0.999975
    79  H    0.999951
    80  Mg  11.997513
    81  C    6.024515
    82  C    5.984107
    83  C    5.968065
    84  C    6.011348
    85  N    7.008201
    86  C    5.972369
    87  C    6.010836
    88  C    5.984745
    89  C    6.034082
    90  C    5.999245
    91  C    6.001242
    92  C    6.000825
    93  H    0.992363
    94  N    6.991510
    95  C    6.041493
    96  C    6.025455
    97  C    6.012600
    98  C    6.040677
    99  C    5.995568
   100  C    6.014070
   101  O    8.027122
   102  C    5.991644
   103  N    6.990613
   104  C    6.047690
   105  C    5.988456
   106  C    6.009170
   107  C    5.971832
   108  C    5.996107
   109  C    6.008703
   110  C    6.000482
   111  N    7.000227
   112  C    5.964306
   113  C    5.961423
   114  C    5.999736
   115  C    5.962088
   116  C    6.004973
   117  C    5.985646
   118  O    7.971383
   119  C    5.992498
   120  C    5.994799
   121  O    7.997840
   122  O    7.997955
   123  C    6.002596
   124  H    1.010411
   125  H    1.005324
   126  H    0.987766
   127  H    0.999908
   128  H    1.006145
   129  H    1.013914
   130  H    0.998196
   131  H    1.000398
   132  H    0.990890
   133  H    1.008209
   134  H    0.997600
   135  H    1.006346
   136  H    1.022924
   137  H    1.018925
   138  H    1.018099
   139  H    1.005001
   140  H    1.009946
   141  H    1.015093
   142  H    1.000290
   143  H    0.996734
   144  H    0.995396
   145  H    1.012847
   146  H    1.003248
   147  H    1.005745
   148  H    0.985914
   149  H    0.992667
   150  H    0.997313
   151  H    1.002150
   152  H    0.980682
   153  H    0.980475
   154  H    0.975150
   155  H    0.990662
   156  H    0.999408
   157  H    0.993156
   158  H    0.994954
 Sum of Mulliken charges = 624.00000

 Dipole moment (field-independent basis, Debye):
    X=             -4.9513    Y=              9.9449    Z=             -1.4273  Tot=             11.2006
 Quadrupole moment (field-independent basis, Debye-Ang):
   XX=           -296.3691   YY=             10.8270   ZZ=             -3.8020
   XY=            299.5283   XZ=            -45.4551   YZ=              2.6921

 Normal termination of Gaussian 16 at Thu Sep 23 03:24:46 2021.
