 Gaussian 16, Revision A.03,
 Gaussian 16:  ES64L-G16RevA.03 25-Dec-2016

 ----------------------------------------------------------
 #p cam-b3lyp/Def2SVP td=(nstates=5) density=(transition=1)
 ----------------------------------------------------------

 --------------------------------
 TDDFT excited states in gaussian
 --------------------------------
 Symbolic Z-matrix:
 Charge =  0 Multiplicity = 1

                         Standard orientation:
 ---------------------------------------------------------------------
 Center     Atomic      Atomic             Coordinates (Angstroms)
 Number     Number       Type             X           Y           Z
 ---------------------------------------------------------------------
      1         12           0       20.415367   -0.852210   -0.216543
      2          6           0       21.243758    2.585870   -0.119971
      3          6           0       17.214043   -0.044098    0.788521
      4          6           0       19.732574   -4.166148   -0.034260
      5          6           0       23.733534   -1.639851   -1.028207
      6          7           0       19.479949    1.072631    0.350902
      7          6           0       19.923181    2.370572    0.108136
      8          6           0       18.793263    3.435278    0.419746
      9          6           0       17.649886    2.535855    0.960340
     10          6           0       18.135218    1.084397    0.747914
     11          6           0       17.175498    2.751220    2.446175
     12          6           0       18.446085    4.462183   -0.734652
     13          6           0       18.647972    5.906013   -0.386856
     14          1           0       17.595254    6.918730   -0.989085
     15          7           0       18.731305   -1.880272    0.308830
     16          6           0       17.477839   -1.400736    0.630722
     17          6           0       16.592882   -2.517675    0.922263
     18          6           0       17.277568   -3.745038    0.695145
     19          6           0       18.657550   -3.300967    0.275424
     20          6           0       15.093500   -2.368052    1.249578
     21          6           0       16.777128   -5.182707    0.790882
     22          8           0       17.441253   -6.151471    0.484601
     23          6           0       15.300637   -5.586729    1.196749
     24          7           0       21.616638   -2.667506   -0.404105
     25          6           0       21.100710   -3.884124   -0.287739
     26          6           0       22.170127   -5.004811   -0.545657
     27          6           0       23.413178   -4.175156   -1.058225
     28          6           0       22.900875   -2.718168   -0.848430
     29          6           0       22.368875   -5.918607    0.698098
     30          6           0       23.804659   -4.547217   -2.474646
     31          6           0       25.312165   -4.656863   -2.696293
     32          7           0       22.228723    0.156227   -0.401236
     33          6           0       23.473576   -0.264934   -0.827991
     34          6           0       24.346316    0.867457   -0.777769
     35          6           0       23.544899    2.014605   -0.555266
     36          6           0       22.222944    1.545906   -0.316243
     37          6           0       25.808473    0.851932   -1.017011
     38          6           0       23.548142    3.487466   -0.518298
     39          8           0       24.449716    4.320155   -0.544570
     40          6           0       21.906689    3.903549   -0.249667
     41          6           0       21.799911    4.701840    0.931529
     42          8           0       21.382524    4.304090    1.997528
     43          8           0       22.107573    6.016392    0.662704
     44          6           0       22.065150    6.873314    1.873731
     45          1           0       16.161717    0.172848    0.984419
     46          1           0       19.582518   -5.243552    0.055730
     47          1           0       24.719398   -1.966023   -1.367973
     48          1           0       19.143015    3.934328    1.322832
     49          1           0       16.751706    2.649662    0.353289
     50          1           0       16.088770    2.661394    2.440673
     51          1           0       17.506040    3.736617    2.773640
     52          1           0       17.569118    2.021667    3.154207
     53          1           0       17.415328    4.250276   -1.019133
     54          1           0       19.122600    4.243623   -1.561060
     55          1           0       19.622286    6.237881   -0.747972
     56          1           0       18.632822    5.907326    0.702673
     57          1           0       14.575332   -2.803249    0.395795
     58          1           0       14.827506   -1.311307    1.214906
     59          1           0       14.749912   -2.876857    2.151082
     60          1           0       14.616691   -5.090834    0.507132
     61          1           0       15.123329   -5.518397    2.270466
     62          1           0       15.293491   -6.674675    1.137369
     63          1           0       21.911586   -5.671047   -1.368448
     64          1           0       24.204883   -4.347574   -0.328865
     65          1           0       23.436562   -5.979071    0.910927
     66          1           0       21.900368   -6.897724    0.595278
     67          1           0       21.884780   -5.468022    1.562994
     68          1           0       23.396024   -3.854538   -3.209657
     69          1           0       23.368953   -5.482876   -2.828504
     70          1           0       25.869784   -4.277259   -1.840040
     71          1           0       25.539649   -4.023151   -3.553934
     72          1           0       25.617260   -5.658372   -3.000018
     73          1           0       26.271099   -0.110953   -1.233425
     74          1           0       26.247790    1.475394   -0.237363
     75          1           0       25.889640    1.272505   -2.019610
     76          1           0       21.539913    4.466754   -1.108264
     77          1           0       22.778542    6.505890    2.611742
     78          1           0       21.024339    6.884162    2.197195
     79          1           0       22.368282    7.901003    1.677396
     80         12           0      -21.275124    0.111937    0.053479
     81          6           0      -18.043212    1.280739   -0.728657
     82          6           0      -21.714573   -0.418785   -3.228268
     83          6           0      -24.027014   -1.409103    0.944630
     84          6           0      -20.213280    0.133519    3.465588
     85          7           0      -19.982212    0.366558   -1.752843
     86          6           0      -18.752787    0.918953   -1.883671
     87          6           0      -18.282865    1.024692   -3.320330
     88          6           0      -19.636437    0.712308   -4.076100
     89          6           0      -20.536400    0.165024   -2.987627
     90          6           0      -20.290448    1.952474   -4.814069
     91          6           0      -17.078549    0.146184   -3.875970
     92          6           0      -16.555279   -1.094238   -3.104183
     93          1           0      -16.011106   -2.309851   -3.943785
     94          7           0      -22.746983   -0.678346   -1.075466
     95          6           0      -22.718225   -0.910558   -2.380942
     96          6           0      -23.933279   -1.681830   -2.760349
     97          6           0      -24.713231   -1.827086   -1.498711
     98          6           0      -23.811235   -1.301688   -0.473387
     99          6           0      -24.317533   -2.005271   -4.179020
    100          6           0      -26.052568   -2.503244   -1.364440
    101          8           0      -26.609531   -2.914275   -2.379406
    102          6           0      -26.795480   -2.795834   -0.008857
    103          7           0      -22.009455   -0.676725    1.998700
    104          6           0      -23.232059   -1.082135    1.996825
    105          6           0      -23.658013   -1.318278    3.514037
    106          6           0      -22.332159   -1.046744    4.227868
    107          6           0      -21.415186   -0.496981    3.152299
    108          6           0      -24.843662   -0.527110    4.091150
    109          6           0      -21.600189   -2.382912    4.765999
    110          6           0      -21.494308   -2.539269    6.294068
    111          7           0      -19.525489    0.522942    1.186679
    112          6           0      -19.277425    0.610113    2.531071
    113          6           0      -17.992781    1.313469    2.782139
    114          6           0      -17.385288    1.495502    1.507574
    115          6           0      -18.445938    1.083604    0.589810
    116          6           0      -17.327092    1.580796    4.150537
    117          6           0      -16.249564    1.937127    0.769115
    118          8           0      -15.094780    2.279931    1.075507
    119          6           0      -16.650574    1.891325   -0.727321
    120          6           0      -16.510029    3.317584   -1.267087
    121          8           0      -15.702916    3.841145   -1.988253
    122          8           0      -17.681190    4.010823   -0.942555
    123          6           0      -17.831315    5.403321   -1.468160
    124          1           0      -21.826765   -0.588498   -4.301322
    125          1           0      -24.977689   -1.888198    1.190987
    126          1           0      -20.017988    0.371867    4.512863
    127          1           0      -18.066947    2.083833   -3.459522
    128          1           0      -19.450360   -0.029225   -4.853157
    129          1           0      -19.716329    2.860504   -4.632836
    130          1           0      -21.207712    2.083680   -4.241083
    131          1           0      -20.427734    1.720263   -5.870322
    132          1           0      -16.242925    0.827872   -4.035039
    133          1           0      -17.328389   -0.195442   -4.881018
    134          1           0      -17.397343   -1.442186   -2.505841
    135          1           0      -15.650560   -0.904516   -2.527429
    136          1           0      -25.352666   -2.330435   -4.281145
    137          1           0      -23.558282   -2.694095   -4.551264
    138          1           0      -24.105754   -1.081247   -4.718016
    139          1           0      -26.973677   -2.003079    0.718679
    140          1           0      -26.188969   -3.500224    0.560432
    141          1           0      -27.788267   -3.215566   -0.168459
    142          1           0      -23.996660   -2.340810    3.677461
    143          1           0      -22.328351   -0.394444    5.101827
    144          1           0      -25.298185    0.124923    3.345082
    145          1           0      -24.559339    0.032152    4.983120
    146          1           0      -25.674581   -1.158290    4.406260
    147          1           0      -20.571501   -2.448606    4.414268
    148          1           0      -22.163823   -3.213115    4.339796
    149          1           0      -20.603691   -3.055679    6.653008
    150          1           0      -22.339703   -3.167751    6.573962
    151          1           0      -21.518505   -1.509770    6.651553
    152          1           0      -17.756363    1.031745    4.987973
    153          1           0      -17.481890    2.647143    4.313139
    154          1           0      -16.253116    1.433553    4.039249
    155          1           0      -15.970051    1.230065   -1.262701
    156          1           0      -16.934024    6.002918   -1.619737
    157          1           0      -18.381248    5.907975   -0.674030
    158          1           0      -18.442207    5.560854   -2.357266
 ---------------------------------------------------------------------

 SCF Done:  E(RCAM-B3LYP) =  -4069.79489610     A.U. after   18 cycles

 Excitation energies and oscillator strengths:

 Excited State   1:      Singlet-A      1.7689 eV  700.92 nm  f=0.4347  <S**2>=0.000
     309 -> 315       -0.18494
     311 -> 313        0.68322
     309 <- 315       -0.10625
 This state for optimization and/or second-order correction.
 Total Energy, E(TD-HF/TD-DFT) =  -4069.72989111
 Copying the excited state density for this state as the 1-particle RhoCI density.

 Excited State   2:      Singlet-A      1.7839 eV  695.00 nm  f=0.3500  <S**2>=0.000
     310 -> 316        0.17635
     312 -> 314        0.68472
     310 <- 316        0.10136

 Excited State   3:      Singlet-A      2.2587 eV  548.91 nm  f=0.1142  <S**2>=0.000
     310 -> 314        0.63967
     312 -> 316       -0.28423

 Excited State   4:      Singlet-A      2.2833 eV  543.00 nm  f=0.0989  <S**2>=0.000
     309 -> 313        0.63711
     311 -> 315        0.29627

 Excited State   5:      Singlet-A      3.1274 eV  396.44 nm  f=0.0000  <S**2>=0.000
     312 -> 313        0.70710

 The electronic state is 1-A.
 Alpha  occ. eigenvalues --  -46.90116 -46.88197 -19.24648 -19.24297 -19.20465
 Alpha  occ. eigenvalues --  -19.19845 -19.19516 -19.19350 -19.19188 -19.18645
 Alpha  occ. eigenvalues --  -14.42363 -14.42234 -14.41888 -14.41726 -14.40484
 Alpha  occ. eigenvalues --  -14.40303 -14.40211 -14.38685 -10.39930 -10.38287
 Alpha  occ. eigenvalues --  -10.36363 -10.35959 -10.35740 -10.35650 -10.32482
 Alpha  occ. eigenvalues --  -10.31941 -10.31916 -10.31570 -10.31236 -10.31234
 Alpha  occ. eigenvalues --  -10.31169 -10.31091 -10.31074 -10.30818 -10.30776
 Alpha  occ. eigenvalues --  -10.30223 -10.30157 -10.30149 -10.30148 -10.30133
 Alpha  occ. eigenvalues --  -10.29915 -10.29774 -10.29458 -10.29019 -10.28846
 Alpha  occ. eigenvalues --  -10.28827 -10.28802 -10.28668 -10.28618 -10.28460
 Alpha  occ. eigenvalues --  -10.28068 -10.27987 -10.27955 -10.27954 -10.27869
 Alpha  occ. eigenvalues --  -10.27770 -10.27745 -10.27669 -10.27629 -10.27615
 Alpha  occ. eigenvalues --  -10.27576 -10.27421 -10.27331 -10.27293 -10.27233
 Alpha  occ. eigenvalues --  -10.27136 -10.27088 -10.26883 -10.26870 -10.26739
 Alpha  occ. eigenvalues --  -10.26680 -10.26633 -10.26612 -10.26460 -10.26424
 Alpha  occ. eigenvalues --  -10.26391 -10.26299 -10.26221 -10.26209 -10.25948
 Alpha  occ. eigenvalues --  -10.25835 -10.25789 -10.25425 -10.25259 -10.25112
 Alpha  occ. eigenvalues --  -10.24841  -3.18594  -3.16726  -1.93482  -1.93048
 Alpha  occ. eigenvalues --   -1.92897  -1.91634  -1.91176  -1.91033  -1.16109
 Alpha  occ. eigenvalues --   -1.15841  -1.11476  -1.09614  -1.09379  -1.09230
 Alpha  occ. eigenvalues --   -1.07398  -1.07329  -1.06793  -1.04873  -1.04060
 Alpha  occ. eigenvalues --   -1.04052  -1.03352  -1.02433  -1.01928  -1.00906
 Alpha  occ. eigenvalues --   -0.93634  -0.91815  -0.89855  -0.89105  -0.88872
 Alpha  occ. eigenvalues --   -0.88665  -0.88399  -0.88349  -0.88009  -0.87185
 Alpha  occ. eigenvalues --   -0.86952  -0.86859  -0.85576  -0.85458  -0.84941
 Alpha  occ. eigenvalues --   -0.84344  -0.84005  -0.83609  -0.82952  -0.82473
 Alpha  occ. eigenvalues --   -0.81843  -0.81003  -0.80858  -0.80686  -0.80594
 Alpha  occ. eigenvalues --   -0.80065  -0.78567  -0.78398  -0.77760  -0.77079
 Alpha  occ. eigenvalues --   -0.76910  -0.76739  -0.76419  -0.75731  -0.75419
 Alpha  occ. eigenvalues --   -0.74686  -0.73370  -0.72447  -0.72212  -0.71268
 Alpha  occ. eigenvalues --   -0.69616  -0.69320  -0.69022  -0.68818  -0.68739
 Alpha  occ. eigenvalues --   -0.67577  -0.67392  -0.67203  -0.66905  -0.65746
 Alpha  occ. eigenvalues --   -0.65599  -0.65563  -0.64925  -0.64768  -0.64554
 Alpha  occ. eigenvalues --   -0.64319  -0.63214  -0.61115  -0.60653  -0.60250
 Alpha  occ. eigenvalues --   -0.60003  -0.59515  -0.59136  -0.58764  -0.58603
 Alpha  occ. eigenvalues --   -0.58137  -0.57993  -0.57777  -0.57363  -0.56974
 Alpha  occ. eigenvalues --   -0.56420  -0.55926  -0.55914  -0.55746  -0.55734
 Alpha  occ. eigenvalues --   -0.55125  -0.54705  -0.54582  -0.54212  -0.53997
 Alpha  occ. eigenvalues --   -0.53665  -0.53662  -0.53208  -0.53175  -0.53059
 Alpha  occ. eigenvalues --   -0.53006  -0.52875  -0.52521  -0.52096  -0.52069
 Alpha  occ. eigenvalues --   -0.51818  -0.51663  -0.51587  -0.51381  -0.51297
 Alpha  occ. eigenvalues --   -0.51159  -0.50983  -0.50885  -0.50666  -0.50557
 Alpha  occ. eigenvalues --   -0.50115  -0.50067  -0.49849  -0.49544  -0.49539
 Alpha  occ. eigenvalues --   -0.49484  -0.49432  -0.49078  -0.48927  -0.48615
 Alpha  occ. eigenvalues --   -0.48603  -0.48564  -0.48510  -0.48343  -0.48036
 Alpha  occ. eigenvalues --   -0.47974  -0.47949  -0.47702  -0.47681  -0.47484
 Alpha  occ. eigenvalues --   -0.47461  -0.47286  -0.46984  -0.46751  -0.46696
 Alpha  occ. eigenvalues --   -0.46390  -0.46327  -0.46185  -0.46138  -0.45966
 Alpha  occ. eigenvalues --   -0.45955  -0.45580  -0.45495  -0.45409  -0.45111
 Alpha  occ. eigenvalues --   -0.44920  -0.44814  -0.44645  -0.44439  -0.44258
 Alpha  occ. eigenvalues --   -0.43969  -0.43962  -0.43900  -0.43630  -0.43536
 Alpha  occ. eigenvalues --   -0.43344  -0.43259  -0.43175  -0.43163  -0.42928
 Alpha  occ. eigenvalues --   -0.42727  -0.42377  -0.42305  -0.42266  -0.42120
 Alpha  occ. eigenvalues --   -0.42061  -0.41964  -0.41515  -0.41477  -0.41295
 Alpha  occ. eigenvalues --   -0.41143  -0.40973  -0.40732  -0.40529  -0.40255
 Alpha  occ. eigenvalues --   -0.40017  -0.39992  -0.39646  -0.39398  -0.39286
 Alpha  occ. eigenvalues --   -0.38903  -0.38655  -0.38257  -0.37709  -0.37629
 Alpha  occ. eigenvalues --   -0.37142  -0.36945  -0.36834  -0.36714  -0.36373
 Alpha  occ. eigenvalues --   -0.36216  -0.35880  -0.35064  -0.34313  -0.34255
 Alpha  occ. eigenvalues --   -0.33813  -0.33695  -0.33050  -0.31960  -0.31623
 Alpha  occ. eigenvalues --   -0.31464  -0.31448  -0.31096  -0.31010  -0.30613
 Alpha  occ. eigenvalues --   -0.30198  -0.29317  -0.28627  -0.24541  -0.24031
 Alpha  occ. eigenvalues --   -0.21581  -0.21282
 Alpha virt. eigenvalues --   -0.08962  -0.08484  -0.02080  -0.01743  -0.00667
 Alpha virt. eigenvalues --    0.00078   0.01140   0.01821   0.02134   0.02999
 Alpha virt. eigenvalues --    0.04252   0.04574   0.04917   0.05391   0.05431

 Mulliken charges:
               1
     1  Mg  11.999769
     2  C    6.000933
     3  C    5.999428
     4  C    5.998953
     5  C    6.000439
     6  N    7.000509
     7  C    5.998802
     8  C    6.000508
     9  C    5.999588
    10  C    6.001449
    11  C    5.999727
    12  C    6.000070
    13  C    6.000065
    14  H    0.999840
    15  N    6.999442
    16  C    6.001604
    17  C    6.000793
    18  C    6.000683
    19  C    6.001524
    20  C    5.999859
    21  C    6.000322
    22  O    8.000981
    23  C    5.999861
    24  N    6.999906
    25  C    6.001443
    26  C    5.999570
    27  C    6.000474
    28  C    5.998932
    29  C    5.999912
    30  C    6.000195
    31  C    6.000034
    32  N    7.000178
    33  C    5.998392
    34  C    5.998941
    35  C    5.999848
    36  C    5.998587
    37  C    6.000162
    38  C    5.999382
    39  O    7.998895
    40  C    5.999514
    41  C    5.999984
    42  O    7.999595
    43  O    7.999988
    44  C    6.000107
    45  H    1.000557
    46  H    1.000154
    47  H    0.999486
    48  H    0.999856
    49  H    1.000174
    50  H    1.000146
    51  H    1.000665
    52  H    1.000046
    53  H    0.999693
    54  H    1.000188
    55  H    1.000166
    56  H    0.999927
    57  H    1.000767
    58  H    1.000772
    59  H    1.000824
    60  H    1.000282
    61  H    1.000431
    62  H    1.000516
    63  H    1.000043
    64  H    0.999884
    65  H    1.000392
    66  H    0.999921
    67  H    0.999907
    68  H    0.999979
    69  H    0.999524
    70  H    1.000114
    71  H    1.000045
    72  H    0.999712
    73  H    0.999100
    74  H    0.999221
    75  H    0.999082
    76  H    0.999711
    77  H    0.999927
    78  H    0.999788
    79  H    0.999811
    80  Mg  12.004620
    81  C    6.018234
    82  C    5.976421
    83  C    5.975311
    84  C    6.024059
    85  N    6.998861
    86  C    5.967136
    87  C    6.013102
    88  C    5.990031
    89  C    6.029535
    90  C    5.998361
    91  C    5.998367
    92  C    6.008987
    93  H    0.989034
    94  N    6.989447
    95  C    6.051937
    96  C    6.029548
    97  C    6.006186
    98  C    6.046710
    99  C    5.997395
   100  C    6.009909
   101  O    8.018032
   102  C    5.997288
   103  N    7.003225
   104  C    6.028650
   105  C    5.992340
   106  C    6.004951
   107  C    5.964837
   108  C    5.999252
   109  C    6.007171
   110  C    6.000178
   111  N    7.003844
   112  C    5.957152
   113  C    5.970276
   114  C    5.991105
   115  C    5.971690
   116  C    6.001165
   117  C    5.983666
   118  O    7.965716
   119  C    5.999878
   120  C    5.998641
   121  O    7.990816
   122  O    8.003267
   123  C    6.003383
   124  H    1.008191
   125  H    1.008284
   126  H    0.993589
   127  H    0.998277
   128  H    1.001298
   129  H    1.014413
   130  H    0.994949
   131  H    1.001612
   132  H    1.001655
   133  H    0.989979
   134  H    0.996278
   135  H    1.004784
   136  H    1.016546
   137  H    1.023175
   138  H    1.022517
   139  H    1.011590
   140  H    1.010191
   141  H    1.012468
   142  H    1.000150
   143  H    1.000640
   144  H    0.996408
   145  H    1.010489
   146  H    1.000121
   147  H    1.004022
   148  H    0.985723
   149  H    0.999747
   150  H    0.993353
   151  H    1.001105
   152  H    0.979676
   153  H    0.980731
   154  H    0.984639
   155  H    0.989616
   156  H    0.996553
   157  H    0.997559
   158  H    0.989959
 Sum of Mulliken charges = 624.00000

 Dipole moment (field-independent basis, Debye):
    X=             -9.2088    Y=             -4.1436    Z=             -5.2578  Tot=             11.3849
 Quadrupole moment (field-independent basis, Debye-Ang):
   XX=            353.5218   YY=             -0.6010   ZZ=             -0.0612
   XY=             79.1139   XZ=            116.0119   YZ=              2.1989

 Normal termination of Gaussian 16 at Thu Sep 23 09:49:31 2021.
