 Gaussian 16, Revision A.03,
 Gaussian 16:  ES64L-G16RevA.03 25-Dec-2016

 -----------------------------------
 #p cam-b3lyp/Def2SVP td=(nstates=5)
 -----------------------------------

 --------------------------------
 TDDFT excited states in gaussian
 --------------------------------
 Symbolic Z-matrix:
 Charge =  0 Multiplicity = 1

                         Standard orientation:
 ---------------------------------------------------------------------
 Center     Atomic      Atomic             Coordinates (Angstroms)
 Number     Number       Type             X           Y           Z
 ---------------------------------------------------------------------
      1         12           0        9.790694   -0.189693    0.574273
      2          6           0        8.719810    1.496536   -2.354305
      3          6           0        6.726850    0.424219    1.902275
      4          6           0       10.533928   -2.477301    2.977153
      5          6           0       12.638961   -1.155617   -1.148256
      6          7           0        7.932146    0.735496   -0.318134
      7          6           0        7.713918    1.450387   -1.465910
      8          6           0        6.366442    2.070681   -1.488081
      9          6           0        5.899005    1.978018    0.040185
     10          6           0        6.877819    0.991268    0.578753
     11          6           0        5.938796    3.332930    0.728383
     12          6           0        5.531087    1.310378   -2.530071
     13          6           0        4.834530    2.160113   -3.674918
     14          1           0        3.300287    2.068170   -3.932500
     15          7           0        8.841654   -0.928566    2.248770
     16          6           0        7.588902   -0.459796    2.668156
     17          6           0        7.339436   -0.994763    3.972965
     18          6           0        8.411919   -1.881627    4.326339
     19          6           0        9.361986   -1.729952    3.191918
     20          6           0        6.098484   -0.589907    4.758156
     21          6           0        8.573436   -2.731804    5.566649
     22          8           0        7.676715   -2.529743    6.435867
     23          6           0        9.606621   -3.859931    5.845345
     24          7           0       11.385797   -1.640646    0.903523
     25          6           0       11.477095   -2.440282    1.988953
     26          6           0       12.710908   -3.380575    1.953313
     27          6           0       13.446247   -2.865434    0.668175
     28          6           0       12.376602   -1.838116    0.065372
     29          6           0       13.509890   -3.223483    3.234676
     30          6           0       13.796433   -3.919121   -0.337749
     31          6           0       15.275190   -4.158778   -0.478353
     32          7           0       10.653339    0.193334   -1.220449
     33          6           0       11.852543   -0.204047   -1.825234
     34          6           0       12.109335    0.502636   -2.974464
     35          6           0       10.917996    1.218759   -3.210047
     36          6           0       10.045077    0.934731   -2.162303
     37          6           0       13.459988    0.532755   -3.657969
     38          6           0       10.293097    2.224837   -4.109407
     39          8           0       10.746538    2.761523   -5.072133
     40          6           0        8.818292    2.320022   -3.563363
     41          6           0        8.420733    3.778933   -3.619627
     42          8           0        7.671965    4.268132   -4.465486
     43          8           0        8.989637    4.486212   -2.532725
     44          6           0        8.533557    5.874521   -2.470886
     45          1           0        5.843197    0.797082    2.424857
     46          1           0       10.860841   -3.148512    3.774807
     47          1           0       13.382485   -1.580520   -1.824870
     48          1           0        6.451799    3.111581   -1.800332
     49          1           0        4.869863    1.620347    0.058301
     50          1           0        6.781677    3.948562    0.417308
     51          1           0        6.099764    3.169563    1.794504
     52          1           0        5.007920    3.894310    0.648563
     53          1           0        4.760045    0.766569   -1.984490
     54          1           0        6.063515    0.486920   -3.006036
     55          1           0        5.352729    1.757375   -4.545576
     56          1           0        5.189488    3.189924   -3.660520
     57          1           0        5.198031   -0.703735    4.154539
     58          1           0        6.218659    0.469213    4.985702
     59          1           0        5.846375   -1.178706    5.641187
     60          1           0       10.545559   -3.315935    5.943053
     61          1           0        9.627975   -4.530184    4.985962
     62          1           0        9.357136   -4.447558    6.729235
     63          1           0       12.461744   -4.438435    1.873869
     64          1           0       14.287680   -2.233307    0.950747
     65          1           0       12.818517   -3.333844    4.070266
     66          1           0       13.944278   -2.223294    3.242342
     67          1           0       14.398322   -3.834481    3.389726
     68          1           0       13.473858   -3.680636   -1.351246
     69          1           0       13.355987   -4.904863   -0.189311
     70          1           0       15.456623   -5.222407   -0.328829
     71          1           0       15.858729   -3.668589    0.300941
     72          1           0       15.698876   -3.802722   -1.418008
     73          1           0       13.446694    1.407665   -4.308735
     74          1           0       13.642500   -0.361328   -4.253652
     75          1           0       14.179482    0.607797   -2.842923
     76          1           0        8.249757    1.875556   -4.381077
     77          1           0        8.572934    6.244149   -1.446139
     78          1           0        7.471231    5.954391   -2.697107
     79          1           0        9.074449    6.533131   -3.150978
     80         12           0       -9.904533   -0.731665   -0.036804
     81          6           0       -8.453718    2.136330    1.358614
     82          6           0       -6.736430   -1.546940   -1.391220
     83          6           0      -11.346554   -3.325387   -1.686853
     84          6           0      -13.017079    0.562228    0.710807
     85          7           0       -7.865264    0.116822    0.145870
     86          6           0       -7.525249    1.215956    0.939778
     87          6           0       -5.973207    1.213551    1.184374
     88          6           0       -5.488503    0.110730    0.236122
     89          6           0       -6.786095   -0.464067   -0.431946
     90          6           0       -4.507726    0.694244   -0.816409
     91          6           0       -5.715254    0.989541    2.669392
     92          6           0       -4.440540    1.561824    3.267544
     93          1           0       -3.336818    2.053229    2.303847
     94          7           0       -9.190619   -2.255161   -1.349332
     95          6           0       -7.865793   -2.395897   -1.804415
     96          6           0       -7.756898   -3.517388   -2.720822
     97          6           0       -9.066039   -4.136125   -2.804167
     98          6           0       -9.935199   -3.224466   -1.943088
     99          6           0       -6.434324   -4.035998   -3.299684
    100          6           0       -9.534096   -5.374541   -3.544088
    101          8           0      -10.699709   -5.738600   -3.463395
    102          6           0       -8.520776   -6.244531   -4.182885
    103          7           0      -11.930156   -1.314236   -0.358686
    104          6           0      -12.250746   -2.475601   -0.994189
    105          6           0      -13.773130   -2.741639   -0.861526
    106          6           0      -14.323620   -1.520191   -0.027872
    107          6           0      -13.017317   -0.729381    0.241655
    108          6           0      -14.414763   -2.886299   -2.253107
    109          6           0      -14.997380   -1.897805    1.318073
    110          6           0      -16.512944   -1.845123    1.151928
    111          7           0      -10.694674    1.036172    0.755709
    112          6           0      -11.958368    1.485519    0.948440
    113          6           0      -11.864641    2.909321    1.353126
    114          6           0      -10.554796    3.174825    1.626558
    115          6           0       -9.878274    2.004320    1.197796
    116          6           0      -13.107622    3.748614    1.596682
    117          6           0       -9.584694    4.144915    2.151698
    118          8           0       -9.773531    5.283777    2.561789
    119          6           0       -8.238221    3.452544    2.065628
    120          6           0       -7.347925    4.407629    1.387166
    121          8           0       -7.248720    4.695809    0.186814
    122          8           0       -6.615545    5.053409    2.362174
    123          6           0       -5.715596    6.095060    1.916997
    124          1           0       -5.729566   -1.808395   -1.722687
    125          1           0      -11.710461   -4.239824   -2.160034
    126          1           0      -14.035022    0.938827    0.831521
    127          1           0       -5.719969    2.216102    0.837493
    128          1           0       -4.860821   -0.544467    0.840057
    129          1           0       -4.889819    0.718059   -1.837108
    130          1           0       -3.725299   -0.053262   -0.944235
    131          1           0       -4.193121    1.707977   -0.569239
    132          1           0       -5.799336   -0.090527    2.793523
    133          1           0       -6.569729    1.361212    3.233703
    134          1           0       -4.024514    0.831715    3.960465
    135          1           0       -4.839847    2.384153    3.862242
    136          1           0       -5.578621   -3.392858   -3.093276
    137          1           0       -6.516327   -4.131442   -4.383221
    138          1           0       -6.282706   -5.058146   -2.954816
    139          1           0       -7.890772   -6.672892   -3.402933
    140          1           0       -8.037840   -5.736920   -5.017838
    141          1           0       -8.972882   -7.126137   -4.637383
    142          1           0      -13.895035   -3.703397   -0.363795
    143          1           0      -14.949514   -0.961847   -0.725237
    144          1           0      -15.231367   -2.204029   -2.487472
    145          1           0      -14.835427   -3.885598   -2.143164
    146          1           0      -13.732447   -2.723652   -3.086956
    147          1           0      -14.862442   -1.096437    2.044722
    148          1           0      -14.701417   -2.875437    1.698995
    149          1           0      -16.851951   -2.777727    1.602695
    150          1           0      -16.854566   -1.946206    0.122079
    151          1           0      -17.006326   -0.991634    1.617770
    152          1           0      -14.040922    3.315405    1.236051
    153          1           0      -13.027955    4.748695    1.172309
    154          1           0      -13.298206    3.768139    2.670293
    155          1           0       -7.911701    3.238394    3.082767
    156          1           0       -6.285360    6.771010    1.278861
    157          1           0       -4.861919    5.720999    1.351403
    158          1           0       -5.595660    6.741550    2.785683
 ---------------------------------------------------------------------

 SCF Done:  E(RCAM-B3LYP) =  -4069.80444406     A.U. after   19 cycles

 Excitation energies and oscillator strengths:

 Excited State   1:      Singlet-A      1.6784 eV  738.69 nm  f=0.3814  <S**2>=0.000
     310 -> 316        0.17294
     312 -> 314        0.68680
     310 <- 316        0.10452
 This state for optimization and/or second-order correction.
 Total Energy, E(TD-HF/TD-DFT) =  -4069.74276261
 Copying the excited state density for this state as the 1-particle RhoCI density.

 Excited State   2:      Singlet-A      1.6835 eV  736.48 nm  f=0.3752  <S**2>=0.000
     309 -> 315        0.17386
     311 -> 313        0.68652
     309 <- 315        0.10792

 Excited State   3:      Singlet-A      2.1968 eV  564.40 nm  f=0.1302  <S**2>=0.000
     310 -> 314        0.64345
     312 -> 316       -0.27317

 Excited State   4:      Singlet-A      2.2197 eV  558.56 nm  f=0.1543  <S**2>=0.000
     309 -> 313        0.64689
     311 -> 315       -0.26622

 Excited State   5:      Singlet-A      2.6468 eV  468.43 nm  f=0.0000  <S**2>=0.000
     312 -> 313        0.70700

 The electronic state is 1-A.
 Alpha  occ. eigenvalues --  -46.89133 -46.89111 -19.25728 -19.24474 -19.21113
 Alpha  occ. eigenvalues --  -19.19969 -19.19805 -19.19295 -19.19192 -19.18431
 Alpha  occ. eigenvalues --  -14.42496 -14.42355 -14.42186 -14.41732 -14.40215
 Alpha  occ. eigenvalues --  -14.40112 -14.39196 -14.39123 -10.40459 -10.39373
 Alpha  occ. eigenvalues --  -10.35791 -10.35595 -10.35465 -10.35402 -10.32113
 Alpha  occ. eigenvalues --  -10.31992 -10.31752 -10.31248 -10.31198 -10.31150
 Alpha  occ. eigenvalues --  -10.31000 -10.30983 -10.30975 -10.30789 -10.30759
 Alpha  occ. eigenvalues --  -10.30681 -10.30649 -10.30075 -10.29528 -10.29337
 Alpha  occ. eigenvalues --  -10.29187 -10.29099 -10.28990 -10.28714 -10.28679
 Alpha  occ. eigenvalues --  -10.28664 -10.28587 -10.28520 -10.28448 -10.28444
 Alpha  occ. eigenvalues --  -10.28408 -10.28340 -10.28165 -10.28101 -10.28036
 Alpha  occ. eigenvalues --  -10.27853 -10.27781 -10.27769 -10.27667 -10.27603
 Alpha  occ. eigenvalues --  -10.27597 -10.27585 -10.27552 -10.27496 -10.27425
 Alpha  occ. eigenvalues --  -10.27411 -10.27160 -10.27122 -10.26883 -10.26815
 Alpha  occ. eigenvalues --  -10.26714 -10.26600 -10.26519 -10.26475 -10.26403
 Alpha  occ. eigenvalues --  -10.26279 -10.26220 -10.26064 -10.25547 -10.25513
 Alpha  occ. eigenvalues --  -10.25498 -10.25305 -10.25248 -10.25208 -10.24994
 Alpha  occ. eigenvalues --  -10.24768  -3.17697  -3.17508  -1.92577  -1.92421
 Alpha  occ. eigenvalues --   -1.92158  -1.92002  -1.91922  -1.91840  -1.15810
 Alpha  occ. eigenvalues --   -1.15692  -1.12156  -1.10444  -1.10009  -1.08054
 Alpha  occ. eigenvalues --   -1.07758  -1.06879  -1.05378  -1.04400  -1.04315
 Alpha  occ. eigenvalues --   -1.03484  -1.02879  -1.02780  -1.02636  -1.01620
 Alpha  occ. eigenvalues --   -0.93441  -0.93369  -0.90049  -0.89446  -0.89284
 Alpha  occ. eigenvalues --   -0.89198  -0.88770  -0.87995  -0.87956  -0.87136
 Alpha  occ. eigenvalues --   -0.87101  -0.86847  -0.86083  -0.85594  -0.84964
 Alpha  occ. eigenvalues --   -0.84400  -0.84311  -0.83878  -0.82760  -0.82734
 Alpha  occ. eigenvalues --   -0.82370  -0.82081  -0.80897  -0.80831  -0.80610
 Alpha  occ. eigenvalues --   -0.80017  -0.78086  -0.77940  -0.77577  -0.77261
 Alpha  occ. eigenvalues --   -0.77035  -0.76823  -0.76614  -0.75961  -0.75637
 Alpha  occ. eigenvalues --   -0.74532  -0.73655  -0.72530  -0.72354  -0.71005
 Alpha  occ. eigenvalues --   -0.69539  -0.69110  -0.69066  -0.68482  -0.67928
 Alpha  occ. eigenvalues --   -0.67854  -0.67367  -0.67070  -0.66473  -0.65831
 Alpha  occ. eigenvalues --   -0.65478  -0.65415  -0.65059  -0.64927  -0.64630
 Alpha  occ. eigenvalues --   -0.63895  -0.63236  -0.62137  -0.60658  -0.60230
 Alpha  occ. eigenvalues --   -0.60113  -0.59726  -0.59646  -0.59096  -0.59088
 Alpha  occ. eigenvalues --   -0.58796  -0.58349  -0.58185  -0.57631  -0.57008
 Alpha  occ. eigenvalues --   -0.56359  -0.55947  -0.55885  -0.55763  -0.55759
 Alpha  occ. eigenvalues --   -0.55095  -0.55062  -0.54774  -0.54475  -0.54021
 Alpha  occ. eigenvalues --   -0.53709  -0.53624  -0.53584  -0.53421  -0.53329
 Alpha  occ. eigenvalues --   -0.53319  -0.52917  -0.52825  -0.52815  -0.52412
 Alpha  occ. eigenvalues --   -0.52172  -0.51900  -0.51847  -0.51720  -0.51375
 Alpha  occ. eigenvalues --   -0.51246  -0.51014  -0.50769  -0.50668  -0.50421
 Alpha  occ. eigenvalues --   -0.50322  -0.50167  -0.49993  -0.49815  -0.49788
 Alpha  occ. eigenvalues --   -0.49616  -0.49296  -0.49250  -0.49038  -0.49024
 Alpha  occ. eigenvalues --   -0.48762  -0.48656  -0.48472  -0.48157  -0.48127
 Alpha  occ. eigenvalues --   -0.47863  -0.47854  -0.47396  -0.47343  -0.47122
 Alpha  occ. eigenvalues --   -0.47013  -0.46732  -0.46725  -0.46590  -0.46395
 Alpha  occ. eigenvalues --   -0.46149  -0.46043  -0.46032  -0.45886  -0.45868
 Alpha  occ. eigenvalues --   -0.45618  -0.45438  -0.45280  -0.45233  -0.45020
 Alpha  occ. eigenvalues --   -0.45001  -0.44733  -0.44446  -0.44381  -0.44214
 Alpha  occ. eigenvalues --   -0.44176  -0.44104  -0.43787  -0.43585  -0.43394
 Alpha  occ. eigenvalues --   -0.43391  -0.43170  -0.43043  -0.42802  -0.42784
 Alpha  occ. eigenvalues --   -0.42615  -0.42613  -0.42551  -0.42539  -0.42361
 Alpha  occ. eigenvalues --   -0.42197  -0.41867  -0.41867  -0.41707  -0.41531
 Alpha  occ. eigenvalues --   -0.41525  -0.41248  -0.41243  -0.41089  -0.40431
 Alpha  occ. eigenvalues --   -0.40255  -0.39995  -0.39166  -0.38938  -0.38905
 Alpha  occ. eigenvalues --   -0.38456  -0.38353  -0.38013  -0.37973  -0.37947
 Alpha  occ. eigenvalues --   -0.37771  -0.37455  -0.37361  -0.36559  -0.36444
 Alpha  occ. eigenvalues --   -0.36327  -0.35843  -0.35527  -0.34823  -0.34373
 Alpha  occ. eigenvalues --   -0.34085  -0.33316  -0.32612  -0.31876  -0.31562
 Alpha  occ. eigenvalues --   -0.31457  -0.31270  -0.31241  -0.30713  -0.30268
 Alpha  occ. eigenvalues --   -0.30145  -0.29976  -0.29916  -0.24539  -0.23798
 Alpha  occ. eigenvalues --   -0.21770  -0.20931
 Alpha virt. eigenvalues --   -0.09454  -0.08662  -0.01960  -0.01457   0.00101
 Alpha virt. eigenvalues --    0.00188   0.01683   0.01829   0.02284   0.02515
 Alpha virt. eigenvalues --    0.04038   0.04875   0.05079   0.05196   0.05570

 Mulliken charges:
               1
     1  Mg   0.834355
     2  C    0.054391
     3  C   -0.069818
     4  C   -0.042634
     5  C   -0.089191
     6  N   -0.294826
     7  C   -0.091807
     8  C   -0.014593
     9  C   -0.026140
    10  C    0.046614
    11  C    0.078038
    12  C    0.043504
    13  C   -0.061122
    14  H    0.031352
    15  N   -0.389545
    16  C    0.137831
    17  C   -0.129105
    18  C   -0.023700
    19  C    0.152782
    20  C    0.116595
    21  C   -0.020037
    22  O   -0.248572
    23  C    0.085891
    24  N   -0.230543
    25  C   -0.019174
    26  C    0.006676
    27  C   -0.010700
    28  C    0.025256
    29  C    0.054991
    30  C    0.043080
    31  C   -0.008656
    32  N   -0.375687
    33  C    0.100450
    34  C   -0.182807
    35  C   -0.033712
    36  C    0.116753
    37  C    0.133517
    38  C    0.043224
    39  O   -0.120171
    40  C    0.002723
    41  C    0.187314
    42  O   -0.212117
    43  O   -0.363389
    44  C    0.179896
    45  H   -0.018952
    46  H   -0.075908
    47  H   -0.016032
    48  H    0.012881
    49  H    0.010171
    50  H    0.016310
    51  H    0.003269
    52  H    0.023899
    53  H    0.006245
    54  H    0.023667
    55  H    0.028481
    56  H    0.033523
    57  H    0.011818
    58  H    0.024097
    59  H    0.039963
    60  H    0.042778
    61  H    0.043279
    62  H    0.036504
    63  H    0.016246
    64  H    0.018988
    65  H    0.011195
    66  H    0.003494
    67  H    0.016535
    68  H    0.007462
    69  H    0.001181
    70  H    0.009200
    71  H    0.001049
    72  H    0.018537
    73  H    0.037468
    74  H    0.028898
    75  H    0.025124
    76  H    0.038821
    77  H    0.028958
    78  H    0.028240
    79  H    0.045423
    80  Mg   0.819644
    81  C   -0.001608
    82  C   -0.062339
    83  C   -0.049377
    84  C   -0.063009
    85  N   -0.299520
    86  C   -0.121770
    87  C    0.023266
    88  C   -0.072084
    89  C    0.088221
    90  C    0.047491
    91  C    0.043921
    92  C   -0.030414
    93  H    0.029035
    94  N   -0.363613
    95  C    0.139397
    96  C   -0.154922
    97  C   -0.043536
    98  C    0.067705
    99  C    0.127859
   100  C    0.011870
   101  O   -0.199308
   102  C    0.049124
   103  N   -0.300404
   104  C    0.068951
   105  C   -0.058291
   106  C   -0.010024
   107  C    0.028462
   108  C    0.054639
   109  C    0.057264
   110  C   -0.011244
   111  N   -0.319248
   112  C    0.103430
   113  C   -0.191829
   114  C    0.027752
   115  C    0.105689
   116  C    0.107755
   117  C    0.039859
   118  O   -0.159333
   119  C    0.037372
   120  C    0.197695
   121  O   -0.231923
   122  O   -0.337898
   123  C    0.191720
   124  H   -0.027695
   125  H   -0.004966
   126  H   -0.030799
   127  H    0.010536
   128  H    0.014765
   129  H    0.012111
   130  H    0.006763
   131  H    0.029020
   132  H   -0.005221
   133  H    0.003556
   134  H    0.027594
   135  H    0.033903
   136  H    0.020973
   137  H    0.019404
   138  H    0.028933
   139  H    0.047489
   140  H    0.037149
   141  H    0.017669
   142  H    0.015785
   143  H    0.017534
   144  H    0.007164
   145  H    0.020811
   146  H    0.033900
   147  H    0.010936
   148  H    0.016111
   149  H    0.002420
   150  H    0.006580
   151  H    0.025374
   152  H   -0.003216
   153  H    0.037536
   154  H    0.027395
   155  H    0.052142
   156  H    0.027524
   157  H    0.040359
   158  H    0.034035
 Sum of Mulliken charges =  -0.00000

 Dipole moment (field-independent basis, Debye):
    X=              4.5773    Y=             -5.7156    Z=              3.6672  Tot=              8.1895
 Quadrupole moment (field-independent basis, Debye-Ang):
   XX=           -463.1256   YY=           -518.5065   ZZ=           -562.5233
   XY=              0.2513   XZ=             23.3540   YZ=             18.5373

 Normal termination of Gaussian 16 at Wed Sep 15 18:59:41 2021.
