 Gaussian 16, Revision A.03,
 Gaussian 16:  ES64L-G16RevA.03 25-Dec-2016

 -----------------------------------
 #p cam-b3lyp/Def2SVP td=(nstates=5)
 -----------------------------------

 --------------------------------
 TDDFT excited states in gaussian
 --------------------------------
 Symbolic Z-matrix:
 Charge =  0 Multiplicity = 1

                         Standard orientation:
 ---------------------------------------------------------------------
 Center     Atomic      Atomic             Coordinates (Angstroms)
 Number     Number       Type             X           Y           Z
 ---------------------------------------------------------------------
      1         12           0      -26.762342    0.626689    0.397543
      2          6           0      -25.337197   -2.727219   -0.033603
      3          6           0      -23.541328    1.749369   -0.189262
      4          6           0      -28.067038    3.454454   -0.289030
      5          6           0      -29.945017   -1.037568    0.509788
      6          7           0      -24.647478   -0.471000   -0.216626
      7          6           0      -24.317263   -1.804967   -0.315378
      8          6           0      -22.825604   -1.937802   -0.795043
      9          6           0      -22.220145   -0.542458   -0.563441
     10          6           0      -23.529768    0.296779   -0.309586
     11          6           0      -21.219157   -0.342123    0.649313
     12          6           0      -22.679892   -2.479894   -2.258187
     13          6           0      -21.545919   -3.451265   -2.505887
     14          1           0      -20.272000   -2.879701   -3.203746
     15          7           0      -25.943304    2.375923   -0.034503
     16          6           0      -24.616833    2.697383   -0.132805
     17          6           0      -24.469943    4.148583   -0.429846
     18          6           0      -25.802729    4.633589   -0.481940
     19          6           0      -26.666001    3.468122   -0.307618
     20          6           0      -23.164334    4.912877   -0.703625
     21          6           0      -26.296654    6.020873   -0.902194
     22          8           0      -25.444192    6.875186   -1.129274
     23          6           0      -27.650823    6.395863   -1.015324
     24          7           0      -28.772730    1.063933   -0.118279
     25          6           0      -29.025744    2.421186   -0.099427
     26          6           0      -30.590113    2.626172   -0.092972
     27          6           0      -31.154387    1.161431   -0.152626
     28          6           0      -29.882858    0.353075    0.200476
     29          6           0      -31.155669    3.457721    1.090960
     30          6           0      -31.863732    0.668780   -1.477937
     31          6           0      -33.323678    1.091412   -1.717097
     32          7           0      -27.579514   -1.431575    0.322019
     33          6           0      -28.859029   -1.914531    0.510627
     34          6           0      -28.879006   -3.352095    0.632362
     35          6           0      -27.494576   -3.718131    0.438062
     36          6           0      -26.698406   -2.545824    0.190184
     37          6           0      -30.124113   -4.164159    0.814666
     38          6           0      -26.643705   -4.816095    0.316402
     39          8           0      -26.882533   -6.013377    0.234930
     40          6           0      -25.254409   -4.264907   -0.116915
     41          6           0      -24.295452   -4.795472    0.923120
     42          8           0      -23.234635   -5.359767    0.644140
     43          8           0      -24.614800   -4.454663    2.298940
     44          6           0      -23.487724   -4.674135    3.203957
     45          1           0      -22.524201    2.130076   -0.298726
     46          1           0      -28.646012    4.379585   -0.326010
     47          1           0      -30.970506   -1.391372    0.634194
     48          1           0      -22.283475   -2.545083   -0.068789
     49          1           0      -21.789533   -0.130866   -1.476269
     50          1           0      -20.238009   -0.256743    0.182713
     51          1           0      -21.191236   -1.225198    1.287013
     52          1           0      -21.448547    0.487936    1.317426
     53          1           0      -22.430712   -1.722034   -3.001364
     54          1           0      -23.583407   -3.012141   -2.556413
     55          1           0      -21.971803   -4.307718   -3.028615
     56          1           0      -21.207266   -3.813257   -1.534604
     57          1           0      -23.203559    5.892502   -0.226545
     58          1           0      -23.104056    4.942277   -1.791498
     59          1           0      -22.311693    4.402927   -0.257298
     60          1           0      -28.088456    6.381518   -0.016630
     61          1           0      -28.226843    5.820966   -1.740508
     62          1           0      -27.550774    7.378110   -1.478420
     63          1           0      -30.968993    3.135589   -0.978366
     64          1           0      -31.829925    0.962405    0.678970
     65          1           0      -31.879704    2.803497    1.576819
     66          1           0      -31.658428    4.333903    0.682712
     67          1           0      -30.269166    3.692426    1.681405
     68          1           0      -31.815307   -0.417709   -1.398167
     69          1           0      -31.355678    1.058724   -2.360184
     70          1           0      -33.536285    1.612387   -0.783122
     71          1           0      -33.990443    0.227953   -1.714815
     72          1           0      -33.521033    1.734141   -2.574690
     73          1           0      -30.760669   -3.905310   -0.030421
     74          1           0      -30.711566   -3.870417    1.684375
     75          1           0      -29.956538   -5.233453    0.685158
     76          1           0      -25.015436   -4.730503   -1.072867
     77          1           0      -23.805653   -3.942806    3.948010
     78          1           0      -22.527563   -4.578447    2.697016
     79          1           0      -23.642268   -5.656800    3.649758
     80         12           0       26.502116   -0.361637   -0.668885
     81          6           0       24.791838    1.599837    1.725383
     82          6           0       27.009632   -2.716495    1.765483
     83          6           0       28.634874   -1.869146   -2.705201
     84          6           0       26.311622    2.346126   -2.878679
     85          7           0       26.097352   -0.457612    1.548119
     86          6           0       25.281898    0.428770    2.256710
     87          6           0       24.886097   -0.192970    3.618702
     88          6           0       25.632046   -1.577154    3.613074
     89          6           0       26.281710   -1.654303    2.203652
     90          6           0       26.489508   -1.907368    4.822298
     91          6           0       23.381446   -0.323010    3.902188
     92          6           0       22.930077    0.346521    5.229245
     93          1           0       22.207457   -0.559092    6.201695
     94          7           0       27.591717   -2.118681   -0.496309
     95          6           0       27.716887   -2.949012    0.578542
     96          6           0       28.456402   -4.112307    0.150006
     97          6           0       29.075042   -3.807133   -1.137161
     98          6           0       28.435294   -2.539812   -1.455363
     99          6           0       28.760302   -5.358335    1.132650
    100          6           0       30.239762   -4.379291   -1.823666
    101          8           0       30.680748   -4.068972   -2.893473
    102          6           0       30.975975   -5.486770   -1.075668
    103          7           0       27.514739    0.291606   -2.463156
    104          6           0       28.305396   -0.563386   -3.140687
    105          6           0       28.600447   -0.030834   -4.544843
    106          6           0       27.577092    1.105696   -4.699028
    107          6           0       27.056252    1.258803   -3.287415
    108          6           0       30.106135    0.488287   -4.667507
    109          6           0       26.397939    0.602405   -5.677715
    110          6           0       25.424247   -0.447126   -5.075524
    111          7           0       25.632177    1.567190   -0.722382
    112          6           0       25.634948    2.513400   -1.675210
    113          6           0       24.887370    3.641798   -1.189027
    114          6           0       24.505488    3.307767    0.096748
    115          6           0       25.031390    2.046998    0.391841
    116          6           0       24.579401    4.956149   -1.880705
    117          6           0       23.806589    3.881425    1.249899
    118          8           0       23.316211    4.926113    1.574122
    119          6           0       23.892126    2.770235    2.329406
    120          6           0       24.574377    3.394900    3.489877
    121          8           0       25.648634    3.929396    3.374815
    122          8           0       23.820414    3.372779    4.652192
    123          6           0       24.306308    4.238558    5.778283
    124          1           0       26.983428   -3.541920    2.480105
    125          1           0       29.236168   -2.378014   -3.461993
    126          1           0       26.020807    3.143651   -3.565624
    127          1           0       25.356576    0.384694    4.414621
    128          1           0       24.879929   -2.361812    3.697420
    129          1           0       26.703352   -1.015191    5.408987
    130          1           0       27.423942   -2.411250    4.573958
    131          1           0       25.868164   -2.531849    5.463721
    132          1           0       22.965089   -1.324807    4.007915
    133          1           0       22.797565    0.110774    3.090708
    134          1           0       22.388714    1.274329    5.044602
    135          1           0       23.829521    0.641934    5.767959
    136          1           0       28.520448   -6.273802    0.591940
    137          1           0       28.164288   -5.411281    2.042945
    138          1           0       29.756388   -5.453914    1.564764
    139          1           0       30.222228   -6.269096   -0.983581
    140          1           0       31.237226   -5.044387   -0.114862
    141          1           0       31.819330   -5.918900   -1.615182
    142          1           0       28.386191   -0.748640   -5.337358
    143          1           0       27.901137    2.101801   -5.001292
    144          1           0       30.399814    0.358679   -5.709500
    145          1           0       30.878873   -0.006779   -4.078412
    146          1           0       30.037060    1.550874   -4.435132
    147          1           0       26.772240    0.214954   -6.625079
    148          1           0       25.697468    1.419237   -5.852113
    149          1           0       24.739090   -0.911102   -5.784230
    150          1           0       24.815378    0.063128   -4.329014
    151          1           0       26.028220   -1.205497   -4.576270
    152          1           0       23.971348    4.859327   -2.779861
    153          1           0       25.562475    5.329927   -2.165794
    154          1           0       24.162751    5.701179   -1.202913
    155          1           0       22.847184    2.585963    2.578246
    156          1           0       24.174051    3.531469    6.597204
    157          1           0       23.679674    5.114555    5.944766
    158          1           0       25.320369    4.637354    5.767375
 ---------------------------------------------------------------------

 SCF Done:  E(RCAM-B3LYP) =  -4069.76879535     A.U. after   19 cycles

 Excitation energies and oscillator strengths:

 Excited State   1:      Singlet-A      1.7037 eV  727.75 nm  f=0.3956  <S**2>=0.000
     310 -> 316        0.17555
     311 -> 313        0.68724
     310 <- 316        0.10762
 This state for optimization and/or second-order correction.
 Total Energy, E(TD-HF/TD-DFT) =  -4069.70618706
 Copying the excited state density for this state as the 1-particle RhoCI density.

 Excited State   2:      Singlet-A      1.7224 eV  719.83 nm  f=0.3598  <S**2>=0.000
     309 -> 315       -0.19687
     312 -> 314        0.67929
     309 <- 315       -0.11035

 Excited State   3:      Singlet-A      2.1918 eV  565.68 nm  f=0.1392  <S**2>=0.000
     310 -> 313        0.65684
     311 -> 316       -0.24837

 Excited State   4:      Singlet-A      2.2417 eV  553.08 nm  f=0.0693  <S**2>=0.000
     309 -> 314        0.61606
     312 -> 315        0.33057

 Excited State   5:      Singlet-A      3.1686 eV  391.29 nm  f=0.0000  <S**2>=0.000
     312 -> 313        0.70710

 The electronic state is 1-A.
 Alpha  occ. eigenvalues --  -46.90775 -46.89556 -19.25156 -19.23728 -19.20101
 Alpha  occ. eigenvalues --  -19.19619 -19.19292 -19.18802 -19.18412 -19.17880
 Alpha  occ. eigenvalues --  -14.42728 -14.42124 -14.42029 -14.41934 -14.40824
 Alpha  occ. eigenvalues --  -14.39785 -14.39243 -14.39153 -10.39402 -10.38807
 Alpha  occ. eigenvalues --  -10.35168 -10.34946 -10.34387 -10.33520 -10.32325
 Alpha  occ. eigenvalues --  -10.31898 -10.31820 -10.31600 -10.31540 -10.31540
 Alpha  occ. eigenvalues --  -10.31379 -10.31023 -10.30794 -10.30788 -10.30772
 Alpha  occ. eigenvalues --  -10.30767 -10.30253 -10.29975 -10.29668 -10.29641
 Alpha  occ. eigenvalues --  -10.29408 -10.29365 -10.29251 -10.29174 -10.28928
 Alpha  occ. eigenvalues --  -10.28926 -10.28848 -10.28689 -10.28540 -10.28415
 Alpha  occ. eigenvalues --  -10.28337 -10.28336 -10.28228 -10.28200 -10.28075
 Alpha  occ. eigenvalues --  -10.28044 -10.28039 -10.28010 -10.27904 -10.27778
 Alpha  occ. eigenvalues --  -10.27521 -10.27474 -10.27406 -10.27354 -10.27043
 Alpha  occ. eigenvalues --  -10.27001 -10.26992 -10.26865 -10.26861 -10.26818
 Alpha  occ. eigenvalues --  -10.26669 -10.26660 -10.26658 -10.26566 -10.26522
 Alpha  occ. eigenvalues --  -10.26286 -10.26250 -10.26195 -10.26187 -10.25976
 Alpha  occ. eigenvalues --  -10.25968 -10.25856 -10.25622 -10.25248 -10.25075
 Alpha  occ. eigenvalues --  -10.25055  -3.19186  -3.17959  -1.94031  -1.93693
 Alpha  occ. eigenvalues --   -1.93451  -1.92842  -1.92428  -1.92252  -1.15702
 Alpha  occ. eigenvalues --   -1.13958  -1.11683  -1.11080  -1.10471  -1.08995
 Alpha  occ. eigenvalues --   -1.07635  -1.06361  -1.05200  -1.05046  -1.04303
 Alpha  occ. eigenvalues --   -1.03847  -1.03382  -1.03356  -1.02011  -1.01097
 Alpha  occ. eigenvalues --   -0.92902  -0.92374  -0.89020  -0.88959  -0.88892
 Alpha  occ. eigenvalues --   -0.88825  -0.88524  -0.88232  -0.87754  -0.87008
 Alpha  occ. eigenvalues --   -0.86943  -0.86557  -0.86343  -0.85946  -0.85036
 Alpha  occ. eigenvalues --   -0.84425  -0.83886  -0.83711  -0.83510  -0.82548
 Alpha  occ. eigenvalues --   -0.82520  -0.81223  -0.81169  -0.80877  -0.80180
 Alpha  occ. eigenvalues --   -0.79897  -0.78392  -0.78272  -0.77434  -0.77374
 Alpha  occ. eigenvalues --   -0.77059  -0.76776  -0.76178  -0.75846  -0.75290
 Alpha  occ. eigenvalues --   -0.75237  -0.73116  -0.72856  -0.71941  -0.71778
 Alpha  occ. eigenvalues --   -0.69380  -0.69211  -0.69159  -0.68616  -0.68091
 Alpha  occ. eigenvalues --   -0.67732  -0.67314  -0.67030  -0.65587  -0.65497
 Alpha  occ. eigenvalues --   -0.65394  -0.65335  -0.65170  -0.65067  -0.64454
 Alpha  occ. eigenvalues --   -0.64044  -0.62292  -0.61922  -0.60425  -0.60401
 Alpha  occ. eigenvalues --   -0.59829  -0.59732  -0.59298  -0.59287  -0.58938
 Alpha  occ. eigenvalues --   -0.58765  -0.58139  -0.57549  -0.57182  -0.57017
 Alpha  occ. eigenvalues --   -0.56780  -0.56000  -0.55624  -0.55383  -0.55236
 Alpha  occ. eigenvalues --   -0.54803  -0.54590  -0.54350  -0.54211  -0.53959
 Alpha  occ. eigenvalues --   -0.53802  -0.53568  -0.53439  -0.53317  -0.52956
 Alpha  occ. eigenvalues --   -0.52909  -0.52684  -0.52503  -0.52452  -0.52141
 Alpha  occ. eigenvalues --   -0.52009  -0.51899  -0.51760  -0.51507  -0.51457
 Alpha  occ. eigenvalues --   -0.51274  -0.51039  -0.50777  -0.50638  -0.50045
 Alpha  occ. eigenvalues --   -0.49908  -0.49877  -0.49811  -0.49535  -0.49520
 Alpha  occ. eigenvalues --   -0.49395  -0.49332  -0.49141  -0.49047  -0.48972
 Alpha  occ. eigenvalues --   -0.48658  -0.48419  -0.48408  -0.48301  -0.48178
 Alpha  occ. eigenvalues --   -0.47980  -0.47953  -0.47755  -0.47589  -0.47483
 Alpha  occ. eigenvalues --   -0.47294  -0.47020  -0.46751  -0.46543  -0.46445
 Alpha  occ. eigenvalues --   -0.46161  -0.46145  -0.46112  -0.45920  -0.45910
 Alpha  occ. eigenvalues --   -0.45607  -0.45386  -0.45320  -0.45117  -0.44988
 Alpha  occ. eigenvalues --   -0.44704  -0.44531  -0.44490  -0.44349  -0.44134
 Alpha  occ. eigenvalues --   -0.44068  -0.43820  -0.43699  -0.43609  -0.43398
 Alpha  occ. eigenvalues --   -0.43343  -0.43207  -0.43069  -0.42912  -0.42579
 Alpha  occ. eigenvalues --   -0.42470  -0.42449  -0.42324  -0.42322  -0.42085
 Alpha  occ. eigenvalues --   -0.42079  -0.41999  -0.41951  -0.41507  -0.41476
 Alpha  occ. eigenvalues --   -0.41381  -0.41366  -0.40935  -0.40328  -0.40283
 Alpha  occ. eigenvalues --   -0.40230  -0.39978  -0.39746  -0.39326  -0.39095
 Alpha  occ. eigenvalues --   -0.38875  -0.38340  -0.38078  -0.37879  -0.37852
 Alpha  occ. eigenvalues --   -0.37540  -0.37183  -0.37036  -0.36376  -0.36354
 Alpha  occ. eigenvalues --   -0.36248  -0.35382  -0.34496  -0.34416  -0.34095
 Alpha  occ. eigenvalues --   -0.33876  -0.33410  -0.33213  -0.31766  -0.31630
 Alpha  occ. eigenvalues --   -0.31415  -0.31233  -0.31055  -0.30403  -0.30313
 Alpha  occ. eigenvalues --   -0.30171  -0.30164  -0.28757  -0.24484  -0.24190
 Alpha  occ. eigenvalues --   -0.21594  -0.21472
 Alpha virt. eigenvalues --   -0.09185  -0.08804  -0.02716  -0.01442  -0.00380
 Alpha virt. eigenvalues --    0.00545   0.00569   0.01673   0.02154   0.02498
 Alpha virt. eigenvalues --    0.04364   0.04804   0.05296   0.05465   0.05659

 Mulliken charges:
               1
     1  Mg   0.834459
     2  C   -0.008394
     3  C   -0.051071
     4  C   -0.074898
     5  C   -0.087883
     6  N   -0.224641
     7  C   -0.070889
     8  C    0.059355
     9  C   -0.071623
    10  C   -0.036571
    11  C    0.062109
    12  C    0.059725
    13  C   -0.072183
    14  H    0.007731
    15  N   -0.409468
    16  C    0.147845
    17  C   -0.174493
    18  C   -0.015326
    19  C    0.192188
    20  C    0.144597
    21  C   -0.033284
    22  O   -0.215699
    23  C    0.089249
    24  N   -0.319238
    25  C    0.023092
    26  C   -0.072992
    27  C   -0.047475
    28  C    0.019176
    29  C    0.084300
    30  C    0.042806
    31  C    0.012937
    32  N   -0.344563
    33  C    0.143206
    34  C   -0.151052
    35  C    0.030894
    36  C    0.129251
    37  C    0.139483
    38  C   -0.006510
    39  O   -0.179820
    40  C   -0.020515
    41  C    0.217703
    42  O   -0.226409
    43  O   -0.389999
    44  C    0.179637
    45  H   -0.026335
    46  H   -0.046915
    47  H   -0.027796
    48  H    0.012219
    49  H    0.017816
    50  H    0.026289
    51  H    0.015288
    52  H    0.028892
    53  H    0.025177
    54  H    0.019051
    55  H    0.034375
    56  H    0.030253
    57  H    0.044826
    58  H    0.045436
    59  H    0.008979
    60  H    0.054023
    61  H    0.041935
    62  H    0.028081
    63  H    0.008469
    64  H   -0.003898
    65  H    0.016883
    66  H    0.020077
    67  H    0.021286
    68  H    0.004886
    69  H    0.011212
    70  H   -0.004502
    71  H    0.017485
    72  H    0.028230
    73  H    0.012465
    74  H    0.025043
    75  H    0.037633
    76  H    0.040527
    77  H    0.031531
    78  H    0.052765
    79  H    0.033568
    80  Mg   0.813053
    81  C   -0.023666
    82  C   -0.077241
    83  C   -0.061998
    84  C   -0.064318
    85  N   -0.302478
    86  C   -0.035087
    87  C    0.006901
    88  C   -0.058637
    89  C    0.050778
    90  C    0.068885
    91  C    0.056709
    92  C   -0.088703
    93  H    0.008346
    94  N   -0.363102
    95  C    0.161206
    96  C   -0.116990
    97  C   -0.041632
    98  C    0.130632
    99  C    0.062504
   100  C   -0.022268
   101  O   -0.176333
   102  C    0.054556
   103  N   -0.263216
   104  C    0.030066
   105  C   -0.035228
   106  C   -0.014427
   107  C    0.032468
   108  C    0.066527
   109  C    0.004392
   110  C   -0.014667
   111  N   -0.320756
   112  C    0.065149
   113  C   -0.162611
   114  C   -0.035088
   115  C    0.140036
   116  C    0.116967
   117  C    0.069101
   118  O   -0.136698
   119  C    0.003818
   120  C    0.181215
   121  O   -0.201517
   122  O   -0.351209
   123  C    0.165222
   124  H   -0.034084
   125  H   -0.000968
   126  H   -0.031192
   127  H    0.018629
   128  H    0.008129
   129  H    0.008567
   130  H    0.022449
   131  H    0.009357
   132  H    0.019154
   133  H    0.009139
   134  H    0.046113
   135  H    0.015640
   136  H    0.027195
   137  H    0.003888
   138  H    0.033296
   139  H    0.021873
   140  H    0.036830
   141  H    0.022632
   142  H    0.016589
   143  H    0.012835
   144  H    0.017356
   145  H    0.035560
   146  H    0.016223
   147  H    0.020205
   148  H    0.002068
   149  H    0.023676
   150  H    0.021702
   151  H    0.021068
   152  H    0.029128
   153  H    0.019750
   154  H    0.036345
   155  H    0.033831
   156  H    0.035894
   157  H    0.044042
   158  H    0.056421
 Sum of Mulliken charges =  -0.00000

 Dipole moment (field-independent basis, Debye):
    X=             -3.6472    Y=              1.7651    Z=              1.8286  Tot=              4.4454
 Quadrupole moment (field-independent basis, Debye-Ang):
   XX=           -444.4085   YY=           -580.7679   ZZ=           -480.0745
   XY=           -200.8532   XZ=            -16.2410   YZ=            -17.0300

 Normal termination of Gaussian 16 at Thu Sep  2 14:35:31 2021.
