 Gaussian 16, Revision A.03,
 Gaussian 16:  ES64L-G16RevA.03 25-Dec-2016

 -----------------------------------
 #p cam-b3lyp/Def2SVP td=(nstates=5)
 -----------------------------------

 --------------------------------
 TDDFT excited states in gaussian
 --------------------------------
 Symbolic Z-matrix:
 Charge =  0 Multiplicity = 1

                         Standard orientation:
 ---------------------------------------------------------------------
 Center     Atomic      Atomic             Coordinates (Angstroms)
 Number     Number       Type             X           Y           Z
 ---------------------------------------------------------------------
      1         12           0       16.279787   -0.499625    0.562736
      2          6           0       14.952537    2.372474   -1.122215
      3          6           0       17.646131    1.494649    2.784797
      4          6           0       18.048033   -3.151378    1.471552
      5          6           0       14.960369   -2.450030   -2.262825
      6          7           0       16.248220    1.684730    0.815483
      7          6           0       15.682446    2.693732    0.010896
      8          6           0       15.937164    4.152794    0.547918
      9          6           0       16.791865    3.754239    1.901532
     10          6           0       16.913237    2.233782    1.879600
     11          6           0       18.228776    4.431739    1.928688
     12          6           0       14.656954    5.028074    0.782236
     13          6           0       14.845526    6.254099    1.667650
     14          1           0       14.675040    7.602203    0.943681
     15          7           0       17.590066   -0.803041    2.012061
     16          6           0       18.073018    0.120805    2.908821
     17          6           0       18.982368   -0.466223    3.870239
     18          6           0       19.071050   -1.855237    3.459873
     19          6           0       18.135460   -1.990671    2.287129
     20          6           0       19.588959    0.196144    5.016404
     21          6           0       19.860144   -3.003410    4.064775
     22          8           0       19.765304   -4.144778    3.709808
     23          6           0       20.863336   -2.595348    5.110739
     24          7           0       16.527177   -2.508357   -0.316994
     25          6           0       17.313323   -3.418571    0.311167
     26          6           0       17.230272   -4.801554   -0.388529
     27          6           0       16.134454   -4.557799   -1.483654
     28          6           0       15.801458   -3.086550   -1.327038
     29          6           0       18.545842   -5.409781   -0.983452
     30          6           0       14.834876   -5.430123   -1.368024
     31          6           0       15.023975   -6.879301   -1.868356
     32          7           0       15.220838   -0.192673   -1.304127
     33          6           0       14.709661   -1.041897   -2.258340
     34          6           0       13.943334   -0.294058   -3.173907
     35          6           0       14.031882    1.006613   -2.845341
     36          6           0       14.855058    1.070695   -1.680405
     37          6           0       13.132676   -0.977134   -4.267606
     38          6           0       13.715307    2.402674   -3.163255
     39          8           0       13.086110    2.874795   -4.074752
     40          6           0       14.347149    3.342710   -2.029227
     41          6           0       15.452197    4.123362   -2.666263
     42          8           0       16.622052    3.868252   -2.843449
     43          8           0       14.872296    5.326540   -3.016554
     44          6           0       15.747672    6.333093   -3.662939
     45          1           0       18.181569    2.076863    3.537494
     46          1           0       18.763912   -3.936537    1.726385
     47          1           0       14.550336   -3.181551   -2.962995
     48          1           0       16.646477    4.633201   -0.126217
     49          1           0       16.247666    4.137999    2.764795
     50          1           0       18.420557    4.830829    2.924584
     51          1           0       18.466740    5.199235    1.192678
     52          1           0       19.004748    3.672894    1.832879
     53          1           0       13.983659    4.266732    1.178253
     54          1           0       14.100475    5.377077   -0.087885
     55          1           0       15.846324    6.230726    2.097959
     56          1           0       14.036976    6.282959    2.397547
     57          1           0       19.101023   -0.358749    5.817692
     58          1           0       19.383912    1.266746    5.006230
     59          1           0       20.664626    0.092615    5.157510
     60          1           0       20.408290   -2.678474    6.097625
     61          1           0       21.485977   -1.750827    4.814016
     62          1           0       21.686769   -3.287605    4.937395
     63          1           0       16.692746   -5.438972    0.314147
     64          1           0       16.601246   -4.606945   -2.467667
     65          1           0       18.539067   -5.623680   -2.052630
     66          1           0       18.620649   -6.405358   -0.546605
     67          1           0       19.450862   -4.828202   -0.807971
     68          1           0       14.048464   -4.985901   -1.977178
     69          1           0       14.547187   -5.363983   -0.317835
     70          1           0       15.875407   -6.939730   -2.546507
     71          1           0       14.078776   -7.157433   -2.334405
     72          1           0       15.264365   -7.595646   -1.082189
     73          1           0       12.275777   -0.370363   -4.560479
     74          1           0       12.829384   -1.962837   -3.914608
     75          1           0       13.768682   -1.209015   -5.122194
     76          1           0       13.594783    3.987022   -1.573733
     77          1           0       15.138533    6.789006   -4.443348
     78          1           0       16.657572    5.922388   -4.100298
     79          1           0       15.918527    6.988960   -2.808708
     80         12           0      -16.069859   -0.819840    0.056139
     81          6           0      -17.792830    1.981262    1.079425
     82          6           0      -13.482200    1.334982   -1.139288
     83          6           0      -14.535982   -3.401080   -1.265638
     84          6           0      -18.698624   -2.866406    1.087982
     85          7           0      -15.757399    1.397147    0.025610
     86          6           0      -16.572625    2.329962    0.526448
     87          6           0      -15.882545    3.727015    0.397198
     88          6           0      -14.556990    3.453185   -0.450842
     89          6           0      -14.614021    1.919417   -0.587683
     90          6           0      -14.520076    3.996191   -1.866441
     91          6           0      -15.656478    4.460286    1.727936
     92          6           0      -16.188469    5.882547    1.674537
     93          1           0      -15.592541    6.985447    2.561440
     94          7           0      -14.219860   -0.996185   -0.977683
     95          6           0      -13.295605   -0.053604   -1.325309
     96          6           0      -12.175306   -0.610489   -1.941523
     97          6           0      -12.480604   -2.004808   -2.120411
     98          6           0      -13.799323   -2.202891   -1.425214
     99          6           0      -10.950877    0.186363   -2.367753
    100          6           0      -11.697868   -3.066022   -2.876386
    101          8           0      -12.228032   -4.179887   -3.054091
    102          6           0      -10.394098   -2.778376   -3.501519
    103          7           0      -16.554088   -2.793524   -0.022046
    104          6           0      -15.725492   -3.744593   -0.581219
    105          6           0      -16.292859   -5.212096   -0.542126
    106          6           0      -17.493765   -4.993951    0.474200
    107          6           0      -17.613530   -3.459362    0.509084
    108          6           0      -16.766454   -5.949765   -1.856272
    109          6           0      -17.457736   -5.761075    1.873332
    110          6           0      -16.544250   -5.169987    2.914421
    111          7           0      -17.911782   -0.569992    0.769491
    112          6           0      -18.903540   -1.451467    1.155568
    113          6           0      -20.030148   -0.792385    1.677432
    114          6           0      -19.604723    0.540955    1.692377
    115          6           0      -18.298242    0.652145    1.133418
    116          6           0      -21.200015   -1.521398    2.186257
    117          6           0      -20.126729    1.821673    1.978244
    118          8           0      -21.271767    2.106249    2.335079
    119          6           0      -18.955258    2.877508    1.620692
    120          6           0      -19.455450    3.828392    0.643529
    121          8           0      -19.641383    3.627826   -0.534944
    122          8           0      -19.804740    4.962130    1.238886
    123          6           0      -20.438044    5.987584    0.466111
    124          1           0      -12.721873    2.003755   -1.547023
    125          1           0      -14.149681   -4.345475   -1.653840
    126          1           0      -19.499062   -3.542966    1.394765
    127          1           0      -16.605827    4.236533   -0.238678
    128          1           0      -13.765979    3.987511    0.076557
    129          1           0      -15.372876    4.620341   -2.135083
    130          1           0      -14.539922    3.176524   -2.584168
    131          1           0      -13.551801    4.459035   -2.059395
    132          1           0      -14.621579    4.485834    2.069601
    133          1           0      -16.173855    3.897256    2.504383
    134          1           0      -17.216960    5.827686    2.033162
    135          1           0      -16.107688    6.192231    0.632752
    136          1           0      -10.958096    1.192014   -1.947253
    137          1           0      -11.007063    0.365511   -3.441687
    138          1           0      -10.035498   -0.379163   -2.197550
    139          1           0      -10.174377   -3.499571   -4.289538
    140          1           0       -9.636454   -2.921656   -2.730476
    141          1           0      -10.388134   -1.772442   -3.920541
    142          1           0      -15.645433   -5.891635    0.013018
    143          1           0      -18.390858   -5.439939    0.046571
    144          1           0      -16.596446   -5.274220   -2.693698
    145          1           0      -17.856082   -5.998652   -1.857848
    146          1           0      -16.355850   -6.936327   -2.073161
    147          1           0      -17.044478   -6.746939    1.661685
    148          1           0      -18.441256   -5.952077    2.300945
    149          1           0      -16.994795   -5.381068    3.883615
    150          1           0      -16.250206   -4.121875    2.875282
    151          1           0      -15.590914   -5.688865    2.814222
    152          1           0      -21.052498   -2.509440    2.621537
    153          1           0      -22.080580   -1.521354    1.544967
    154          1           0      -21.523012   -0.853539    2.984438
    155          1           0      -18.690589    3.401217    2.539065
    156          1           0      -19.718071    6.670428    0.013594
    157          1           0      -21.027037    6.586215    1.160725
    158          1           0      -21.034318    5.537912   -0.327981
 ---------------------------------------------------------------------

 SCF Done:  E(RCAM-B3LYP) =  -4069.83402271     A.U. after   19 cycles

 Excitation energies and oscillator strengths:

 Excited State   1:      Singlet-A      1.6970 eV  730.61 nm  f=0.4223  <S**2>=0.000
     310 -> 316       -0.17552
     311 -> 313       -0.10721
     312 -> 314        0.67798
     310 <- 316       -0.10633
 This state for optimization and/or second-order correction.
 Total Energy, E(TD-HF/TD-DFT) =  -4069.77165890
 Copying the excited state density for this state as the 1-particle RhoCI density.

 Excited State   2:      Singlet-A      1.7071 eV  726.30 nm  f=0.3932  <S**2>=0.000
     309 -> 315       -0.17058
     311 -> 313        0.67833
     312 -> 314        0.10698
     309 <- 315       -0.10409

 Excited State   3:      Singlet-A      2.2114 eV  560.66 nm  f=0.1292  <S**2>=0.000
     310 -> 314        0.65047
     312 -> 316        0.26494

 Excited State   4:      Singlet-A      2.2216 eV  558.09 nm  f=0.1677  <S**2>=0.000
     309 -> 313        0.65297
     311 -> 315        0.25398

 Excited State   5:      Singlet-A      2.9533 eV  419.81 nm  f=0.0000  <S**2>=0.000
     312 -> 313        0.70709

 The electronic state is 1-A.
 Alpha  occ. eigenvalues --  -46.88616 -46.87678 -19.24821 -19.23889 -19.19968
 Alpha  occ. eigenvalues --  -19.19158 -19.18990 -19.18618 -19.18585 -19.18232
 Alpha  occ. eigenvalues --  -14.42291 -14.42235 -14.42159 -14.41366 -14.39706
 Alpha  occ. eigenvalues --  -14.39672 -14.38956 -14.38894 -10.39021 -10.38295
 Alpha  occ. eigenvalues --  -10.35316 -10.34858 -10.34812 -10.34504 -10.31495
 Alpha  occ. eigenvalues --  -10.31250 -10.31212 -10.31179 -10.31150 -10.30957
 Alpha  occ. eigenvalues --  -10.30912 -10.30730 -10.30413 -10.30235 -10.30151
 Alpha  occ. eigenvalues --  -10.30148 -10.30148 -10.29429 -10.29377 -10.29134
 Alpha  occ. eigenvalues --  -10.29046 -10.28980 -10.28953 -10.28905 -10.28808
 Alpha  occ. eigenvalues --  -10.28548 -10.28533 -10.28518 -10.28274 -10.28268
 Alpha  occ. eigenvalues --  -10.28261 -10.27954 -10.27797 -10.27710 -10.27691
 Alpha  occ. eigenvalues --  -10.27650 -10.27582 -10.27490 -10.27287 -10.27233
 Alpha  occ. eigenvalues --  -10.27182 -10.27037 -10.26988 -10.26865 -10.26825
 Alpha  occ. eigenvalues --  -10.26813 -10.26798 -10.26795 -10.26784 -10.26749
 Alpha  occ. eigenvalues --  -10.26597 -10.26293 -10.26269 -10.26198 -10.26178
 Alpha  occ. eigenvalues --  -10.26160 -10.25922 -10.25750 -10.25741 -10.25648
 Alpha  occ. eigenvalues --  -10.25607 -10.25594 -10.25550 -10.24976 -10.24753
 Alpha  occ. eigenvalues --  -10.24631  -3.17159  -3.16463  -1.92055  -1.91595
 Alpha  occ. eigenvalues --   -1.91484  -1.91361  -1.90934  -1.90767  -1.17927
 Alpha  occ. eigenvalues --   -1.15752  -1.11409  -1.10839  -1.08847  -1.08493
 Alpha  occ. eigenvalues --   -1.07791  -1.07513  -1.04586  -1.03853  -1.03694
 Alpha  occ. eigenvalues --   -1.03342  -1.03325  -1.02548  -1.02540  -1.01638
 Alpha  occ. eigenvalues --   -0.93062  -0.92081  -0.89357  -0.88975  -0.88766
 Alpha  occ. eigenvalues --   -0.88339  -0.88293  -0.88170  -0.87643  -0.87510
 Alpha  occ. eigenvalues --   -0.87193  -0.86890  -0.86777  -0.86068  -0.84586
 Alpha  occ. eigenvalues --   -0.83940  -0.83858  -0.83236  -0.82945  -0.82388
 Alpha  occ. eigenvalues --   -0.82221  -0.82093  -0.81174  -0.80755  -0.80587
 Alpha  occ. eigenvalues --   -0.80122  -0.78331  -0.78157  -0.77326  -0.77019
 Alpha  occ. eigenvalues --   -0.76887  -0.76689  -0.75974  -0.75589  -0.75276
 Alpha  occ. eigenvalues --   -0.74863  -0.73443  -0.72817  -0.71445  -0.71367
 Alpha  occ. eigenvalues --   -0.69689  -0.69647  -0.68831  -0.68795  -0.67788
 Alpha  occ. eigenvalues --   -0.67768  -0.67138  -0.67001  -0.65386  -0.65089
 Alpha  occ. eigenvalues --   -0.64912  -0.64653  -0.64599  -0.64461  -0.64378
 Alpha  occ. eigenvalues --   -0.63935  -0.62337  -0.61506  -0.60419  -0.60124
 Alpha  occ. eigenvalues --   -0.59995  -0.59519  -0.58987  -0.58866  -0.58505
 Alpha  occ. eigenvalues --   -0.58379  -0.58344  -0.57888  -0.57675  -0.56919
 Alpha  occ. eigenvalues --   -0.56519  -0.56198  -0.56174  -0.55815  -0.55083
 Alpha  occ. eigenvalues --   -0.55045  -0.54667  -0.54509  -0.54355  -0.54326
 Alpha  occ. eigenvalues --   -0.54173  -0.53705  -0.53527  -0.53159  -0.52767
 Alpha  occ. eigenvalues --   -0.52703  -0.52496  -0.52424  -0.52347  -0.52124
 Alpha  occ. eigenvalues --   -0.51993  -0.51714  -0.51666  -0.51381  -0.51321
 Alpha  occ. eigenvalues --   -0.51042  -0.50589  -0.50290  -0.50289  -0.50234
 Alpha  occ. eigenvalues --   -0.49951  -0.49846  -0.49720  -0.49659  -0.49527
 Alpha  occ. eigenvalues --   -0.49463  -0.49252  -0.49200  -0.49135  -0.48956
 Alpha  occ. eigenvalues --   -0.48875  -0.48452  -0.48388  -0.48138  -0.48013
 Alpha  occ. eigenvalues --   -0.47856  -0.47793  -0.47767  -0.47322  -0.47097
 Alpha  occ. eigenvalues --   -0.46871  -0.46799  -0.46494  -0.46384  -0.46371
 Alpha  occ. eigenvalues --   -0.46018  -0.45939  -0.45791  -0.45533  -0.45490
 Alpha  occ. eigenvalues --   -0.45417  -0.45347  -0.45222  -0.45144  -0.45087
 Alpha  occ. eigenvalues --   -0.44920  -0.44890  -0.44763  -0.44582  -0.44369
 Alpha  occ. eigenvalues --   -0.44026  -0.43891  -0.43857  -0.43624  -0.43520
 Alpha  occ. eigenvalues --   -0.43486  -0.43233  -0.43229  -0.42804  -0.42671
 Alpha  occ. eigenvalues --   -0.42595  -0.42521  -0.42117  -0.41990  -0.41861
 Alpha  occ. eigenvalues --   -0.41664  -0.41582  -0.41504  -0.41312  -0.41160
 Alpha  occ. eigenvalues --   -0.41105  -0.40992  -0.40982  -0.40822  -0.40518
 Alpha  occ. eigenvalues --   -0.40477  -0.39384  -0.39192  -0.38879  -0.38835
 Alpha  occ. eigenvalues --   -0.38192  -0.38145  -0.37798  -0.37732  -0.37184
 Alpha  occ. eigenvalues --   -0.37055  -0.36590  -0.36530  -0.36388  -0.36350
 Alpha  occ. eigenvalues --   -0.36177  -0.35781  -0.34685  -0.34228  -0.33982
 Alpha  occ. eigenvalues --   -0.33876  -0.33126  -0.32637  -0.31440  -0.31357
 Alpha  occ. eigenvalues --   -0.30875  -0.30774  -0.30617  -0.30528  -0.30155
 Alpha  occ. eigenvalues --   -0.30054  -0.29786  -0.29760  -0.24118  -0.23634
 Alpha  occ. eigenvalues --   -0.21474  -0.21006
 Alpha virt. eigenvalues --   -0.09093  -0.08579  -0.01421  -0.01175   0.00493
 Alpha virt. eigenvalues --    0.00835   0.02417   0.02485   0.02629   0.03171
 Alpha virt. eigenvalues --    0.04897   0.05644   0.05674   0.05805   0.06330

 Mulliken charges:
               1
     1  Mg   0.840102
     2  C   -0.023651
     3  C   -0.059947
     4  C   -0.059490
     5  C   -0.088262
     6  N   -0.312907
     7  C   -0.052861
     8  C    0.013290
     9  C   -0.070198
    10  C    0.084887
    11  C    0.032859
    12  C    0.022292
    13  C   -0.067088
    14  H    0.013106
    15  N   -0.403485
    16  C    0.093574
    17  C   -0.114425
    18  C   -0.089639
    19  C    0.139412
    20  C    0.129789
    21  C   -0.007886
    22  O   -0.175106
    23  C    0.037039
    24  N   -0.268492
    25  C    0.008192
    26  C    0.022475
    27  C   -0.064356
    28  C   -0.003255
    29  C    0.067790
    30  C    0.012954
    31  C    0.024893
    32  N   -0.316129
    33  C    0.150932
    34  C   -0.226551
    35  C    0.063275
    36  C    0.099530
    37  C    0.138238
    38  C    0.034421
    39  O   -0.135769
    40  C   -0.039637
    41  C    0.217474
    42  O   -0.203374
    43  O   -0.356860
    44  C    0.167132
    45  H   -0.052198
    46  H   -0.001777
    47  H   -0.022100
    48  H    0.024681
    49  H    0.022110
    50  H    0.009538
    51  H    0.028718
    52  H    0.021778
    53  H    0.009380
    54  H    0.037143
    55  H    0.040178
    56  H    0.040279
    57  H    0.035130
    58  H    0.015727
    59  H    0.025468
    60  H    0.055366
    61  H    0.027352
    62  H    0.015006
    63  H    0.011970
    64  H    0.007809
    65  H    0.012444
    66  H    0.017634
    67  H    0.029911
    68  H    0.004721
    69  H    0.008051
    70  H    0.011389
    71  H    0.020260
    72  H    0.015912
    73  H    0.034417
    74  H    0.007335
    75  H    0.021804
    76  H    0.051714
    77  H    0.045586
    78  H    0.056026
    79  H    0.036953
    80  Mg   0.849775
    81  C   -0.032501
    82  C   -0.104330
    83  C   -0.040436
    84  C   -0.102977
    85  N   -0.277012
    86  C   -0.073637
    87  C    0.020009
    88  C   -0.112952
    89  C    0.098357
    90  C    0.051529
    91  C    0.081308
    92  C   -0.091571
    93  H    0.011438
    94  N   -0.341482
    95  C    0.146768
    96  C   -0.163356
    97  C   -0.029814
    98  C    0.148892
    99  C    0.116761
   100  C   -0.008336
   101  O   -0.229864
   102  C    0.068396
   103  N   -0.320775
   104  C    0.008069
   105  C   -0.016758
   106  C   -0.037871
   107  C    0.071415
   108  C    0.076336
   109  C    0.018584
   110  C   -0.003758
   111  N   -0.375130
   112  C    0.118494
   113  C   -0.127467
   114  C    0.017194
   115  C    0.159522
   116  C    0.116741
   117  C    0.021772
   118  O   -0.183790
   119  C   -0.013634
   120  C    0.166771
   121  O   -0.220786
   122  O   -0.295160
   123  C    0.174913
   124  H   -0.024795
   125  H   -0.005986
   126  H   -0.029608
   127  H    0.009699
   128  H    0.016853
   129  H    0.020840
   130  H    0.019489
   131  H    0.013256
   132  H    0.015414
   133  H    0.005704
   134  H    0.041346
   135  H    0.035646
   136  H    0.018829
   137  H    0.034088
   138  H    0.033366
   139  H    0.029317
   140  H    0.043640
   141  H    0.024195
   142  H    0.010385
   143  H    0.001440
   144  H    0.018291
   145  H    0.006737
   146  H    0.034647
   147  H    0.004099
   148  H    0.008741
   149  H    0.014710
   150  H    0.027009
   151  H    0.007608
   152  H    0.024855
   153  H    0.030958
   154  H    0.021911
   155  H    0.035884
   156  H    0.024945
   157  H    0.037040
   158  H    0.049800
 Sum of Mulliken charges =  -0.00000

 Dipole moment (field-independent basis, Debye):
    X=              5.0984    Y=              0.4207    Z=              3.8504  Tot=              6.4028
 Quadrupole moment (field-independent basis, Debye-Ang):
   XX=           -629.3442   YY=           -474.9863   ZZ=           -515.8918
   XY=             49.5125   XZ=             47.1568   YZ=              8.5492

 Normal termination of Gaussian 16 at Wed Sep 15 07:53:33 2021.
