 Gaussian 16, Revision A.03,
 Gaussian 16:  ES64L-G16RevA.03 25-Dec-2016

 -----------------------------------
 #p cam-b3lyp/Def2SVP td=(nstates=5)
 -----------------------------------

 --------------------------------
 TDDFT excited states in gaussian
 --------------------------------
 Symbolic Z-matrix:
 Charge =  0 Multiplicity = 1

                         Standard orientation:
 ---------------------------------------------------------------------
 Center     Atomic      Atomic             Coordinates (Angstroms)
 Number     Number       Type             X           Y           Z
 ---------------------------------------------------------------------
      1         12           0        4.929361    0.609668    0.011839
      2          6           0        2.894585   -2.228336    0.821174
      3          6           0        7.442697   -1.419925   -0.575937
      4          6           0        6.812424    3.335526    0.102405
      5          6           0        2.067635    2.649980    1.096453
      6          7           0        5.113837   -1.580929    0.071344
      7          6           0        4.186657   -2.570022    0.455505
      8          6           0        4.757177   -4.037011    0.387792
      9          6           0        6.270466   -3.670831   -0.157641
     10          6           0        6.316868   -2.149139   -0.254084
     11          6           0        7.407731   -4.206664    0.813939
     12          6           0        3.941087   -5.047875   -0.490905
     13          6           0        4.678186   -6.318779   -0.896049
     14          1           0        4.113889   -7.612796   -0.281500
     15          7           0        6.856260    0.917485   -0.307134
     16          6           0        7.820488   -0.026251   -0.572731
     17          6           0        9.121245    0.564454   -0.807126
     18          6           0        8.897270    1.984612   -0.610629
     19          6           0        7.425706    2.125421   -0.321364
     20          6           0       10.334193   -0.128545   -1.218084
     21          6           0        9.865674    3.149719   -0.718321
     22          8           0        9.541285    4.301984   -0.649214
     23          6           0       11.314172    2.755438   -0.833835
     24          7           0        4.514264    2.698499    0.590291
     25          6           0        5.500411    3.625367    0.492661
     26          6           0        4.959689    5.046831    0.802777
     27          6           0        3.422671    4.789678    0.978796
     28          6           0        3.298445    3.285313    0.832362
     29          6           0        5.578456    5.825908    2.013051
     30          6           0        2.478011    5.520233   -0.039599
     31          6           0        2.272512    7.017154    0.281650
     32          7           0        2.929188    0.356953    0.809469
     33          6           0        1.908174    1.228682    1.110510
     34          6           0        0.750196    0.488465    1.420263
     35          6           0        1.056335   -0.820249    1.387275
     36          6           0        2.434899   -0.900469    1.024058
     37          6           0       -0.586656    1.178024    1.659579
     38          6           0        0.640044   -2.209360    1.604870
     39          8           0       -0.415834   -2.663207    1.963702
     40          6           0        1.870679   -3.174356    1.253828
     41          6           0        2.330721   -3.789768    2.536792
     42          8           0        3.111855   -3.409410    3.379521
     43          8           0        1.687027   -5.010255    2.588715
     44          6           0        1.969333   -5.871104    3.761953
     45          1           0        8.347883   -2.007860   -0.740828
     46          1           0        7.508802    4.162331    0.261623
     47          1           0        1.289219    3.393773    1.281732
     48          1           0        4.882627   -4.389671    1.411641
     49          1           0        6.411535   -4.175039   -1.113947
     50          1           0        8.199940   -4.666096    0.223017
     51          1           0        7.137333   -4.884412    1.623217
     52          1           0        7.926957   -3.371287    1.282669
     53          1           0        3.659628   -4.390165   -1.314311
     54          1           0        2.964901   -5.375999   -0.133166
     55          1           0        5.722295   -6.234620   -0.595947
     56          1           0        4.523054   -6.485432   -1.961646
     57          1           0       10.458615    0.308855   -2.208665
     58          1           0       10.193177   -1.209428   -1.206122
     59          1           0       11.249448    0.066160   -0.659437
     60          1           0       11.592652    2.712756   -1.886711
     61          1           0       11.621887    2.002161   -0.108007
     62          1           0       11.821828    3.535724   -0.267488
     63          1           0        4.981199    5.569435   -0.153994
     64          1           0        3.152194    4.964460    2.020375
     65          1           0        4.885761    6.125504    2.800043
     66          1           0        5.893423    6.784674    1.601752
     67          1           0        6.399254    5.321758    2.523162
     68          1           0        1.493700    5.054007   -0.014879
     69          1           0        2.928882    5.340398   -1.016539
     70          1           0        2.492991    7.214991    1.330805
     71          1           0        1.241809    7.240369    0.006357
     72          1           0        2.943990    7.686120   -0.257421
     73          1           0       -1.419664    0.517715    1.418098
     74          1           0       -0.615854    2.097476    1.074806
     75          1           0       -0.648278    1.539708    2.686215
     76          1           0        1.596848   -3.923478    0.510526
     77          1           0        1.012255   -6.317739    4.031143
     78          1           0        2.380981   -5.340019    4.620076
     79          1           0        2.660533   -6.575588    3.298263
     80         12           0       -4.973895    0.468690   -0.329995
     81          6           0       -2.859347   -2.061954   -1.164039
     82          6           0       -7.491531   -1.774212    0.353955
     83          6           0       -7.017046    3.094921    0.293871
     84          6           0       -2.531430    2.741986   -1.495434
     85          7           0       -5.215492   -1.679571   -0.614226
     86          6           0       -4.126061   -2.492683   -0.646452
     87          6           0       -4.430235   -3.907268   -0.285974
     88          6           0       -6.024554   -3.786497   -0.052337
     89          6           0       -6.289113   -2.317452   -0.101897
     90          6           0       -6.870317   -4.577391   -1.150155
     91          6           0       -3.649811   -4.276080    1.060785
     92          6           0       -3.378413   -5.757604    1.331051
     93          1           0       -4.060795   -6.924233    0.574194
     94          7           0       -6.943071    0.688372    0.339693
     95          6           0       -7.827942   -0.383509    0.541094
     96          6           0       -9.091869    0.183891    0.950051
     97          6           0       -8.959895    1.587344    0.966243
     98          6           0       -7.578036    1.817267    0.567718
     99          6           0      -10.284946   -0.719470    1.340333
    100          6           0      -10.112314    2.684315    1.258142
    101          8           0       -9.868782    3.890594    1.388711
    102          6           0      -11.584250    2.351017    1.437173
    103          7           0       -4.739675    2.661774   -0.518429
    104          6           0       -5.771964    3.486737   -0.221105
    105          6           0       -5.500443    4.913655   -0.694723
    106          6           0       -3.889845    4.863469   -0.977449
    107          6           0       -3.625239    3.351403   -0.904928
    108          6           0       -6.433889    5.453910   -1.872611
    109          6           0       -2.942113    5.524822    0.146820
    110          6           0       -1.854262    6.500829   -0.262007
    111          7           0       -3.042063    0.443994   -1.123883
    112          6           0       -2.192551    1.393465   -1.553594
    113          6           0       -0.891316    0.768270   -1.947967
    114          6           0       -1.140433   -0.608796   -1.737976
    115          6           0       -2.500824   -0.724552   -1.361291
    116          6           0        0.387891    1.377898   -2.401330
    117          6           0       -0.486275   -1.858583   -1.847313
    118          8           0        0.677964   -2.131405   -2.205209
    119          6           0       -1.573412   -2.866718   -1.483567
    120          6           0       -1.792293   -3.743520   -2.611170
    121          8           0       -2.068020   -3.500791   -3.744387
    122          8           0       -1.735697   -5.040391   -2.109403
    123          6           0       -1.979844   -6.254038   -2.979363
    124          1           0       -8.252615   -2.417408    0.799732
    125          1           0       -7.711075    3.931150    0.404274
    126          1           0       -1.816462    3.357296   -2.044491
    127          1           0       -4.224192   -4.728709   -0.971897
    128          1           0       -6.312318   -4.174629    0.924704
    129          1           0       -7.784117   -5.053185   -0.794972
    130          1           0       -6.208611   -5.255598   -1.688715
    131          1           0       -7.196618   -3.833007   -1.877192
    132          1           0       -4.162643   -3.885093    1.939769
    133          1           0       -2.695886   -3.753397    0.986122
    134          1           0       -3.558669   -5.896317    2.397809
    135          1           0       -2.308618   -5.936471    1.230071
    136          1           0      -10.062626   -1.786408    1.328387
    137          1           0      -11.094452   -0.477615    0.652429
    138          1           0      -10.606362   -0.409834    2.335045
    139          1           0      -11.627436    1.818080    2.386302
    140          1           0      -11.915898    1.552903    0.772699
    141          1           0      -12.200125    3.228569    1.241510
    142          1           0       -5.648565    5.577079    0.158187
    143          1           0       -3.647199    5.327740   -1.933515
    144          1           0       -5.844425    5.753278   -2.739543
    145          1           0       -7.037891    6.288430   -1.518269
    146          1           0       -7.084024    4.660457   -2.241973
    147          1           0       -2.496537    4.771057    0.795809
    148          1           0       -3.609681    6.050131    0.829165
    149          1           0       -0.917991    6.096062    0.120679
    150          1           0       -2.033457    7.513698    0.097597
    151          1           0       -1.751274    6.500955   -1.348034
    152          1           0        0.406926    2.467540   -2.389145
    153          1           0        0.617604    1.082879   -3.425522
    154          1           0        1.186466    1.018500   -1.752632
    155          1           0       -1.302725   -3.469758   -0.616376
    156          1           0       -2.248120   -5.948199   -3.990827
    157          1           0       -2.831965   -6.814838   -2.592992
    158          1           0       -1.045564   -6.815101   -2.960443
 ---------------------------------------------------------------------

 SCF Done:  E(RCAM-B3LYP) =  -4069.82843354     A.U. after   19 cycles

 Excitation energies and oscillator strengths:

 Excited State   1:      Singlet-A      1.6517 eV  750.66 nm  f=0.8824  <S**2>=0.000
     310 -> 316       -0.12542
     311 -> 314       -0.38700
     312 -> 313        0.55846
 This state for optimization and/or second-order correction.
 Total Energy, E(TD-HF/TD-DFT) =  -4069.76773572
 Copying the excited state density for this state as the 1-particle RhoCI density.

 Excited State   2:      Singlet-A      1.7441 eV  710.87 nm  f=0.0604  <S**2>=0.000
     309 -> 315       -0.15859
     310 -> 316        0.10164
     311 -> 313        0.39722
     311 -> 314       -0.39393
     312 -> 313       -0.17243
     312 -> 314       -0.35063

 Excited State   3:      Singlet-A      2.1844 eV  567.59 nm  f=0.0331  <S**2>=0.000
     309 -> 314       -0.31421
     310 -> 313        0.55360
     310 -> 314        0.14668
     311 -> 316       -0.10904
     312 -> 316        0.19468

 Excited State   4:      Singlet-A      2.2218 eV  558.04 nm  f=0.1661  <S**2>=0.000
     309 -> 313       -0.34844
     309 -> 314        0.42304
     310 -> 313        0.12683
     310 -> 314        0.29744
     311 -> 315       -0.24418
     312 -> 316        0.12185

 Excited State   5:      Singlet-A      2.3263 eV  532.97 nm  f=0.0022  <S**2>=0.000
     311 -> 313        0.14870
     311 -> 314       -0.25270
     312 -> 313       -0.26017
     312 -> 314        0.57821

 The electronic state is 1-A.
 Alpha  occ. eigenvalues --  -46.89063 -46.88345 -19.23883 -19.23409 -19.19890
 Alpha  occ. eigenvalues --  -19.19599 -19.19313 -19.18964 -19.18825 -19.18801
 Alpha  occ. eigenvalues --  -14.42095 -14.41948 -14.41395 -14.41149 -14.39446
 Alpha  occ. eigenvalues --  -14.39244 -14.39103 -14.38699 -10.38931 -10.38339
 Alpha  occ. eigenvalues --  -10.36000 -10.35570 -10.34646 -10.34337 -10.31698
 Alpha  occ. eigenvalues --  -10.31311 -10.31287 -10.30652 -10.30604 -10.30430
 Alpha  occ. eigenvalues --  -10.30294 -10.30244 -10.30036 -10.29972 -10.29970
 Alpha  occ. eigenvalues --  -10.29960 -10.29710 -10.29561 -10.29468 -10.28971
 Alpha  occ. eigenvalues --  -10.28914 -10.28635 -10.28595 -10.28573 -10.28489
 Alpha  occ. eigenvalues --  -10.28436 -10.28274 -10.28198 -10.27954 -10.27911
 Alpha  occ. eigenvalues --  -10.27844 -10.27796 -10.27595 -10.27576 -10.27540
 Alpha  occ. eigenvalues --  -10.27427 -10.27247 -10.27241 -10.27138 -10.27022
 Alpha  occ. eigenvalues --  -10.26851 -10.26772 -10.26760 -10.26691 -10.26631
 Alpha  occ. eigenvalues --  -10.26625 -10.26596 -10.26588 -10.26560 -10.26457
 Alpha  occ. eigenvalues --  -10.26238 -10.26197 -10.26074 -10.25952 -10.25918
 Alpha  occ. eigenvalues --  -10.25908 -10.25820 -10.25723 -10.25704 -10.25609
 Alpha  occ. eigenvalues --  -10.25596 -10.25572 -10.25399 -10.25383 -10.24586
 Alpha  occ. eigenvalues --  -10.24460  -3.17475  -3.16891  -1.92394  -1.91912
 Alpha  occ. eigenvalues --   -1.91787  -1.91786  -1.91327  -1.91218  -1.15708
 Alpha  occ. eigenvalues --   -1.15354  -1.11260  -1.11244  -1.09288  -1.08260
 Alpha  occ. eigenvalues --   -1.07466  -1.06928  -1.05255  -1.04057  -1.03640
 Alpha  occ. eigenvalues --   -1.03287  -1.03130  -1.02375  -1.02339  -1.01343
 Alpha  occ. eigenvalues --   -0.93111  -0.92826  -0.88831  -0.88348  -0.88154
 Alpha  occ. eigenvalues --   -0.87706  -0.87490  -0.87247  -0.86986  -0.86879
 Alpha  occ. eigenvalues --   -0.86710  -0.86673  -0.85946  -0.85814  -0.83960
 Alpha  occ. eigenvalues --   -0.83679  -0.83214  -0.83108  -0.82095  -0.82024
 Alpha  occ. eigenvalues --   -0.81846  -0.81275  -0.80806  -0.80548  -0.79982
 Alpha  occ. eigenvalues --   -0.79930  -0.78139  -0.77969  -0.77256  -0.76908
 Alpha  occ. eigenvalues --   -0.76696  -0.76400  -0.75905  -0.75400  -0.74887
 Alpha  occ. eigenvalues --   -0.74662  -0.72599  -0.72272  -0.71669  -0.71150
 Alpha  occ. eigenvalues --   -0.69436  -0.68975  -0.68663  -0.68529  -0.67668
 Alpha  occ. eigenvalues --   -0.67533  -0.66786  -0.65615  -0.65180  -0.64940
 Alpha  occ. eigenvalues --   -0.64588  -0.64485  -0.64178  -0.64091  -0.63840
 Alpha  occ. eigenvalues --   -0.63728  -0.61553  -0.61387  -0.60152  -0.59958
 Alpha  occ. eigenvalues --   -0.59545  -0.59354  -0.58813  -0.58607  -0.58501
 Alpha  occ. eigenvalues --   -0.58330  -0.58008  -0.57704  -0.57494  -0.56799
 Alpha  occ. eigenvalues --   -0.55935  -0.55746  -0.55692  -0.55178  -0.54965
 Alpha  occ. eigenvalues --   -0.54835  -0.54452  -0.54136  -0.54009  -0.53985
 Alpha  occ. eigenvalues --   -0.53543  -0.53221  -0.52902  -0.52704  -0.52620
 Alpha  occ. eigenvalues --   -0.52376  -0.52213  -0.52025  -0.51912  -0.51811
 Alpha  occ. eigenvalues --   -0.51680  -0.51641  -0.51489  -0.51187  -0.50909
 Alpha  occ. eigenvalues --   -0.50785  -0.50563  -0.50320  -0.50286  -0.50137
 Alpha  occ. eigenvalues --   -0.49934  -0.49682  -0.49535  -0.49403  -0.49282
 Alpha  occ. eigenvalues --   -0.49149  -0.48912  -0.48882  -0.48730  -0.48408
 Alpha  occ. eigenvalues --   -0.48197  -0.48068  -0.47888  -0.47818  -0.47686
 Alpha  occ. eigenvalues --   -0.47628  -0.47571  -0.47352  -0.47081  -0.46917
 Alpha  occ. eigenvalues --   -0.46829  -0.46592  -0.46246  -0.46211  -0.46141
 Alpha  occ. eigenvalues --   -0.45993  -0.45804  -0.45684  -0.45580  -0.45372
 Alpha  occ. eigenvalues --   -0.45344  -0.45254  -0.44986  -0.44906  -0.44883
 Alpha  occ. eigenvalues --   -0.44700  -0.44571  -0.44344  -0.44157  -0.43977
 Alpha  occ. eigenvalues --   -0.43899  -0.43728  -0.43641  -0.43605  -0.43342
 Alpha  occ. eigenvalues --   -0.43299  -0.43088  -0.42866  -0.42628  -0.42394
 Alpha  occ. eigenvalues --   -0.42024  -0.41963  -0.41918  -0.41638  -0.41503
 Alpha  occ. eigenvalues --   -0.41342  -0.41179  -0.41025  -0.40980  -0.40950
 Alpha  occ. eigenvalues --   -0.40798  -0.40712  -0.40588  -0.40318  -0.40249
 Alpha  occ. eigenvalues --   -0.40056  -0.39630  -0.39275  -0.38718  -0.38472
 Alpha  occ. eigenvalues --   -0.38282  -0.38032  -0.37601  -0.37455  -0.36880
 Alpha  occ. eigenvalues --   -0.36760  -0.36313  -0.36292  -0.36143  -0.36006
 Alpha  occ. eigenvalues --   -0.35753  -0.35549  -0.34607  -0.34189  -0.33969
 Alpha  occ. eigenvalues --   -0.33781  -0.32851  -0.32405  -0.31252  -0.31043
 Alpha  occ. eigenvalues --   -0.30901  -0.30871  -0.30731  -0.30670  -0.30102
 Alpha  occ. eigenvalues --   -0.29825  -0.29754  -0.29472  -0.23527  -0.23338
 Alpha  occ. eigenvalues --   -0.20819  -0.20781
 Alpha virt. eigenvalues --   -0.08453  -0.08183  -0.01368  -0.00939   0.00043
 Alpha virt. eigenvalues --    0.01006   0.02449   0.02721   0.02967   0.03299
 Alpha virt. eigenvalues --    0.05243   0.05260   0.05793   0.05978   0.06419

 Mulliken charges:
               1
     1  Mg   0.841226
     2  C    0.001817
     3  C   -0.058829
     4  C   -0.060860
     5  C   -0.091486
     6  N   -0.312714
     7  C   -0.051747
     8  C    0.009888
     9  C   -0.070168
    10  C    0.087399
    11  C    0.032937
    12  C    0.018754
    13  C   -0.065942
    14  H    0.007532
    15  N   -0.402838
    16  C    0.093786
    17  C   -0.114159
    18  C   -0.089955
    19  C    0.140462
    20  C    0.129830
    21  C   -0.007893
    22  O   -0.175387
    23  C    0.037245
    24  N   -0.268258
    25  C    0.009253
    26  C    0.023016
    27  C   -0.063893
    28  C   -0.005442
    29  C    0.068090
    30  C    0.011998
    31  C    0.025384
    32  N   -0.318901
    33  C    0.139424
    34  C   -0.237564
    35  C    0.076709
    36  C    0.101953
    37  C    0.144856
    38  C    0.035470
    39  O   -0.147087
    40  C   -0.037712
    41  C    0.216661
    42  O   -0.202809
    43  O   -0.357842
    44  C    0.167021
    45  H   -0.052124
    46  H   -0.002478
    47  H   -0.024854
    48  H    0.022172
    49  H    0.023807
    50  H    0.009176
    51  H    0.027860
    52  H    0.020649
    53  H    0.026382
    54  H    0.036575
    55  H    0.038101
    56  H    0.041805
    57  H    0.035432
    58  H    0.016038
    59  H    0.025085
    60  H    0.055403
    61  H    0.027161
    62  H    0.014556
    63  H    0.011711
    64  H    0.007190
    65  H    0.011912
    66  H    0.017349
    67  H    0.029977
    68  H    0.001523
    69  H    0.007321
    70  H    0.011368
    71  H    0.019920
    72  H    0.014473
    73  H    0.040105
    74  H    0.011681
    75  H    0.016577
    76  H    0.056317
    77  H    0.042595
    78  H    0.055962
    79  H    0.038579
    80  Mg   0.808872
    81  C   -0.062321
    82  C   -0.058851
    83  C   -0.050383
    84  C   -0.097181
    85  N   -0.288276
    86  C   -0.003471
    87  C   -0.041802
    88  C   -0.058831
    89  C    0.075252
    90  C    0.068375
    91  C    0.015661
    92  C   -0.041427
    93  H    0.008759
    94  N   -0.352164
    95  C    0.091218
    96  C   -0.157999
    97  C   -0.045226
    98  C    0.100835
    99  C    0.108574
   100  C    0.033233
   101  O   -0.221172
   102  C    0.070326
   103  N   -0.263317
   104  C    0.013017
   105  C   -0.016056
   106  C   -0.070564
   107  C    0.087539
   108  C    0.065704
   109  C    0.020427
   110  C    0.010315
   111  N   -0.298944
   112  C    0.071161
   113  C   -0.141676
   114  C   -0.010594
   115  C    0.159986
   116  C    0.120339
   117  C    0.062447
   118  O   -0.203921
   119  C    0.009729
   120  C    0.183137
   121  O   -0.170913
   122  O   -0.382776
   123  C    0.167453
   124  H   -0.032656
   125  H   -0.012589
   126  H   -0.029787
   127  H    0.019134
   128  H    0.006081
   129  H    0.020949
   130  H    0.011295
   131  H    0.014933
   132  H    0.006093
   133  H    0.033637
   134  H    0.018161
   135  H    0.033956
   136  H    0.019476
   137  H    0.029504
   138  H    0.026232
   139  H    0.033415
   140  H    0.005232
   141  H    0.049549
   142  H    0.010255
   143  H    0.010072
   144  H    0.011223
   145  H    0.028392
   146  H    0.024649
   147  H    0.012469
   148  H   -0.003559
   149  H    0.014641
   150  H    0.027983
   151  H    0.006719
   152  H   -0.001574
   153  H    0.035314
   154  H    0.056524
   155  H    0.050203
   156  H    0.048064
   157  H    0.038973
   158  H    0.048011
 Sum of Mulliken charges =  -0.00000

 Dipole moment (field-independent basis, Debye):
    X=              0.3830    Y=             -2.6651    Z=              0.2159  Tot=              2.7011
 Quadrupole moment (field-independent basis, Debye-Ang):
   XX=           -470.0624   YY=           -477.1892   ZZ=           -525.0005
   XY=              0.1446   XZ=             -7.2327   YZ=             -7.6771

 Normal termination of Gaussian 16 at Wed Sep 15 07:39:56 2021.
