 Gaussian 16, Revision A.03,
 Gaussian 16:  ES64L-G16RevA.03 25-Dec-2016

 ----------------------------------------------------------
 #p cam-b3lyp/Def2SVP td=(nstates=5) density=(transition=1)
 ----------------------------------------------------------

 --------------------------------
 TDDFT excited states in gaussian
 --------------------------------
 Symbolic Z-matrix:
 Charge =  0 Multiplicity = 1

                         Standard orientation:
 ---------------------------------------------------------------------
 Center     Atomic      Atomic             Coordinates (Angstroms)
 Number     Number       Type             X           Y           Z
 ---------------------------------------------------------------------
      1         12           0      -29.777716   -0.451851    0.672236
      2          6           0      -29.467979    2.017490   -1.847769
      3          6           0      -29.481210   -2.784495   -1.914162
      4          6           0      -29.937708   -2.868981    2.888408
      5          6           0      -30.850509    1.993201    2.899513
      6          7           0      -29.474930   -0.342478   -1.589928
      7          6           0      -29.230723    0.747074   -2.369909
      8          6           0      -29.001474    0.467479   -3.865125
      9          6           0      -29.147365   -1.137145   -3.813488
     10          6           0      -29.395091   -1.404013   -2.358290
     11          6           0      -30.342418   -1.710108   -4.673561
     12          6           0      -27.596516    0.935589   -4.366712
     13          6           0      -27.365647    2.079454   -5.346539
     14          1           0      -26.242491    2.025931   -6.373745
     15          7           0      -29.644292   -2.551000    0.550501
     16          6           0      -29.595114   -3.333518   -0.612175
     17          6           0      -29.689532   -4.717591   -0.204753
     18          6           0      -29.659876   -4.780019    1.186236
     19          6           0      -29.690021   -3.364575    1.603311
     20          6           0      -29.564590   -5.775039   -1.247900
     21          6           0      -29.717149   -5.966509    2.147821
     22          8           0      -29.716492   -5.873211    3.379064
     23          6           0      -29.624950   -7.316715    1.553761
     24          7           0      -30.412699   -0.493655    2.599244
     25          6           0      -30.196564   -1.570587    3.413648
     26          6           0      -30.274864   -1.160392    4.923290
     27          6           0      -30.652530    0.313763    4.857763
     28          6           0      -30.718112    0.635837    3.338917
     29          6           0      -31.220187   -2.072859    5.771206
     30          6           0      -29.611206    1.148083    5.619142
     31          6           0      -30.091759    2.227199    6.519809
     32          7           0      -30.208932    1.574338    0.582313
     33          6           0      -30.606277    2.447780    1.562885
     34          6           0      -30.702402    3.786552    1.062746
     35          6           0      -30.157949    3.745974   -0.313326
     36          6           0      -29.870573    2.340389   -0.526697
     37          6           0      -31.211621    5.007071    1.848476
     38          6           0      -29.811137    4.505767   -1.540786
     39          8           0      -29.775232    5.731564   -1.742029
     40          6           0      -29.346579    3.392425   -2.567524
     41          6           0      -30.333367    3.628624   -3.667897
     42          8           0      -31.461026    3.166683   -3.793457
     43          8           0      -29.799751    4.337886   -4.624488
     44          6           0      -30.648086    4.828480   -5.737700
     45          1           0      -29.224171   -3.387721   -2.787003
     46          1           0      -30.054953   -3.569830    3.717182
     47          1           0      -31.120205    2.756201    3.632193
     48          1           0      -29.835132    0.906992   -4.414227
     49          1           0      -28.276088   -1.743452   -4.063147
     50          1           0      -31.104165   -1.002319   -4.999337
     51          1           0      -30.876441   -2.469837   -4.103907
     52          1           0      -29.926664   -2.186613   -5.561550
     53          1           0      -27.141766    0.070460   -4.849535
     54          1           0      -26.974621    1.230895   -3.522600
     55          1           0      -27.041832    2.861110   -4.659173
     56          1           0      -28.357290    2.195716   -5.783951
     57          1           0      -28.692493   -6.406658   -1.084479
     58          1           0      -29.472683   -5.337185   -2.242172
     59          1           0      -30.416299   -6.453939   -1.277372
     60          1           0      -28.780115   -7.353950    0.865916
     61          1           0      -30.453210   -7.532452    0.878670
     62          1           0      -29.457311   -8.115731    2.275255
     63          1           0      -29.247816   -1.329240    5.246548
     64          1           0      -31.589833    0.503603    5.380494
     65          1           0      -31.570931   -2.962699    5.248665
     66          1           0      -32.122633   -1.570238    6.117171
     67          1           0      -30.747640   -2.305130    6.725477
     68          1           0      -29.026787    1.584346    4.810065
     69          1           0      -28.963822    0.574062    6.281626
     70          1           0      -29.580462    3.123059    6.168297
     71          1           0      -29.924658    1.951833    7.561085
     72          1           0      -31.145557    2.483475    6.408461
     73          1           0      -32.285462    5.104820    1.693385
     74          1           0      -30.666289    5.885496    1.503725
     75          1           0      -31.075740    4.890603    2.923906
     76          1           0      -28.338931    3.661586   -2.883703
     77          1           0      -31.119125    4.036393   -6.318752
     78          1           0      -30.133521    5.493950   -6.430584
     79          1           0      -31.480918    5.478508   -5.471204
     80         12           0       30.311229    0.525216   -0.128830
     81          6           0       28.324449   -2.299721   -0.343243
     82          6           0       27.597633    2.311427    1.058436
     83          6           0       32.445227    2.984049    0.762813
     84          6           0       33.012435   -1.557842   -1.024377
     85          7           0       28.258661   -0.028279    0.577492
     86          6           0       27.674985   -1.167421    0.194742
     87          6           0       26.201306   -1.210399    0.704749
     88          6           0       25.900242    0.350821    0.895530
     89          6           0       27.344594    0.970014    0.768653
     90          6           0       24.817131    0.879134   -0.075688
     91          6           0       26.123776   -1.925452    2.034449
     92          6           0       24.930164   -2.850804    2.212281
     93          1           0       24.168740   -3.007518    3.582246
     94          7           0       29.980390    2.488244    0.643062
     95          6           0       28.847808    3.019246    1.135054
     96          6           0       29.139550    4.357114    1.536499
     97          6           0       30.516681    4.648735    1.297018
     98          6           0       31.066052    3.365407    0.842369
     99          6           0       28.065783    5.303436    1.928693
    100          6           0       31.179541    5.923494    1.681757
    101          8           0       30.522169    6.841576    2.143176
    102          6           0       32.668818    6.150541    1.451352
    103          7           0       32.517135    0.703378   -0.222291
    104          6           0       33.097566    1.824425    0.290166
    105          6           0       34.574998    1.641827    0.418459
    106          6           0       34.740848    0.157454   -0.159895
    107          6           0       33.363422   -0.294651   -0.577122
    108          6           0       35.422507    2.726262   -0.272792
    109          6           0       35.465313   -0.887861    0.798962
    110          6           0       36.662027   -1.724472    0.288496
    111          7           0       30.636290   -1.460830   -0.609137
    112          6           0       31.748510   -2.129964   -1.013461
    113          6           0       31.391187   -3.350567   -1.587901
    114          6           0       30.025662   -3.497313   -1.387335
    115          6           0       29.628245   -2.362234   -0.726250
    116          6           0       32.400369   -4.372929   -2.187998
    117          6           0       28.917092   -4.307728   -1.586738
    118          8           0       28.886632   -5.451021   -2.028445
    119          6           0       27.658820   -3.616954   -0.870022
    120          6           0       26.654265   -3.248117   -1.801010
    121          8           0       26.597830   -2.309380   -2.598936
    122          8           0       25.635163   -4.184279   -1.655091
    123          6           0       24.433320   -4.108634   -2.467926
    124          1           0       26.718516    2.918693    1.282884
    125          1           0       33.250353    3.683815    0.998352
    126          1           0       33.905155   -2.082291   -1.371757
    127          1           0       25.604019   -1.727245   -0.045885
    128          1           0       25.639034    0.631258    1.915419
    129          1           0       24.517705    0.121017   -0.799095
    130          1           0       25.194146    1.759977   -0.596353
    131          1           0       23.974119    1.215880    0.527226
    132          1           0       26.177245   -1.318603    2.938545
    133          1           0       27.078154   -2.445621    2.116031
    134          1           0       25.241341   -3.827608    1.842369
    135          1           0       24.238923   -2.442568    1.474987
    136          1           0       27.896602    5.865076    1.010168
    137          1           0       28.377590    5.943248    2.754457
    138          1           0       27.148277    4.805843    2.243021
    139          1           0       33.173445    5.642127    2.273057
    140          1           0       32.835768    7.210333    1.642332
    141          1           0       32.966741    5.794000    0.465424
    142          1           0       34.674634    1.682048    1.502669
    143          1           0       35.419431    0.133370   -1.012584
    144          1           0       35.826913    3.343526    0.530100
    145          1           0       34.853181    3.317613   -0.990664
    146          1           0       36.271152    2.257484   -0.770345
    147          1           0       34.724168   -1.614921    1.130596
    148          1           0       35.901519   -0.420682    1.682167
    149          1           0       36.122990   -2.589952   -0.096622
    150          1           0       37.285143   -2.043014    1.123170
    151          1           0       37.215610   -1.407397   -0.595209
    152          1           0       32.929736   -4.855504   -1.367413
    153          1           0       33.202547   -3.955100   -2.796608
    154          1           0       31.881362   -5.140778   -2.762374
    155          1           0       27.330479   -4.323106   -0.107211
    156          1           0       24.082152   -5.130182   -2.610317
    157          1           0       24.532480   -3.539168   -3.392417
    158          1           0       23.655368   -3.649083   -1.858086
 ---------------------------------------------------------------------

 SCF Done:  E(RCAM-B3LYP) =  -4069.78301620     A.U. after   18 cycles

 Excitation energies and oscillator strengths:

 Excited State   1:      Singlet-A      1.6990 eV  729.75 nm  f=0.4001  <S**2>=0.000
     309 -> 315        0.18511
     311 -> 313        0.68486
     309 <- 315        0.10998
 This state for optimization and/or second-order correction.
 Total Energy, E(TD-HF/TD-DFT) =  -4069.72057944
 Copying the excited state density for this state as the 1-particle RhoCI density.

 Excited State   2:      Singlet-A      1.7572 eV  705.58 nm  f=0.3827  <S**2>=0.000
     310 -> 316       -0.18343
     312 -> 314        0.68375
     310 <- 316       -0.10474

 Excited State   3:      Singlet-A      2.2202 eV  558.43 nm  f=0.1061  <S**2>=0.000
     310 -> 314        0.63626
     312 -> 316        0.29385

 Excited State   4:      Singlet-A      2.2279 eV  556.51 nm  f=0.1004  <S**2>=0.000
     309 -> 313        0.63673
     311 -> 315       -0.29383

 Excited State   5:      Singlet-A      3.1033 eV  399.53 nm  f=0.0000  <S**2>=0.000
     312 -> 313        0.70711

 The electronic state is 1-A.
 Alpha  occ. eigenvalues --  -46.89709 -46.88526 -19.25303 -19.24661 -19.20213
 Alpha  occ. eigenvalues --  -19.19582 -19.19266 -19.18872 -19.18373 -19.18187
 Alpha  occ. eigenvalues --  -14.42583 -14.42370 -14.42039 -14.41903 -14.39825
 Alpha  occ. eigenvalues --  -14.39822 -14.39220 -14.38985 -10.39644 -10.38646
 Alpha  occ. eigenvalues --  -10.35975 -10.35441 -10.35250 -10.34640 -10.31944
 Alpha  occ. eigenvalues --  -10.31635 -10.31605 -10.31565 -10.31415 -10.31403
 Alpha  occ. eigenvalues --  -10.31328 -10.31162 -10.31111 -10.30924 -10.30912
 Alpha  occ. eigenvalues --  -10.30743 -10.30524 -10.29795 -10.29458 -10.29427
 Alpha  occ. eigenvalues --  -10.29035 -10.28859 -10.28853 -10.28767 -10.28740
 Alpha  occ. eigenvalues --  -10.28734 -10.28622 -10.28521 -10.28398 -10.28357
 Alpha  occ. eigenvalues --  -10.28349 -10.28334 -10.28197 -10.28195 -10.28037
 Alpha  occ. eigenvalues --  -10.28029 -10.27951 -10.27878 -10.27832 -10.27817
 Alpha  occ. eigenvalues --  -10.27780 -10.27710 -10.27520 -10.27391 -10.27059
 Alpha  occ. eigenvalues --  -10.27057 -10.26982 -10.26875 -10.26815 -10.26624
 Alpha  occ. eigenvalues --  -10.26550 -10.26522 -10.26499 -10.26405 -10.26088
 Alpha  occ. eigenvalues --  -10.26049 -10.25917 -10.25873 -10.25854 -10.25823
 Alpha  occ. eigenvalues --  -10.25688 -10.25641 -10.25223 -10.24926 -10.24870
 Alpha  occ. eigenvalues --  -10.24861  -3.18031  -3.17123  -1.92945  -1.92481
 Alpha  occ. eigenvalues --   -1.92324  -1.92024  -1.91580  -1.91427  -1.17796
 Alpha  occ. eigenvalues --   -1.15769  -1.10084  -1.10053  -1.10008  -1.08388
 Alpha  occ. eigenvalues --   -1.07545  -1.06487  -1.05531  -1.05474  -1.04105
 Alpha  occ. eigenvalues --   -1.04008  -1.03882  -1.02778  -1.02632  -1.01360
 Alpha  occ. eigenvalues --   -0.93920  -0.91845  -0.89577  -0.89499  -0.89176
 Alpha  occ. eigenvalues --   -0.89043  -0.88792  -0.88425  -0.87916  -0.87718
 Alpha  occ. eigenvalues --   -0.86900  -0.86759  -0.86216  -0.85448  -0.85110
 Alpha  occ. eigenvalues --   -0.84665  -0.84339  -0.83480  -0.83073  -0.82876
 Alpha  occ. eigenvalues --   -0.82697  -0.82279  -0.81505  -0.80829  -0.80821
 Alpha  occ. eigenvalues --   -0.80517  -0.78776  -0.78204  -0.77638  -0.77496
 Alpha  occ. eigenvalues --   -0.76874  -0.76589  -0.76534  -0.76191  -0.75202
 Alpha  occ. eigenvalues --   -0.75159  -0.73537  -0.72415  -0.72228  -0.71816
 Alpha  occ. eigenvalues --   -0.69847  -0.69283  -0.69226  -0.68202  -0.68149
 Alpha  occ. eigenvalues --   -0.67611  -0.67445  -0.66929  -0.66206  -0.65940
 Alpha  occ. eigenvalues --   -0.65872  -0.65511  -0.65283  -0.64886  -0.64865
 Alpha  occ. eigenvalues --   -0.64202  -0.62731  -0.62403  -0.60948  -0.60526
 Alpha  occ. eigenvalues --   -0.59914  -0.59511  -0.59152  -0.59127  -0.58982
 Alpha  occ. eigenvalues --   -0.58497  -0.58209  -0.58021  -0.57848  -0.57641
 Alpha  occ. eigenvalues --   -0.56699  -0.56380  -0.56179  -0.55640  -0.55485
 Alpha  occ. eigenvalues --   -0.54973  -0.54900  -0.54400  -0.54308  -0.54179
 Alpha  occ. eigenvalues --   -0.53840  -0.53566  -0.53556  -0.53425  -0.52920
 Alpha  occ. eigenvalues --   -0.52679  -0.52640  -0.52565  -0.52360  -0.52138
 Alpha  occ. eigenvalues --   -0.52112  -0.52106  -0.51858  -0.51528  -0.51422
 Alpha  occ. eigenvalues --   -0.51340  -0.50579  -0.50448  -0.50404  -0.50164
 Alpha  occ. eigenvalues --   -0.50040  -0.50026  -0.49883  -0.49740  -0.49616
 Alpha  occ. eigenvalues --   -0.49465  -0.49413  -0.49062  -0.49051  -0.49013
 Alpha  occ. eigenvalues --   -0.48710  -0.48498  -0.48412  -0.48319  -0.48189
 Alpha  occ. eigenvalues --   -0.48033  -0.47807  -0.47557  -0.47432  -0.46908
 Alpha  occ. eigenvalues --   -0.46778  -0.46732  -0.46635  -0.46632  -0.46319
 Alpha  occ. eigenvalues --   -0.46152  -0.46088  -0.45988  -0.45845  -0.45837
 Alpha  occ. eigenvalues --   -0.45580  -0.45503  -0.45450  -0.45323  -0.45170
 Alpha  occ. eigenvalues --   -0.45103  -0.45027  -0.44727  -0.44655  -0.44544
 Alpha  occ. eigenvalues --   -0.44357  -0.44258  -0.44019  -0.43930  -0.43636
 Alpha  occ. eigenvalues --   -0.43416  -0.43194  -0.43190  -0.43060  -0.42896
 Alpha  occ. eigenvalues --   -0.42812  -0.42419  -0.42212  -0.42080  -0.41948
 Alpha  occ. eigenvalues --   -0.41903  -0.41860  -0.41645  -0.41467  -0.41408
 Alpha  occ. eigenvalues --   -0.41234  -0.41093  -0.40827  -0.40421  -0.40270
 Alpha  occ. eigenvalues --   -0.40071  -0.39843  -0.39755  -0.39513  -0.38443
 Alpha  occ. eigenvalues --   -0.38316  -0.38238  -0.37992  -0.37923  -0.37400
 Alpha  occ. eigenvalues --   -0.37293  -0.37238  -0.36628  -0.36382  -0.36299
 Alpha  occ. eigenvalues --   -0.35847  -0.35697  -0.34943  -0.34452  -0.34387
 Alpha  occ. eigenvalues --   -0.33641  -0.33442  -0.33091  -0.31920  -0.31851
 Alpha  occ. eigenvalues --   -0.31782  -0.31228  -0.30738  -0.30603  -0.30521
 Alpha  occ. eigenvalues --   -0.30314  -0.29468  -0.28716  -0.24575  -0.23916
 Alpha  occ. eigenvalues --   -0.21568  -0.21180
 Alpha virt. eigenvalues --   -0.09207  -0.08522  -0.02296  -0.01864  -0.00201
 Alpha virt. eigenvalues --   -0.00193   0.02074   0.02314   0.02495   0.02693
 Alpha virt. eigenvalues --    0.04028   0.04616   0.05240   0.05483   0.05767

 Mulliken charges:
               1
     1  Mg  12.000018
     2  C    5.999997
     3  C    5.999985
     4  C    6.000075
     5  C    6.000026
     6  N    6.999991
     7  C    6.000046
     8  C    5.999976
     9  C    6.000014
    10  C    5.999931
    11  C    6.000022
    12  C    5.999989
    13  C    5.999999
    14  H    1.000014
    15  N    6.999997
    16  C    5.999900
    17  C    5.999936
    18  C    5.999957
    19  C    5.999906
    20  C    6.000042
    21  C    5.999971
    22  O    7.999921
    23  C    6.000021
    24  N    7.000025
    25  C    5.999892
    26  C    6.000020
    27  C    5.999989
    28  C    6.000035
    29  C    6.000007
    30  C    5.999988
    31  C    6.000000
    32  N    7.000024
    33  C    6.000085
    34  C    6.000070
    35  C    6.000022
    36  C    6.000076
    37  C    5.999977
    38  C    6.000055
    39  O    8.000104
    40  C    5.999976
    41  C    6.000007
    42  O    8.000015
    43  O    8.000000
    44  C    5.999989
    45  H    0.999954
    46  H    0.999993
    47  H    1.000030
    48  H    1.000004
    49  H    0.999992
    50  H    0.999963
    51  H    1.000006
    52  H    0.999966
    53  H    1.000013
    54  H    1.000000
    55  H    0.999999
    56  H    0.999998
    57  H    0.999931
    58  H    0.999946
    59  H    0.999933
    60  H    0.999974
    61  H    0.999975
    62  H    0.999944
    63  H    0.999999
    64  H    1.000009
    65  H    1.000006
    66  H    0.999980
    67  H    0.999988
    68  H    0.999989
    69  H    1.000035
    70  H    1.000002
    71  H    1.000022
    72  H    0.999999
    73  H    1.000065
    74  H    1.000061
    75  H    1.000068
    76  H    1.000028
    77  H    1.000009
    78  H    1.000022
    79  H    1.000010
    80  Mg  11.997119
    81  C    5.993077
    82  C    6.033033
    83  C    6.014943
    84  C    5.970411
    85  N    7.014920
    86  C    6.021276
    87  C    5.992725
    88  C    6.010041
    89  C    5.957375
    90  C    6.000728
    91  C    5.999000
    92  C    5.997469
    93  H    1.009707
    94  N    7.006698
    95  C    5.948878
    96  C    5.978205
    97  C    5.987753
    98  C    5.957338
    99  C    6.006513
   100  C    5.990449
   101  O    7.981650
   102  C    6.003126
   103  N    6.991755
   104  C    5.970197
   105  C    6.011119
   106  C    5.989260
   107  C    6.038112
   108  C    6.003964
   109  C    5.997410
   110  C    6.002497
   111  N    6.999057
   112  C    6.038441
   113  C    6.029231
   114  C    6.006031
   115  C    6.023805
   116  C    5.999878
   117  C    6.015926
   118  O    8.033258
   119  C    6.005502
   120  C    6.001069
   121  O    8.010323
   122  O    8.001758
   123  C    5.995868
   124  H    0.995381
   125  H    0.988124
   126  H    1.005844
   127  H    0.998604
   128  H    1.000555
   129  H    0.987505
   130  H    1.004560
   131  H    0.998294
   132  H    1.012059
   133  H    0.993378
   134  H    0.994963
   135  H    1.004055
   136  H    0.976736
   137  H    0.981054
   138  H    0.976522
   139  H    0.989736
   140  H    0.986702
   141  H    0.991936
   142  H    1.000411
   143  H    1.001202
   144  H    1.000612
   145  H    1.001139
   146  H    0.987680
   147  H    0.994841
   148  H    1.010576
   149  H    0.992237
   150  H    1.003088
   151  H    1.002991
   152  H    1.021054
   153  H    1.021372
   154  H    1.012816
   155  H    1.010307
   156  H    1.004066
   157  H    1.004555
   158  H    1.008151
 Sum of Mulliken charges = 624.00000

 Dipole moment (field-independent basis, Debye):
    X=              0.1333    Y=            -10.5870    Z=             -3.4787  Tot=             11.1447
 Quadrupole moment (field-independent basis, Debye-Ang):
   XX=             11.2441   YY=            -10.8573   ZZ=              1.5173
   XY=           -319.9825   XZ=           -105.1581   YZ=             -1.4513

 Normal termination of Gaussian 16 at Thu Sep 23 08:35:39 2021.
