 Gaussian 16, Revision A.03,
 Gaussian 16:  ES64L-G16RevA.03 25-Dec-2016

 -----------------------------------------------------------
 #p cam-b3lyp/Def2SVP td=(nstates=5, root=1) density=current
 -----------------------------------------------------------

 --------------------------------
 TDDFT excited states in gaussian
 --------------------------------
 Symbolic Z-matrix:
 Charge =  0 Multiplicity = 1

                         Standard orientation:
 ---------------------------------------------------------------------
 Center     Atomic      Atomic             Coordinates (Angstroms)
 Number     Number       Type             X           Y           Z
 ---------------------------------------------------------------------
      1         12           0       -0.814466    0.279487    0.038734
      2          6           0        2.849255    0.177329    0.102872
      3          6           0       -0.706268   -3.207314    0.364995
      4          6           0       -4.049110    0.245399   -0.365615
      5          6           0       -0.681427    3.703976   -0.092062
      6          7           0        0.851497   -1.322674    0.003368
      7          6           0        2.290716   -1.147908    0.155054
      8          6           0        3.074161   -2.475572    0.237138
      9          6           0        1.825625   -3.526331    0.104616
     10          6           0        0.545057   -2.669414    0.142045
     11          6           0        1.906099   -4.420938   -1.117068
     12          6           0        3.924757   -2.531503    1.542084
     13          6           0        4.491149   -3.877194    1.882384
     14          1           0        5.925157   -3.992262    2.349342
     15          7           0       -2.233766   -1.273881   -0.023884
     16          6           0       -2.007191   -2.645439    0.137605
     17          6           0       -3.279631   -3.363326    0.090488
     18          6           0       -4.304698   -2.352700   -0.121190
     19          6           0       -3.575294   -1.032407   -0.183652
     20          6           0       -3.452836   -4.908082    0.329688
     21          6           0       -5.774400   -2.466870   -0.310741
     22          8           0       -6.539307   -1.521905   -0.451127
     23          6           0       -6.429396   -3.782592   -0.220056
     24          7           0       -2.145640    1.719054   -0.097812
     25          6           0       -3.427086    1.482585   -0.384650
     26          6           0       -4.257283    2.780074   -0.524714
     27          6           0       -3.276386    3.809048   -0.002131
     28          6           0       -1.895163    3.056098   -0.124262
     29          6           0       -4.706843    3.055882   -1.954873
     30          6           0       -3.405218    4.446902    1.356901
     31          6           0       -3.284074    3.478023    2.513673
     32          7           0        0.721106    1.680625   -0.090044
     33          6           0        0.596385    3.080550   -0.034285
     34          6           0        1.913329    3.667509   -0.065829
     35          6           0        2.757657    2.534827    0.063407
     36          6           0        2.004646    1.345638    0.031035
     37          6           0        2.294495    5.118287   -0.015820
     38          6           0        4.203083    2.193677    0.240810
     39          8           0        5.198922    2.923989    0.431828
     40          6           0        4.270774    0.668128    0.233963
     41          6           0        5.233103    0.191524   -0.856030
     42          8           0        5.165597    0.308986   -2.115205
     43          8           0        6.186119   -0.563734   -0.239015
     44          6           0        7.181181   -1.198388   -1.132840
     45          1           0       -0.676040   -4.255124    0.667792
     46          1           0       -5.122438    0.253339   -0.566271
     47          1           0       -0.561985    4.787504   -0.158282
     48          1           0        3.785629   -2.434669   -0.587577
     49          1           0        1.753813   -4.103817    1.026297
     50          1           0        1.915102   -5.459407   -0.784770
     51          1           0        2.854134   -4.190959   -1.602021
     52          1           0        1.254019   -4.186109   -1.958068
     53          1           0        3.306030   -2.068853    2.311782
     54          1           0        4.763376   -1.843132    1.436656
     55          1           0        4.512527   -4.621000    1.086228
     56          1           0        3.954960   -4.283469    2.739539
     57          1           0       -4.072172   -4.979869    1.224232
     58          1           0       -2.512351   -5.427233    0.513645
     59          1           0       -3.955835   -5.296207   -0.556095
     60          1           0       -5.897130   -4.577312   -0.743160
     61          1           0       -7.396568   -3.617406   -0.693509
     62          1           0       -6.338715   -4.043202    0.834001
     63          1           0       -5.145055    2.657244    0.095772
     64          1           0       -3.246120    4.701129   -0.628365
     65          1           0       -5.729294    3.430914   -1.928173
     66          1           0       -4.687098    2.148220   -2.557138
     67          1           0       -4.144248    3.891962   -2.371832
     68          1           0       -4.330262    5.023982    1.368288
     69          1           0       -2.562936    5.108455    1.558733
     70          1           0       -4.059930    3.636036    3.261894
     71          1           0       -2.354280    3.599787    3.069784
     72          1           0       -3.361387    2.428152    2.230737
     73          1           0        3.015660    5.278993    0.785176
     74          1           0        1.536070    5.889461    0.118804
     75          1           0        2.774834    5.350072   -0.966655
     76          1           0        4.721171    0.345733    1.173175
     77          1           0        6.920848   -2.245105   -1.288660
     78          1           0        8.079965   -0.989731   -0.552519
     79          1           0        7.316089   -0.647378   -2.064470
 ---------------------------------------------------------------------

 SCF Done:  E(RCAM-B3LYP) =  -2034.91526724     A.U. after   19 cycles

 Excitation energies and oscillator strengths:

 Excited State   1:      Singlet-A      1.6630 eV  745.55 nm  f=0.3997  <S**2>=0.000
     155 ->158        -0.16588
     156 ->157         0.68885
     155 <-158        -0.10536
 This state for optimization and/or second-order correction.
 Total Energy, E(TD-HF/TD-DFT) =  -2034.85415350
 Copying the excited state density for this state as the 1-particle RhoCI density.

 Excited State   2:      Singlet-A      2.1713 eV  571.01 nm  f=0.1380  <S**2>=0.000
     155 ->157         0.65261
     156 ->158         0.25465

 Excited State   3:      Singlet-A      3.2256 eV  384.38 nm  f=0.0050  <S**2>=0.000
     152 ->157         0.11919
     153 ->157        -0.21292
     154 ->157         0.65141

 Excited State   4:      Singlet-A      3.3913 eV  365.59 nm  f=0.0070  <S**2>=0.000
     150 ->157         0.13649
     152 ->157        -0.26806
     153 ->157         0.54390
     154 ->157         0.23430
     156 ->158        -0.20751

 Excited State   5:      Singlet-A      3.4500 eV  359.37 nm  f=0.0033  <S**2>=0.000
     152 ->157         0.51630
     152 ->159         0.24078
     152 ->160        -0.19651
     153 ->157         0.26451
     153 ->159         0.15012
     153 ->160        -0.11907

 The electronic state is 1-A.
 Alpha  occ. eigenvalues --  -46.87766 -19.25768 -19.19642 -19.18775 -19.18477
 Alpha  occ. eigenvalues --  -14.42510 -14.42175 -14.39968 -14.38872 -10.39963
 Alpha  occ. eigenvalues --  -10.34748 -10.34659 -10.31984 -10.31919 -10.31511
 Alpha  occ. eigenvalues --  -10.31381 -10.31104 -10.30702 -10.30627 -10.30480
 Alpha  occ. eigenvalues --  -10.29274 -10.28973 -10.28965 -10.28889 -10.28830
 Alpha  occ. eigenvalues --  -10.28664 -10.28609 -10.28600 -10.28262 -10.27543
 Alpha  occ. eigenvalues --  -10.27519 -10.27396 -10.27018 -10.26979 -10.26848
 Alpha  occ. eigenvalues --  -10.26293 -10.25908 -10.25837 -10.25743 -10.25731
 Alpha  occ. eigenvalues --  -10.25639 -10.24714 -10.24572  -3.16507  -1.91412
 Alpha  occ. eigenvalues --   -1.90972  -1.90809  -1.16010  -1.10396  -1.07813
 Alpha  occ. eigenvalues --   -1.05771  -1.05062  -1.02835  -1.02281  -1.00617
 Alpha  occ. eigenvalues --   -0.92317  -0.89705  -0.88871  -0.88708  -0.87333
 Alpha  occ. eigenvalues --   -0.87012  -0.85892  -0.84782  -0.84064  -0.82952
 Alpha  occ. eigenvalues --   -0.82312  -0.81431  -0.80088  -0.78533  -0.77284
 Alpha  occ. eigenvalues --   -0.76822  -0.75977  -0.75510  -0.72774  -0.71964
 Alpha  occ. eigenvalues --   -0.70309  -0.69459  -0.67646  -0.67154  -0.65075
 Alpha  occ. eigenvalues --   -0.64674  -0.64340  -0.63834  -0.61952  -0.60240
 Alpha  occ. eigenvalues --   -0.59174  -0.59093  -0.58334  -0.57730  -0.57413
 Alpha  occ. eigenvalues --   -0.56293  -0.56000  -0.55494  -0.55312  -0.54816
 Alpha  occ. eigenvalues --   -0.54302  -0.53474  -0.53086  -0.52740  -0.52509
 Alpha  occ. eigenvalues --   -0.52141  -0.51158  -0.50845  -0.50744  -0.50398
 Alpha  occ. eigenvalues --   -0.50199  -0.49805  -0.49533  -0.48853  -0.48823
 Alpha  occ. eigenvalues --   -0.48556  -0.48460  -0.48089  -0.47730  -0.47578
 Alpha  occ. eigenvalues --   -0.47031  -0.46769  -0.46533  -0.46165  -0.46012
 Alpha  occ. eigenvalues --   -0.45713  -0.45453  -0.44955  -0.44546  -0.44366
 Alpha  occ. eigenvalues --   -0.44193  -0.43987  -0.43501  -0.43195  -0.42645
 Alpha  occ. eigenvalues --   -0.42515  -0.42212  -0.41862  -0.41768  -0.41216
 Alpha  occ. eigenvalues --   -0.40967  -0.40474  -0.39965  -0.39241  -0.39117
 Alpha  occ. eigenvalues --   -0.38906  -0.37343  -0.37140  -0.36777  -0.36533
 Alpha  occ. eigenvalues --   -0.36121  -0.34316  -0.34108  -0.33081  -0.31525
 Alpha  occ. eigenvalues --   -0.31281  -0.30412  -0.30328  -0.29184  -0.24262
 Alpha  occ. eigenvalues --   -0.21489
 Alpha virt. eigenvalues --   -0.09305  -0.01673   0.00319   0.02178   0.03356
 Alpha virt. eigenvalues --    0.04498   0.05149   0.05724   0.06602   0.07711
 Alpha virt. eigenvalues --    0.08140   0.09070   0.09226   0.09643   0.10032

 Mulliken charges:
               1
     1  Mg   0.821925
     2  C   -0.034878
     3  C   -0.084831
     4  C   -0.092022
     5  C   -0.082929
     6  N   -0.315203
     7  C   -0.028011
     8  C   -0.026139
     9  C   -0.059244
    10  C    0.072338
    11  C    0.101765
    12  C    0.032253
    13  C   -0.071736
    14  H    0.013222
    15  N   -0.388083
    16  C    0.146168
    17  C   -0.159974
    18  C   -0.011917
    19  C    0.129901
    20  C    0.113861
    21  C   -0.032705
    22  O   -0.218688
    23  C    0.065180
    24  N   -0.359056
    25  C    0.098850
    26  C   -0.032168
    27  C   -0.029467
    28  C    0.117563
    29  C    0.088734
    30  C    0.058019
    31  C   -0.014938
    32  N   -0.361763
    33  C    0.078465
    34  C   -0.138071
    35  C   -0.049911
    36  C    0.145623
    37  C    0.107319
    38  C    0.081090
    39  O   -0.199539
    40  C    0.010810
    41  C    0.215597
    42  O   -0.257958
    43  O   -0.336558
    44  C    0.163614
    45  H   -0.036026
    46  H   -0.007722
    47  H   -0.025771
    48  H    0.029539
    49  H    0.011471
    50  H    0.024527
    51  H   -0.000550
    52  H    0.027433
    53  H    0.010938
    54  H    0.038114
    55  H    0.031223
    56  H    0.033887
    57  H    0.036466
    58  H    0.016928
    59  H    0.043190
    60  H    0.003788
    61  H    0.037682
    62  H    0.035532
    63  H    0.017659
    64  H   -0.009548
    65  H    0.013987
    66  H    0.029854
    67  H    0.014464
    68  H    0.011913
    69  H    0.005902
    70  H    0.007027
    71  H    0.012995
    72  H    0.025273
    73  H    0.041100
    74  H    0.006942
    75  H    0.034828
    76  H    0.049548
    77  H    0.048465
    78  H    0.042888
    79  H    0.059546
 Sum of Mulliken charges =  -0.00000

 Dipole moment (field-independent basis, Debye):
    X=             -1.1014    Y=             -3.4500    Z=              1.7831  Tot=              4.0367
 Quadrupole moment (field-independent basis, Debye-Ang):
   XX=           -279.3796   YY=           -223.1776   ZZ=           -261.6227
   XY=            -28.3219   XZ=             -0.9544   YZ=             -0.0392

 Normal termination of Gaussian 16 at Tue Oct 12 13:37:26 2021.
