 Gaussian 16, Revision A.03,
 Gaussian 16:  ES64L-G16RevA.03 25-Dec-2016

 -----------------------------------
 #p cam-b3lyp/Def2SVP td=(nstates=5)
 -----------------------------------

 --------------------------------
 TDDFT excited states in gaussian
 --------------------------------
 Symbolic Z-matrix:
 Charge =  0 Multiplicity = 1

                         Standard orientation:
 ---------------------------------------------------------------------
 Center     Atomic      Atomic             Coordinates (Angstroms)
 Number     Number       Type             X           Y           Z
 ---------------------------------------------------------------------
      1         12           0      -20.511780   -0.520805    0.188885
      2          6           0      -19.677320    2.510753   -1.418460
      3          6           0      -20.601498    1.106645    3.192469
      4          6           0      -20.611842   -3.471409    1.656540
      5          6           0      -19.910159   -2.171309   -2.893280
      6          7           0      -20.282460    1.612053    0.767894
      7          6           0      -19.970413    2.608183   -0.037415
      8          6           0      -20.248754    3.911920    0.688666
      9          6           0      -20.104721    3.515164    2.208407
     10          6           0      -20.334845    1.962974    2.082200
     11          6           0      -18.728141    4.001661    2.801787
     12          6           0      -21.684183    4.439270    0.433887
     13          6           0      -21.908379    5.991132    0.708415
     14          1           0      -20.784528    6.892882    1.226069
     15          7           0      -20.797386   -1.083380    2.095353
     16          6           0      -20.891555   -0.268361    3.252509
     17          6           0      -21.188194   -1.142423    4.411445
     18          6           0      -21.106267   -2.508660    3.960322
     19          6           0      -20.829869   -2.449767    2.508519
     20          6           0      -21.503541   -0.633602    5.773711
     21          6           0      -21.286450   -3.893829    4.695006
     22          8           0      -21.271540   -4.991342    4.121186
     23          6           0      -21.342593   -3.900565    6.195186
     24          7           0      -20.176092   -2.568615   -0.505704
     25          6           0      -20.327614   -3.601105    0.280528
     26          6           0      -20.190670   -4.941140   -0.386302
     27          6           0      -19.950577   -4.538223   -1.883740
     28          6           0      -20.108136   -2.986719   -1.799081
     29          6           0      -19.154249   -5.823377    0.315836
     30          6           0      -20.941603   -5.139290   -2.872542
     31          6           0      -20.358769   -5.625557   -4.247700
     32          7           0      -19.975955   -0.002996   -1.849111
     33          6           0      -19.813828   -0.798783   -3.000107
     34          6           0      -19.654262    0.055615   -4.126204
     35          6           0      -19.413342    1.352411   -3.570259
     36          6           0      -19.664987    1.273793   -2.223942
     37          6           0      -19.770201   -0.359600   -5.564814
     38          6           0      -19.181358    2.800482   -3.788697
     39          8           0      -18.963029    3.409407   -4.815343
     40          6           0      -19.098502    3.504511   -2.351595
     41          6           0      -19.580409    4.916336   -2.426506
     42          8           0      -20.675090    5.282213   -2.738718
     43          8           0      -18.537738    5.826990   -2.172738
     44          6           0      -18.620780    7.134738   -2.857097
     45          1           0      -20.456972    1.512645    4.196255
     46          1           0      -20.772171   -4.489066    2.016973
     47          1           0      -19.806407   -2.705420   -3.840150
     48          1           0      -19.555890    4.605779    0.212757
     49          1           0      -20.901088    3.949645    2.813600
     50          1           0      -18.141762    4.502962    2.032478
     51          1           0      -18.190693    3.071342    2.985649
     52          1           0      -18.810954    4.698979    3.635542
     53          1           0      -22.303756    3.870246    1.128230
     54          1           0      -21.944099    4.174682   -0.591008
     55          1           0      -22.746258    6.023778    1.406492
     56          1           0      -22.286720    6.385120   -0.235154
     57          1           0      -21.692318    0.430219    5.913186
     58          1           0      -20.695028   -0.816124    6.481037
     59          1           0      -22.422868   -1.157487    6.036591
     60          1           0      -22.342814   -3.755933    6.603247
     61          1           0      -20.653113   -3.080141    6.398002
     62          1           0      -20.898785   -4.845975    6.505964
     63          1           0      -21.190135   -5.355772   -0.255600
     64          1           0      -18.956616   -4.785443   -2.254567
     65          1           0      -18.393149   -5.263339    0.860018
     66          1           0      -18.641144   -6.351406   -0.486941
     67          1           0      -19.605489   -6.529442    1.013289
     68          1           0      -21.732020   -4.429764   -3.116729
     69          1           0      -21.481817   -5.879395   -2.282383
     70          1           0      -19.315197   -5.333825   -4.364570
     71          1           0      -20.953288   -5.097982   -4.993271
     72          1           0      -20.415104   -6.685459   -4.497934
     73          1           0      -19.142546   -1.246864   -5.649344
     74          1           0      -19.416291    0.381668   -6.281546
     75          1           0      -20.793235   -0.669640   -5.780203
     76          1           0      -18.048970    3.663740   -2.106223
     77          1           0      -18.735759    7.903184   -2.092510
     78          1           0      -19.436795    7.173590   -3.579539
     79          1           0      -17.665843    7.247887   -3.370252
     80         12           0       19.733564   -0.731876    0.012884
     81          6           0       21.707674    2.290472    0.289793
     82          6           0       17.686504    0.667630    2.083707
     83          6           0       18.231022   -3.660182   -0.160137
     84          6           0       22.521239   -2.395618   -1.621275
     85          7           0       19.671306    1.353480    0.974757
     86          6           0       20.539380    2.425484    0.985008
     87          6           0       20.018436    3.503693    1.865324
     88          6           0       19.009553    2.766509    2.783115
     89          6           0       18.786948    1.489852    1.938373
     90          6           0       19.561045    2.411440    4.181356
     91          6           0       19.254736    4.558719    1.008228
     92          6           0       19.536268    6.074300    1.344917
     93          1           0       19.208937    7.194969    0.279561
     94          7           0       18.058375   -1.383353    0.872718
     95          6           0       17.270196   -0.648096    1.610864
     96          6           0       16.081226   -1.422415    1.913289
     97          6           0       16.228030   -2.602727    1.147131
     98          6           0       17.559742   -2.585479    0.605375
     99          6           0       14.934766   -0.819957    2.745562
    100          6           0       15.208939   -3.696901    0.991431
    101          8           0       15.461967   -4.665532    0.339438
    102          6           0       13.845848   -3.512016    1.574254
    103          7           0       20.479804   -2.862461   -0.568882
    104          6           0       19.521561   -3.782881   -0.653920
    105          6           0       19.946655   -4.958958   -1.450311
    106          6           0       21.435202   -4.587988   -1.741884
    107          6           0       21.542932   -3.158242   -1.281510
    108          6           0       19.700972   -6.386864   -0.842879
    109          6           0       21.790097   -4.810941   -3.263803
    110          6           0       22.667748   -6.024013   -3.680483
    111          7           0       21.634320   -0.269958   -0.553642
    112          6           0       22.637118   -0.966859   -1.264118
    113          6           0       23.789141   -0.070536   -1.493255
    114          6           0       23.438991    1.150271   -0.932132
    115          6           0       22.193165    1.008198   -0.344908
    116          6           0       25.149579   -0.501535   -2.092866
    117          6           0       23.963326    2.538558   -0.725489
    118          8           0       24.969085    3.113922   -1.068370
    119          6           0       22.919260    3.295967    0.238357
    120          6           0       22.655036    4.615326   -0.205361
    121          8           0       21.708051    4.878198   -0.959788
    122          8           0       23.538266    5.606087    0.212128
    123          6           0       23.200277    7.037456   -0.056962
    124          1           0       16.894875    1.037996    2.737438
    125          1           0       17.706361   -4.611075   -0.273251
    126          1           0       23.363629   -2.877826   -2.119585
    127          1           0       20.815600    3.873379    2.510805
    128          1           0       18.071128    3.281770    2.987041
    129          1           0       18.966530    2.891135    4.959450
    130          1           0       20.587718    2.774571    4.217619
    131          1           0       19.615233    1.342844    4.391255
    132          1           0       18.200428    4.355513    1.196853
    133          1           0       19.476022    4.312400   -0.030063
    134          1           0       20.579716    6.154493    1.648481
    135          1           0       18.905433    6.233393    2.220276
    136          1           0       14.058648   -0.722381    2.103158
    137          1           0       15.152928    0.121987    3.247628
    138          1           0       14.586832   -1.543223    3.482523
    139          1           0       13.315398   -2.667792    1.134571
    140          1           0       13.794918   -3.239620    2.628382
    141          1           0       13.242803   -4.388651    1.336403
    142          1           0       19.402038   -4.929686   -2.394055
    143          1           0       22.083278   -5.143518   -1.063685
    144          1           0       19.124493   -6.233746    0.068849
    145          1           0       20.572132   -7.027056   -0.699427
    146          1           0       19.110718   -6.964127   -1.554746
    147          1           0       22.338827   -3.942060   -3.628201
    148          1           0       20.845296   -4.667703   -3.788132
    149          1           0       22.225543   -6.521256   -4.543639
    150          1           0       22.762444   -6.709770   -2.838366
    151          1           0       23.662165   -5.693215   -3.982558
    152          1           0       24.955649   -1.291603   -2.817778
    153          1           0       25.750049   -0.969965   -1.312706
    154          1           0       25.673788    0.331489   -2.561816
    155          1           0       23.355330    3.334951    1.236135
    156          1           0       22.286840    7.329415    0.463124
    157          1           0       23.293670    7.278549   -1.115174
    158          1           0       23.912040    7.633574    0.513983
 ---------------------------------------------------------------------

 SCF Done:  E(RCAM-B3LYP) =  -4069.77137599     A.U. after   19 cycles

 Excitation energies and oscillator strengths:

 Excited State   1:      Singlet-A      1.7381 eV  713.32 nm  f=0.3800  <S**2>=0.000
     310 -> 316        0.16387
     311 -> 313        0.68894
     310 <- 316        0.10278
 This state for optimization and/or second-order correction.
 Total Energy, E(TD-HF/TD-DFT) =  -4069.70750115
 Copying the excited state density for this state as the 1-particle RhoCI density.

 Excited State   2:      Singlet-A      1.7949 eV  690.78 nm  f=0.3734  <S**2>=0.000
     309 -> 315       -0.18889
     312 -> 314        0.68030
     309 <- 315       -0.10306

 Excited State   3:      Singlet-A      2.1693 eV  571.55 nm  f=0.0816  <S**2>=0.000
     309 -> 314        0.64187
     312 -> 315        0.27240

 Excited State   4:      Singlet-A      2.1720 eV  570.83 nm  f=0.2428  <S**2>=0.000
     310 -> 313        0.67319
     311 -> 316       -0.20163

 Excited State   5:      Singlet-A      3.1035 eV  399.49 nm  f=0.0000  <S**2>=0.000
     312 -> 313        0.70710

 The electronic state is 1-A.
 Alpha  occ. eigenvalues --  -46.89448 -46.88558 -19.23977 -19.23285 -19.20326
 Alpha  occ. eigenvalues --  -19.19648 -19.19594 -19.19267 -19.18536 -19.18384
 Alpha  occ. eigenvalues --  -14.41987 -14.41768 -14.41759 -14.40179 -14.39830
 Alpha  occ. eigenvalues --  -14.39780 -14.39762 -14.38023 -10.38566 -10.38524
 Alpha  occ. eigenvalues --  -10.36816 -10.35963 -10.35139 -10.34832 -10.32233
 Alpha  occ. eigenvalues --  -10.31625 -10.31567 -10.31146 -10.31030 -10.30901
 Alpha  occ. eigenvalues --  -10.30834 -10.30654 -10.30629 -10.30604 -10.30115
 Alpha  occ. eigenvalues --  -10.30046 -10.30031 -10.29846 -10.29751 -10.29380
 Alpha  occ. eigenvalues --  -10.29323 -10.29227 -10.28951 -10.28718 -10.28252
 Alpha  occ. eigenvalues --  -10.28227 -10.28208 -10.28195 -10.28115 -10.28110
 Alpha  occ. eigenvalues --  -10.28010 -10.28000 -10.27914 -10.27911 -10.27875
 Alpha  occ. eigenvalues --  -10.27713 -10.27651 -10.27644 -10.27613 -10.27406
 Alpha  occ. eigenvalues --  -10.27271 -10.27170 -10.27148 -10.26919 -10.26811
 Alpha  occ. eigenvalues --  -10.26717 -10.26531 -10.26364 -10.26300 -10.26289
 Alpha  occ. eigenvalues --  -10.26238 -10.26174 -10.26099 -10.26055 -10.25996
 Alpha  occ. eigenvalues --  -10.25927 -10.25890 -10.25885 -10.25735 -10.25716
 Alpha  occ. eigenvalues --  -10.25635 -10.25539 -10.25467 -10.25449 -10.25109
 Alpha  occ. eigenvalues --  -10.24443  -3.17971  -3.17019  -1.92858  -1.92434
 Alpha  occ. eigenvalues --   -1.92271  -1.91932  -1.91476  -1.91315  -1.15219
 Alpha  occ. eigenvalues --   -1.14190  -1.12176  -1.10856  -1.10503  -1.09560
 Alpha  occ. eigenvalues --   -1.07016  -1.06417  -1.05662  -1.05125  -1.04963
 Alpha  occ. eigenvalues --   -1.04890  -1.04539  -1.01713  -1.00993  -1.00989
 Alpha  occ. eigenvalues --   -0.91836  -0.91264  -0.89301  -0.89265  -0.88921
 Alpha  occ. eigenvalues --   -0.88877  -0.87999  -0.87805  -0.87765  -0.87644
 Alpha  occ. eigenvalues --   -0.87614  -0.87255  -0.85459  -0.85201  -0.84350
 Alpha  occ. eigenvalues --   -0.84001  -0.83707  -0.83063  -0.82887  -0.82148
 Alpha  occ. eigenvalues --   -0.82023  -0.81716  -0.80962  -0.80692  -0.80410
 Alpha  occ. eigenvalues --   -0.79885  -0.78776  -0.78619  -0.77207  -0.77130
 Alpha  occ. eigenvalues --   -0.76706  -0.76397  -0.76228  -0.75419  -0.75413
 Alpha  occ. eigenvalues --   -0.75169  -0.72782  -0.72526  -0.71716  -0.71108
 Alpha  occ. eigenvalues --   -0.69846  -0.69223  -0.68789  -0.68641  -0.67943
 Alpha  occ. eigenvalues --   -0.67344  -0.67271  -0.66650  -0.66117  -0.66062
 Alpha  occ. eigenvalues --   -0.65629  -0.65213  -0.64980  -0.64543  -0.64229
 Alpha  occ. eigenvalues --   -0.63484  -0.61445  -0.61067  -0.61049  -0.60223
 Alpha  occ. eigenvalues --   -0.60112  -0.59122  -0.59069  -0.58621  -0.58075
 Alpha  occ. eigenvalues --   -0.58059  -0.57575  -0.57561  -0.57186  -0.56849
 Alpha  occ. eigenvalues --   -0.56557  -0.56476  -0.55750  -0.55513  -0.55455
 Alpha  occ. eigenvalues --   -0.55099  -0.54285  -0.54015  -0.53880  -0.53700
 Alpha  occ. eigenvalues --   -0.53397  -0.53219  -0.53137  -0.53041  -0.52843
 Alpha  occ. eigenvalues --   -0.52645  -0.52436  -0.52198  -0.52038  -0.51989
 Alpha  occ. eigenvalues --   -0.51857  -0.51750  -0.51382  -0.51320  -0.51219
 Alpha  occ. eigenvalues --   -0.50928  -0.50556  -0.50528  -0.50245  -0.50194
 Alpha  occ. eigenvalues --   -0.50093  -0.50050  -0.49861  -0.49709  -0.49565
 Alpha  occ. eigenvalues --   -0.49300  -0.49281  -0.48958  -0.48841  -0.48746
 Alpha  occ. eigenvalues --   -0.48671  -0.48351  -0.48314  -0.48044  -0.47947
 Alpha  occ. eigenvalues --   -0.47858  -0.47782  -0.47561  -0.47539  -0.47447
 Alpha  occ. eigenvalues --   -0.47335  -0.47040  -0.46579  -0.46511  -0.46437
 Alpha  occ. eigenvalues --   -0.46239  -0.46170  -0.45791  -0.45579  -0.45536
 Alpha  occ. eigenvalues --   -0.45466  -0.45408  -0.45061  -0.44926  -0.44895
 Alpha  occ. eigenvalues --   -0.44785  -0.44557  -0.44471  -0.44271  -0.44022
 Alpha  occ. eigenvalues --   -0.43962  -0.43739  -0.43445  -0.43347  -0.43339
 Alpha  occ. eigenvalues --   -0.43094  -0.42997  -0.42757  -0.42754  -0.42671
 Alpha  occ. eigenvalues --   -0.42620  -0.42274  -0.42222  -0.42031  -0.41881
 Alpha  occ. eigenvalues --   -0.41709  -0.41571  -0.41374  -0.41306  -0.41168
 Alpha  occ. eigenvalues --   -0.41048  -0.40996  -0.40637  -0.40372  -0.40200
 Alpha  occ. eigenvalues --   -0.40155  -0.40020  -0.39899  -0.39858  -0.39077
 Alpha  occ. eigenvalues --   -0.38805  -0.38331  -0.37743  -0.37668  -0.37579
 Alpha  occ. eigenvalues --   -0.37043  -0.36527  -0.36397  -0.36066  -0.35774
 Alpha  occ. eigenvalues --   -0.35733  -0.35422  -0.34191  -0.33815  -0.33600
 Alpha  occ. eigenvalues --   -0.33119  -0.33058  -0.32612  -0.31921  -0.31851
 Alpha  occ. eigenvalues --   -0.31532  -0.31209  -0.31104  -0.30748  -0.30495
 Alpha  occ. eigenvalues --   -0.29941  -0.29685  -0.28319  -0.23746  -0.23540
 Alpha  occ. eigenvalues --   -0.21628  -0.21348
 Alpha virt. eigenvalues --   -0.09076  -0.08508  -0.02044  -0.00358  -0.00144
 Alpha virt. eigenvalues --    0.00933   0.02315   0.02655   0.02700   0.02989
 Alpha virt. eigenvalues --    0.04529   0.04803   0.05151   0.05748   0.06184

 Mulliken charges:
               1
     1  Mg   0.811759
     2  C    0.065954
     3  C   -0.080755
     4  C   -0.049806
     5  C   -0.080329
     6  N   -0.243710
     7  C   -0.044136
     8  C   -0.078535
     9  C   -0.052588
    10  C    0.070662
    11  C    0.081546
    12  C    0.031109
    13  C   -0.039726
    14  H    0.027202
    15  N   -0.472444
    16  C    0.156199
    17  C   -0.129873
    18  C   -0.044007
    19  C    0.185431
    20  C    0.083037
    21  C    0.032471
    22  O   -0.206802
    23  C    0.049076
    24  N   -0.232696
    25  C   -0.065543
    26  C    0.007719
    27  C   -0.051192
    28  C    0.034434
    29  C    0.080386
    30  C    0.038129
    31  C   -0.000211
    32  N   -0.356288
    33  C    0.124441
    34  C   -0.178839
    35  C    0.006952
    36  C    0.040643
    37  C    0.124968
    38  C    0.058981
    39  O   -0.165388
    40  C   -0.025082
    41  C    0.157026
    42  O   -0.178211
    43  O   -0.379243
    44  C    0.174381
    45  H   -0.025492
    46  H   -0.012904
    47  H   -0.046836
    48  H    0.010035
    49  H    0.010008
    50  H    0.016345
    51  H    0.011386
    52  H    0.026180
    53  H    0.000555
    54  H    0.030987
    55  H    0.019288
    56  H    0.041718
    57  H    0.019248
    58  H    0.042620
    59  H    0.038276
    60  H    0.056942
    61  H    0.022311
    62  H    0.039022
    63  H    0.015484
    64  H    0.015268
    65  H    0.024387
    66  H    0.009851
    67  H    0.034417
    68  H    0.006815
    69  H   -0.002323
    70  H    0.016782
    71  H    0.017358
    72  H    0.022503
    73  H    0.015603
    74  H    0.033881
    75  H    0.028267
    76  H    0.049774
    77  H    0.034570
    78  H    0.052997
    79  H    0.037577
    80  Mg   0.836519
    81  C   -0.017227
    82  C   -0.043215
    83  C   -0.045030
    84  C   -0.101687
    85  N   -0.239110
    86  C   -0.040155
    87  C   -0.024262
    88  C   -0.084521
    89  C    0.050324
    90  C    0.081899
    91  C    0.071410
    92  C   -0.043354
    93  H    0.034280
    94  N   -0.366940
    95  C    0.065585
    96  C   -0.128898
    97  C   -0.029969
    98  C    0.104894
    99  C    0.110695
   100  C    0.002121
   101  O   -0.168072
   102  C    0.040322
   103  N   -0.199796
   104  C   -0.011560
   105  C   -0.045239
   106  C    0.011795
   107  C    0.027143
   108  C    0.070635
   109  C    0.014215
   110  C    0.026935
   111  N   -0.397681
   112  C    0.109384
   113  C   -0.209675
   114  C   -0.008110
   115  C    0.122775
   116  C    0.119310
   117  C    0.086579
   118  O   -0.138057
   119  C   -0.010428
   120  C    0.199184
   121  O   -0.246405
   122  O   -0.357448
   123  C    0.195816
   124  H   -0.050863
   125  H   -0.004302
   126  H   -0.024477
   127  H   -0.003117
   128  H    0.009580
   129  H    0.019431
   130  H    0.006402
   131  H    0.023207
   132  H    0.001098
   133  H    0.050128
   134  H    0.026194
   135  H    0.014062
   136  H    0.026321
   137  H    0.029671
   138  H    0.019791
   139  H    0.028417
   140  H    0.022288
   141  H    0.029387
   142  H    0.020295
   143  H    0.004781
   144  H    0.028982
   145  H    0.015500
   146  H    0.009558
   147  H   -0.002214
   148  H   -0.009384
   149  H    0.017911
   150  H    0.014454
   151  H    0.016690
   152  H    0.008499
   153  H    0.029950
   154  H    0.038367
   155  H    0.050209
   156  H    0.028688
   157  H    0.055474
   158  H    0.024043
 Sum of Mulliken charges =  -0.00000

 Dipole moment (field-independent basis, Debye):
    X=             -4.0359    Y=             -2.8507    Z=              8.6976  Tot=             10.0032
 Quadrupole moment (field-independent basis, Debye-Ang):
   XX=           -641.8775   YY=           -502.8637   ZZ=           -491.5928
   XY=             17.8319   XZ=            -47.3440   YZ=             46.9637

 Normal termination of Gaussian 16 at Wed Sep 15 02:12:07 2021.
