 Gaussian 16, Revision A.03,
 Gaussian 16:  ES64L-G16RevA.03 25-Dec-2016

 ----------------------------------------------------------
 #p cam-b3lyp/Def2SVP td=(nstates=5) density=(transition=1)
 ----------------------------------------------------------

 --------------------------------
 TDDFT excited states in gaussian
 --------------------------------
 Symbolic Z-matrix:
 Charge =  0 Multiplicity = 1

                         Standard orientation:
 ---------------------------------------------------------------------
 Center     Atomic      Atomic             Coordinates (Angstroms)
 Number     Number       Type             X           Y           Z
 ---------------------------------------------------------------------
      1         12           0      -28.953686    0.298686   -0.110330
      2          6           0      -25.840117   -1.149080    0.098317
      3          6           0      -30.498084   -2.756043   -0.006093
      4          6           0      -32.115025    1.807689   -0.126346
      5          6           0      -27.591465    3.384722    0.629229
      6          7           0      -28.172439   -1.691532    0.250185
      7          6           0      -26.850516   -2.128810    0.130202
      8          6           0      -26.744699   -3.645859    0.305250
      9          6           0      -28.229276   -4.030637    0.081660
     10          6           0      -29.076142   -2.746438    0.194698
     11          6           0      -28.453376   -4.862375   -1.200166
     12          6           0      -26.198113   -4.036794    1.692612
     13          6           0      -25.154297   -5.205607    1.738060
     14          1           0      -25.162706   -6.041173    2.958177
     15          7           0      -30.963356   -0.382259   -0.125776
     16          6           0      -31.390283   -1.665010   -0.171673
     17          6           0      -32.788979   -1.778599   -0.458301
     18          6           0      -33.269367   -0.470739   -0.635910
     19          6           0      -32.075080    0.415986   -0.316027
     20          6           0      -33.519186   -3.103035   -0.690020
     21          6           0      -34.734927   -0.040493   -1.006412
     22          8           0      -35.618121   -0.932546   -1.083317
     23          6           0      -35.151814    1.448584   -1.373131
     24          7           0      -29.770205    2.269000    0.504444
     25          6           0      -31.047791    2.648991    0.259311
     26          6           0      -31.253822    4.136266    0.390116
     27          6           0      -29.831711    4.662645    0.680470
     28          6           0      -28.994843    3.386169    0.563639
     29          6           0      -31.976941    4.805497   -0.825478
     30          6           0      -29.726012    5.474788    2.058120
     31          6           0      -29.614632    6.995353    1.897474
     32          7           0      -27.104149    1.027024    0.232346
     33          6           0      -26.641291    2.334484    0.498567
     34          6           0      -25.175287    2.356392    0.409715
     35          6           0      -24.853434    1.025927    0.180335
     36          6           0      -26.044564    0.282236    0.212236
     37          6           0      -24.222359    3.488278    0.556010
     38          6           0      -23.722710    0.106491   -0.010944
     39          8           0      -22.523146    0.311081   -0.259618
     40          6           0      -24.323655   -1.352250   -0.117864
     41          6           0      -24.011489   -1.983618   -1.467987
     42          8           0      -24.108490   -1.463938   -2.584190
     43          8           0      -23.538795   -3.219172   -1.138665
     44          6           0      -22.985021   -4.012309   -2.223288
     45          1           0      -31.002067   -3.724329    0.020315
     46          1           0      -33.028231    2.401760   -0.201838
     47          1           0      -27.095840    4.331644    0.852401
     48          1           0      -26.064965   -4.053211   -0.443904
     49          1           0      -28.449006   -4.676813    0.931472
     50          1           0      -27.616660   -5.402401   -1.643261
     51          1           0      -28.740545   -4.142602   -1.966543
     52          1           0      -29.236623   -5.609603   -1.074758
     53          1           0      -26.986758   -4.235314    2.417864
     54          1           0      -25.796203   -3.110827    2.104601
     55          1           0      -24.153903   -4.790410    1.616201
     56          1           0      -25.379520   -5.899456    0.926948
     57          1           0      -33.964097   -3.020858   -1.681428
     58          1           0      -34.139837   -3.336619    0.175128
     59          1           0      -32.720019   -3.838963   -0.778129
     60          1           0      -35.346251    1.948278   -0.424856
     61          1           0      -36.074317    1.370945   -1.948037
     62          1           0      -34.398574    1.811627   -2.072890
     63          1           0      -31.893911    4.310405    1.255118
     64          1           0      -29.363136    5.253018   -0.106582
     65          1           0      -31.476328    5.722658   -1.134587
     66          1           0      -33.016386    5.052997   -0.610845
     67          1           0      -32.049827    4.082332   -1.636723
     68          1           0      -28.834528    5.213678    2.628219
     69          1           0      -30.552878    5.204348    2.714730
     70          1           0      -30.197456    7.490107    2.674615
     71          1           0      -29.998396    7.290892    0.921248
     72          1           0      -28.593754    7.372613    1.954432
     73          1           0      -24.812144    4.400498    0.646283
     74          1           0      -23.435201    3.411173   -0.194278
     75          1           0      -23.775596    3.374466    1.544291
     76          1           0      -23.984587   -2.001763    0.689585
     77          1           0      -23.589144   -4.002752   -3.131395
     78          1           0      -22.765267   -5.058533   -2.010712
     79          1           0      -22.002387   -3.625855   -2.495024
     80         12           0       28.473904    0.614937   -0.535067
     81          6           0       27.956243   -2.623106    0.609550
     82          6           0       25.776887    1.686418    1.498792
     83          6           0       29.608104    3.754713   -0.674882
     84          6           0       31.509854   -0.501707   -1.936775
     85          7           0       27.218986   -0.355968    1.206948
     86          6           0       27.061858   -1.720696    1.241040
     87          6           0       25.954124   -2.122829    2.163422
     88          6           0       25.099824   -0.775149    2.242876
     89          6           0       26.074661    0.299607    1.644232
     90          6           0       23.678056   -0.795659    1.484701
     91          6           0       26.548602   -2.734662    3.534442
     92          6           0       25.671040   -3.657303    4.216228
     93          1           0       25.382268   -3.268067    5.681565
     94          7           0       27.721423    2.479353    0.123433
     95          6           0       26.585567    2.711536    0.948625
     96          6           0       26.439868    4.149741    1.097044
     97          6           0       27.528029    4.791495    0.457167
     98          6           0       28.311737    3.664084   -0.150666
     99          6           0       25.388689    4.749440    1.954654
    100          6           0       27.787599    6.355767    0.488989
    101          8           0       26.969324    7.042782    1.098438
    102          6           0       28.795386    7.027340   -0.437525
    103          7           0       30.334163    1.431504   -1.120968
    104          6           0       30.464853    2.780828   -1.185022
    105          6           0       31.970207    3.254593   -1.675824
    106          6           0       32.500889    1.871472   -2.289785
    107          6           0       31.423074    0.848611   -1.809949
    108          6           0       32.011402    4.396663   -2.760538
    109          6           0       33.896546    1.489439   -1.793176
    110          6           0       35.061742    1.274894   -2.788728
    111          7           0       29.375490   -1.207609   -0.894661
    112          6           0       30.565634   -1.496502   -1.496733
    113          6           0       30.698956   -2.922415   -1.614383
    114          6           0       29.672617   -3.396442   -0.713380
    115          6           0       28.938784   -2.277196   -0.284767
    116          6           0       31.837890   -3.663759   -2.252731
    117          6           0       29.172249   -4.584748   -0.054299
    118          8           0       29.415284   -5.735258   -0.258382
    119          6           0       27.940947   -4.166530    0.840276
    120          6           0       26.583746   -4.744298    0.381994
    121          8           0       26.158784   -4.688558   -0.751966
    122          8           0       25.974070   -5.426457    1.455080
    123          6           0       24.788309   -6.170937    1.155607
    124          1           0       24.894030    1.942261    2.087010
    125          1           0       30.130266    4.704316   -0.541786
    126          1           0       32.451412   -0.803024   -2.399520
    127          1           0       25.227012   -2.775835    1.679620
    128          1           0       24.926687   -0.548887    3.295602
    129          1           0       22.939405   -0.599379    2.261751
    130          1           0       23.479831   -1.740831    0.980219
    131          1           0       23.700090    0.032538    0.775798
    132          1           0       26.688153   -1.853599    4.160600
    133          1           0       27.519516   -3.096201    3.194666
    134          1           0       26.167513   -4.626253    4.179951
    135          1           0       24.699868   -3.684075    3.722130
    136          1           0       24.626282    4.019548    2.226278
    137          1           0       24.841488    5.508917    1.395646
    138          1           0       25.808483    5.137584    2.882970
    139          1           0       29.831252    6.757016   -0.230158
    140          1           0       28.653967    8.104778   -0.346384
    141          1           0       28.526360    6.754752   -1.458089
    142          1           0       32.477919    3.474839   -0.737171
    143          1           0       32.432499    1.794302   -3.375116
    144          1           0       32.444490    5.298238   -2.328276
    145          1           0       30.996527    4.617908   -3.093128
    146          1           0       32.627906    4.024959   -3.579693
    147          1           0       33.862594    0.634674   -1.118039
    148          1           0       34.323849    2.176499   -1.062969
    149          1           0       35.431956    0.257672   -2.919269
    150          1           0       35.897510    1.830692   -2.362978
    151          1           0       34.804229    1.639989   -3.783686
    152          1           0       31.487922   -4.678228   -2.445313
    153          1           0       32.636443   -3.958687   -1.572700
    154          1           0       32.291810   -3.164479   -3.108348
    155          1           0       28.189944   -4.598413    1.810000
    156          1           0       24.295642   -6.144577    2.128098
    157          1           0       24.998968   -7.228073    0.994734
    158          1           0       24.263673   -5.741425    0.303095
 ---------------------------------------------------------------------

 SCF Done:  E(RCAM-B3LYP) =  -4069.79882146     A.U. after   19 cycles

 Excitation energies and oscillator strengths:

 Excited State   1:      Singlet-A      1.6846 eV  736.00 nm  f=0.3882  <S**2>=0.000
     309 -> 316       -0.17409
     311 -> 313        0.68815
     309 <- 316       -0.10834
 This state for optimization and/or second-order correction.
 Total Energy, E(TD-HF/TD-DFT) =  -4069.73691515
 Copying the excited state density for this state as the 1-particle RhoCI density.

 Excited State   2:      Singlet-A      1.7088 eV  725.56 nm  f=0.3643  <S**2>=0.000
     310 -> 315        0.17445
     312 -> 314        0.68608
     310 <- 315        0.10518

 Excited State   3:      Singlet-A      2.2457 eV  552.09 nm  f=0.1082  <S**2>=0.000
     309 -> 313        0.63667
     311 -> 316        0.29179

 Excited State   4:      Singlet-A      2.2476 eV  551.64 nm  f=0.0925  <S**2>=0.000
     310 -> 314        0.62525
     312 -> 315       -0.31540

 Excited State   5:      Singlet-A      3.1848 eV  389.30 nm  f=0.0000  <S**2>=0.000
     312 -> 313        0.70711

 The electronic state is 1-A.
 Alpha  occ. eigenvalues --  -46.89796 -46.89181 -19.26368 -19.25127 -19.20739
 Alpha  occ. eigenvalues --  -19.20271 -19.19692 -19.19691 -19.18453 -19.18254
 Alpha  occ. eigenvalues --  -14.42414 -14.42307 -14.42179 -14.42008 -14.40234
 Alpha  occ. eigenvalues --  -14.40193 -14.39115 -14.39077 -10.40078 -10.39962
 Alpha  occ. eigenvalues --  -10.36683 -10.36375 -10.34758 -10.34015 -10.32206
 Alpha  occ. eigenvalues --  -10.32056 -10.31807 -10.31616 -10.31599 -10.31453
 Alpha  occ. eigenvalues --  -10.31191 -10.31184 -10.31100 -10.30965 -10.30556
 Alpha  occ. eigenvalues --  -10.30486 -10.30471 -10.30406 -10.29681 -10.29649
 Alpha  occ. eigenvalues --  -10.29277 -10.28820 -10.28645 -10.28504 -10.28504
 Alpha  occ. eigenvalues --  -10.28499 -10.28485 -10.28475 -10.28356 -10.28217
 Alpha  occ. eigenvalues --  -10.28164 -10.28159 -10.28130 -10.28112 -10.28026
 Alpha  occ. eigenvalues --  -10.28021 -10.27978 -10.27920 -10.27807 -10.27749
 Alpha  occ. eigenvalues --  -10.27717 -10.27647 -10.27617 -10.27615 -10.27478
 Alpha  occ. eigenvalues --  -10.27301 -10.27036 -10.26995 -10.26921 -10.26861
 Alpha  occ. eigenvalues --  -10.26741 -10.26690 -10.26576 -10.26434 -10.26427
 Alpha  occ. eigenvalues --  -10.26393 -10.26287 -10.26286 -10.26060 -10.25979
 Alpha  occ. eigenvalues --  -10.25856 -10.25769 -10.25693 -10.25455 -10.24628
 Alpha  occ. eigenvalues --  -10.24593  -3.18214  -3.17713  -1.93064  -1.92724
 Alpha  occ. eigenvalues --   -1.92579  -1.92481  -1.92155  -1.92043  -1.16843
 Alpha  occ. eigenvalues --   -1.16076  -1.10792  -1.10287  -1.08732  -1.08624
 Alpha  occ. eigenvalues --   -1.08366  -1.07758  -1.04908  -1.04681  -1.04010
 Alpha  occ. eigenvalues --   -1.03526  -1.02911  -1.02380  -1.02157  -1.01592
 Alpha  occ. eigenvalues --   -0.92240  -0.91425  -0.89213  -0.88882  -0.88843
 Alpha  occ. eigenvalues --   -0.88701  -0.88368  -0.88181  -0.87285  -0.86993
 Alpha  occ. eigenvalues --   -0.86870  -0.86425  -0.86399  -0.85810  -0.84319
 Alpha  occ. eigenvalues --   -0.84088  -0.83902  -0.83366  -0.82696  -0.82513
 Alpha  occ. eigenvalues --   -0.82229  -0.81645  -0.81145  -0.81127  -0.80251
 Alpha  occ. eigenvalues --   -0.80197  -0.77943  -0.77833  -0.77483  -0.77328
 Alpha  occ. eigenvalues --   -0.76761  -0.76750  -0.76122  -0.75894  -0.75299
 Alpha  occ. eigenvalues --   -0.74932  -0.72712  -0.72659  -0.71730  -0.71342
 Alpha  occ. eigenvalues --   -0.69239  -0.69203  -0.68975  -0.68434  -0.67891
 Alpha  occ. eigenvalues --   -0.67451  -0.67257  -0.66504  -0.66135  -0.65917
 Alpha  occ. eigenvalues --   -0.65084  -0.64999  -0.64812  -0.64562  -0.64501
 Alpha  occ. eigenvalues --   -0.64092  -0.62819  -0.62693  -0.59952  -0.59648
 Alpha  occ. eigenvalues --   -0.59601  -0.59476  -0.58990  -0.58928  -0.58612
 Alpha  occ. eigenvalues --   -0.58563  -0.58005  -0.57735  -0.57463  -0.57241
 Alpha  occ. eigenvalues --   -0.56328  -0.55972  -0.55763  -0.55350  -0.55330
 Alpha  occ. eigenvalues --   -0.55022  -0.54964  -0.54830  -0.54004  -0.53772
 Alpha  occ. eigenvalues --   -0.53376  -0.53242  -0.53145  -0.52800  -0.52719
 Alpha  occ. eigenvalues --   -0.52603  -0.52596  -0.52445  -0.52089  -0.52019
 Alpha  occ. eigenvalues --   -0.51733  -0.51639  -0.51592  -0.51361  -0.51187
 Alpha  occ. eigenvalues --   -0.51105  -0.51039  -0.50877  -0.50796  -0.50200
 Alpha  occ. eigenvalues --   -0.50083  -0.49949  -0.49701  -0.49612  -0.49468
 Alpha  occ. eigenvalues --   -0.49334  -0.49214  -0.49146  -0.49061  -0.48759
 Alpha  occ. eigenvalues --   -0.48516  -0.48447  -0.48272  -0.48151  -0.48011
 Alpha  occ. eigenvalues --   -0.47889  -0.47852  -0.47690  -0.47480  -0.47303
 Alpha  occ. eigenvalues --   -0.47185  -0.47024  -0.46948  -0.46868  -0.46583
 Alpha  occ. eigenvalues --   -0.46419  -0.46391  -0.46167  -0.46010  -0.45919
 Alpha  occ. eigenvalues --   -0.45674  -0.45574  -0.45258  -0.45234  -0.44955
 Alpha  occ. eigenvalues --   -0.44779  -0.44762  -0.44508  -0.44439  -0.44125
 Alpha  occ. eigenvalues --   -0.44072  -0.43963  -0.43796  -0.43776  -0.43529
 Alpha  occ. eigenvalues --   -0.43487  -0.43379  -0.43285  -0.43107  -0.42949
 Alpha  occ. eigenvalues --   -0.42709  -0.42678  -0.42492  -0.42477  -0.42459
 Alpha  occ. eigenvalues --   -0.42192  -0.42126  -0.41963  -0.41586  -0.41425
 Alpha  occ. eigenvalues --   -0.41155  -0.41072  -0.40972  -0.40802  -0.40609
 Alpha  occ. eigenvalues --   -0.40459  -0.39801  -0.39720  -0.39366  -0.38687
 Alpha  occ. eigenvalues --   -0.38650  -0.38390  -0.38181  -0.38161  -0.37724
 Alpha  occ. eigenvalues --   -0.37387  -0.37064  -0.36859  -0.36690  -0.36421
 Alpha  occ. eigenvalues --   -0.36226  -0.35603  -0.34875  -0.34800  -0.34784
 Alpha  occ. eigenvalues --   -0.34259  -0.33277  -0.33039  -0.31588  -0.31581
 Alpha  occ. eigenvalues --   -0.31249  -0.31205  -0.30499  -0.30458  -0.30215
 Alpha  occ. eigenvalues --   -0.29965  -0.29842  -0.29170  -0.24313  -0.24205
 Alpha  occ. eigenvalues --   -0.21166  -0.21088
 Alpha virt. eigenvalues --   -0.08780  -0.08587  -0.02028  -0.01645   0.00166
 Alpha virt. eigenvalues --    0.00394   0.01335   0.01634   0.01973   0.02166
 Alpha virt. eigenvalues --    0.04574   0.04672   0.04981   0.05042   0.05835

 Mulliken charges:
               1
     1  Mg  11.999984
     2  C    6.000240
     3  C    5.999849
     4  C    5.999777
     5  C    6.000095
     6  N    7.000138
     7  C    5.999736
     8  C    6.000049
     9  C    5.999936
    10  C    6.000231
    11  C    5.999965
    12  C    5.999998
    13  C    6.000008
    14  H    0.999986
    15  N    6.999965
    16  C    6.000350
    17  C    6.000109
    18  C    6.000136
    19  C    6.000328
    20  C    5.999965
    21  C    6.000090
    22  O    8.000169
    23  C    6.000004
    24  N    6.999932
    25  C    6.000288
    26  C    5.999884
    27  C    6.000090
    28  C    5.999756
    29  C    5.999999
    30  C    6.000023
    31  C    6.000015
    32  N    6.999979
    33  C    5.999638
    34  C    5.999833
    35  C    5.999886
    36  C    5.999794
    37  C    6.000063
    38  C    5.999853
    39  O    7.999744
    40  C    6.000007
    41  C    5.999956
    42  O    7.999977
    43  O    7.999991
    44  C    6.000003
    45  H    1.000116
    46  H    1.000047
    47  H    0.999852
    48  H    1.000021
    49  H    1.000060
    50  H    1.000122
    51  H    1.000004
    52  H    1.000014
    53  H    0.999933
    54  H    1.000046
    55  H    1.000028
    56  H    0.999980
    57  H    1.000133
    58  H    1.000154
    59  H    1.000142
    60  H    1.000077
    61  H    1.000098
    62  H    1.000060
    63  H    1.000023
    64  H    1.000012
    65  H    1.000070
    66  H    0.999991
    67  H    0.999982
    68  H    1.000021
    69  H    0.999910
    70  H    0.999952
    71  H    0.999953
    72  H    0.999996
    73  H    0.999849
    74  H    0.999844
    75  H    0.999814
    76  H    0.999940
    77  H    0.999971
    78  H    0.999978
    79  H    0.999987
    80  Mg  11.998768
    81  C    6.012385
    82  C    5.971401
    83  C    5.986151
    84  C    6.028792
    85  N    6.990924
    86  C    5.971142
    87  C    6.013983
    88  C    5.987595
    89  C    6.042849
    90  C    5.998546
    91  C    6.001648
    92  C    6.004339
    93  H    0.988510
    94  N    6.989768
    95  C    6.058532
    96  C    6.008840
    97  C    6.022453
    98  C    6.035177
    99  C    5.992679
   100  C    6.012430
   101  O    8.020888
   102  C    5.996072
   103  N    7.014891
   104  C    6.025763
   105  C    5.991170
   106  C    6.008649
   107  C    5.960728
   108  C    5.998620
   109  C    6.002325
   110  C    6.000952
   111  N    7.002785
   112  C    5.950581
   113  C    5.980069
   114  C    5.987807
   115  C    5.972109
   116  C    6.002753
   117  C    5.982740
   118  O    7.968838
   119  C    5.997429
   120  C    5.994479
   121  O    7.994890
   122  O    7.996799
   123  C    6.003208
   124  H    1.008578
   125  H    1.007839
   126  H    0.993228
   127  H    0.997240
   128  H    1.004036
   129  H    1.003227
   130  H    1.014350
   131  H    0.995586
   132  H    0.987533
   133  H    1.009332
   134  H    1.003332
   135  H    0.995841
   136  H    1.019354
   137  H    1.016827
   138  H    1.019007
   139  H    1.012098
   140  H    1.013262
   141  H    1.008396
   142  H    1.002415
   143  H    0.999094
   144  H    0.999852
   145  H    0.995999
   146  H    1.010881
   147  H    1.005134
   148  H    0.990937
   149  H    1.003634
   150  H    0.995740
   151  H    0.996621
   152  H    0.986234
   153  H    0.976934
   154  H    0.981091
   155  H    0.989548
   156  H    0.993550
   157  H    0.996925
   158  H    0.994887
 Sum of Mulliken charges = 624.00000

 Dipole moment (field-independent basis, Debye):
    X=             -3.7730    Y=             10.1816    Z=              1.9103  Tot=             11.0249
 Quadrupole moment (field-independent basis, Debye-Ang):
   XX=           -207.0734   YY=             10.4915   ZZ=             -2.1306
   XY=            289.5236   XZ=             56.4453   YZ=              1.0772

 Normal termination of Gaussian 16 at Thu Sep 23 11:12:36 2021.
