 Gaussian 16, Revision A.03,
 Gaussian 16:  ES64L-G16RevA.03 25-Dec-2016

 ----------------------------------------------------------
 #p cam-b3lyp/Def2SVP td=(nstates=5) density=(transition=1)
 ----------------------------------------------------------

 --------------------------------
 TDDFT excited states in gaussian
 --------------------------------
 Symbolic Z-matrix:
 Charge =  0 Multiplicity = 1

                         Standard orientation:
 ---------------------------------------------------------------------
 Center     Atomic      Atomic             Coordinates (Angstroms)
 Number     Number       Type             X           Y           Z
 ---------------------------------------------------------------------
      1         12           0       28.796693    0.538531   -0.177092
      2          6           0       27.690098   -2.785882    0.361846
      3          6           0       26.356584    1.566820    1.948022
      4          6           0       30.369244    3.550623   -0.059744
      5          6           0       31.521416   -0.755208   -1.884390
      6          7           0       27.338726   -0.623221    1.100104
      7          6           0       26.964610   -1.940787    1.111963
      8          6           0       25.775196   -2.174417    1.967335
      9          6           0       25.186423   -0.701138    2.180584
     10          6           0       26.340845    0.133807    1.742424
     11          6           0       23.915692   -0.476605    1.376958
     12          6           0       26.252759   -2.932324    3.215987
     13          6           0       25.522733   -4.295574    3.571693
     14          1           0       24.881091   -4.529392    4.972524
     15          7           0       28.444807    2.349161    0.743966
     16          6           0       27.304564    2.583457    1.524970
     17          6           0       27.248869    3.987376    1.802204
     18          6           0       28.421657    4.616186    1.262957
     19          6           0       29.101049    3.503658    0.546542
     20          6           0       26.065094    4.589021    2.548592
     21          6           0       28.850838    6.063644    1.351977
     22          8           0       27.985172    6.813332    1.889629
     23          6           0       30.220079    6.697485    0.976162
     24          7           0       30.702572    1.329282   -0.884455
     25          6           0       31.097629    2.612987   -0.736329
     26          6           0       32.504569    2.891662   -1.328424
     27          6           0       32.820380    1.518560   -2.015833
     28          6           0       31.604199    0.608749   -1.509827
     29          6           0       32.431740    4.067056   -2.286593
     30          6           0       34.134895    0.902060   -1.646042
     31          6           0       35.127789    0.862439   -2.775872
     32          7           0       29.426532   -1.274583   -0.831164
     33          6           0       30.532748   -1.707977   -1.572933
     34          6           0       30.409603   -3.018570   -1.964409
     35          6           0       29.281752   -3.483063   -1.257428
     36          6           0       28.773495   -2.409936   -0.529073
     37          6           0       31.268281   -3.660072   -3.033753
     38          6           0       28.393456   -4.662062   -1.077346
     39          8           0       28.457577   -5.739574   -1.582654
     40          6           0       27.407418   -4.192102    0.058058
     41          6           0       26.034224   -4.711926   -0.307678
     42          8           0       25.487201   -5.678122    0.223995
     43          8           0       25.450447   -3.897868   -1.308559
     44          6           0       24.071769   -4.284034   -1.607486
     45          1           0       25.455104    1.933822    2.443608
     46          1           0       30.860835    4.523578   -0.132837
     47          1           0       32.435939   -1.253545   -2.210710
     48          1           0       25.060417   -2.798935    1.431305
     49          1           0       24.943416   -0.583244    3.236254
     50          1           0       23.934871   -0.956264    0.399319
     51          1           0       23.835211    0.588297    1.156230
     52          1           0       23.004019   -0.741229    1.912564
     53          1           0       26.147082   -2.252083    4.060970
     54          1           0       27.326861   -3.116782    3.235615
     55          1           0       26.357398   -4.987713    3.457456
     56          1           0       24.864759   -4.603477    2.759917
     57          1           0       25.862653    4.041578    3.469162
     58          1           0       25.203633    4.471178    1.891361
     59          1           0       26.168774    5.609870    2.918872
     60          1           0       30.233334    6.629403   -0.111162
     61          1           0       31.013738    6.094671    1.417699
     62          1           0       30.323918    7.718808    1.343483
     63          1           0       33.257686    3.148024   -0.583740
     64          1           0       32.660716    1.596762   -3.090929
     65          1           0       31.934536    4.886191   -1.766794
     66          1           0       31.840472    3.763102   -3.150968
     67          1           0       33.341040    4.418225   -2.772931
     68          1           0       34.056800   -0.138653   -1.331519
     69          1           0       34.668011    1.349440   -0.807381
     70          1           0       36.043157    1.343027   -2.432773
     71          1           0       34.813153    1.453589   -3.635900
     72          1           0       35.316909   -0.136395   -3.170591
     73          1           0       30.731557   -4.554354   -3.352067
     74          1           0       32.253281   -3.939976   -2.660979
     75          1           0       31.350643   -2.901998   -3.812306
     76          1           0       27.703289   -4.833982    0.888653
     77          1           0       23.507529   -3.428505   -1.978949
     78          1           0       23.524219   -4.536756   -0.700617
     79          1           0       24.003372   -5.130979   -2.290761
     80         12           0      -29.255097   -0.193278   -0.803481
     81          6           0      -25.871280    0.455480    0.049368
     82          6           0      -28.720461   -3.489719    0.203872
     83          6           0      -32.521739   -0.421012   -0.466825
     84          6           0      -29.536415    3.396948   -1.463106
     85          7           0      -27.490939   -1.323977    0.289714
     86          6           0      -26.200638   -0.908089    0.254002
     87          6           0      -25.287258   -2.075616    0.581840
     88          6           0      -26.047986   -3.297717    0.067074
     89          6           0      -27.535757   -2.698613    0.242042
     90          6           0      -25.837153   -3.731211   -1.384813
     91          6           0      -24.922092   -2.048944    2.129993
     92          6           0      -23.484058   -2.289627    2.373013
     93          1           0      -23.103233   -3.206945    3.551347
     94          7           0      -30.522759   -1.748257   -0.157370
     95          6           0      -30.099606   -3.067964    0.138106
     96          6           0      -31.294532   -3.826165    0.410967
     97          6           0      -32.442181   -3.031166    0.150760
     98          6           0      -31.894440   -1.661462   -0.153805
     99          6           0      -31.207141   -5.284806    0.848762
    100          6           0      -33.850226   -3.450015    0.310543
    101          8           0      -34.087199   -4.590588    0.688783
    102          6           0      -35.066833   -2.599153    0.147918
    103          7           0      -30.830710    1.393431   -0.864074
    104          6           0      -32.086169    0.903472   -0.887078
    105          6           0      -33.092906    2.004702   -1.266045
    106          6           0      -32.137028    3.234104   -1.750860
    107          6           0      -30.741391    2.661438   -1.392010
    108          6           0      -34.232416    1.540546   -2.280760
    109          6           0      -32.455366    4.624249   -1.116631
    110          6           0      -31.584242    5.087216    0.100603
    111          7           0      -28.050081    1.522656   -0.745537
    112          6           0      -28.301263    2.877399   -1.105312
    113          6           0      -26.968144    3.622042   -1.150857
    114          6           0      -26.066265    2.691608   -0.659798
    115          6           0      -26.765836    1.449134   -0.452447
    116          6           0      -26.591844    5.062627   -1.547518
    117          6           0      -24.687366    2.469155   -0.360213
    118          8           0      -23.709089    3.202507   -0.512729
    119          6           0      -24.620929    1.104352    0.226422
    120          6           0      -24.350654    1.382914    1.722734
    121          8           0      -25.165710    1.732105    2.574038
    122          8           0      -22.951286    1.234003    1.930758
    123          6           0      -22.428457    1.553985    3.196696
    124          1           0      -28.599378   -4.554651    0.413578
    125          1           0      -33.589757   -0.645483   -0.498040
    126          1           0      -29.491034    4.438352   -1.786365
    127          1           0      -24.362115   -2.074472    0.005657
    128          1           0      -25.956088   -4.258737    0.571832
    129          1           0      -24.923433   -3.341041   -1.832197
    130          1           0      -26.749470   -3.625319   -1.972321
    131          1           0      -25.668162   -4.803570   -1.280233
    132          1           0      -25.466160   -2.851388    2.628281
    133          1           0      -25.308911   -1.182392    2.666344
    134          1           0      -23.113078   -1.274024    2.506214
    135          1           0      -23.055534   -2.730619    1.473141
    136          1           0      -31.475385   -5.982871    0.056000
    137          1           0      -31.802196   -5.413665    1.751684
    138          1           0      -30.183908   -5.534092    1.130115
    139          1           0      -35.164513   -2.344640   -0.907727
    140          1           0      -35.088523   -1.681678    0.737301
    141          1           0      -35.980807   -3.179422    0.268611
    142          1           0      -33.520515    2.282872   -0.303018
    143          1           0      -32.154387    3.276056   -2.839391
    144          1           0      -34.388892    0.463174   -2.228850
    145          1           0      -34.187206    1.874431   -3.318057
    146          1           0      -35.079786    2.156486   -1.975579
    147          1           0      -33.501063    4.717932   -0.824769
    148          1           0      -32.243683    5.302799   -1.942631
    149          1           0      -32.376452    5.656157    0.587798
    150          1           0      -30.735652    5.743247   -0.094582
    151          1           0      -31.326084    4.198291    0.676528
    152          1           0      -25.863608    5.067334   -2.357786
    153          1           0      -26.022566    5.295321   -0.648091
    154          1           0      -27.517182    5.632158   -1.631243
    155          1           0      -23.768606    0.569854   -0.193207
    156          1           0      -21.348542    1.430597    3.287294
    157          1           0      -22.900782    0.890353    3.919892
    158          1           0      -22.695561    2.599460    3.353356
 ---------------------------------------------------------------------

 SCF Done:  E(RCAM-B3LYP) =  -4069.76156257     A.U. after   17 cycles

 Excitation energies and oscillator strengths:

 Excited State   1:      Singlet-A      1.6836 eV  736.41 nm  f=0.2793  <S**2>=0.000
     309 -> 316        0.16605
     311 -> 313        0.65561
     312 -> 314        0.20283
     309 <- 316        0.10305
 This state for optimization and/or second-order correction.
 Total Energy, E(TD-HF/TD-DFT) =  -4069.69969000
 Copying the excited state density for this state as the 1-particle RhoCI density.

 Excited State   2:      Singlet-A      1.6843 eV  736.12 nm  f=0.4371  <S**2>=0.000
     310 -> 315        0.18836
     311 -> 313       -0.20478
     312 -> 314        0.64926
     310 <- 315        0.10705

 Excited State   3:      Singlet-A      2.1915 eV  565.74 nm  f=0.0565  <S**2>=0.000
     310 -> 314        0.61453
     312 -> 315       -0.33942

 Excited State   4:      Singlet-A      2.2196 eV  558.59 nm  f=0.1595  <S**2>=0.000
     309 -> 313        0.64873
     311 -> 316       -0.26683

 Excited State   5:      Singlet-A      3.0233 eV  410.10 nm  f=0.0000  <S**2>=0.000
     312 -> 313        0.70711

 The electronic state is 1-A.
 Alpha  occ. eigenvalues --  -46.91314 -46.89027 -19.25648 -19.24724 -19.21416
 Alpha  occ. eigenvalues --  -19.21028 -19.19873 -19.18926 -19.18322 -19.17586
 Alpha  occ. eigenvalues --  -14.42421 -14.42389 -14.42249 -14.41956 -14.40257
 Alpha  occ. eigenvalues --  -14.40108 -14.39774 -14.39017 -10.40607 -10.40373
 Alpha  occ. eigenvalues --  -10.35681 -10.35499 -10.34575 -10.34139 -10.32005
 Alpha  occ. eigenvalues --  -10.31844 -10.31683 -10.31441 -10.31416 -10.31320
 Alpha  occ. eigenvalues --  -10.31142 -10.31067 -10.30988 -10.30874 -10.30844
 Alpha  occ. eigenvalues --  -10.30686 -10.30654 -10.30570 -10.30094 -10.29480
 Alpha  occ. eigenvalues --  -10.29405 -10.29079 -10.28882 -10.28794 -10.28588
 Alpha  occ. eigenvalues --  -10.28560 -10.28556 -10.28534 -10.28426 -10.28424
 Alpha  occ. eigenvalues --  -10.28387 -10.28347 -10.28339 -10.28222 -10.28215
 Alpha  occ. eigenvalues --  -10.28160 -10.28005 -10.27921 -10.27746 -10.27677
 Alpha  occ. eigenvalues --  -10.27620 -10.27569 -10.27498 -10.27390 -10.27368
 Alpha  occ. eigenvalues --  -10.27319 -10.27177 -10.27120 -10.27107 -10.27052
 Alpha  occ. eigenvalues --  -10.26989 -10.26794 -10.26777 -10.26605 -10.26510
 Alpha  occ. eigenvalues --  -10.26376 -10.26313 -10.26248 -10.25971 -10.25783
 Alpha  occ. eigenvalues --  -10.25681 -10.25386 -10.25285 -10.25221 -10.25103
 Alpha  occ. eigenvalues --  -10.24990  -3.19514  -3.17590  -1.94356  -1.94022
 Alpha  occ. eigenvalues --   -1.93770  -1.92471  -1.92051  -1.91895  -1.15834
 Alpha  occ. eigenvalues --   -1.15609  -1.12061  -1.09614  -1.09370  -1.08665
 Alpha  occ. eigenvalues --   -1.07972  -1.07648  -1.05273  -1.04293  -1.04215
 Alpha  occ. eigenvalues --   -1.03463  -1.03377  -1.02850  -1.02772  -1.01289
 Alpha  occ. eigenvalues --   -0.94392  -0.93338  -0.89954  -0.89342  -0.89184
 Alpha  occ. eigenvalues --   -0.89082  -0.88734  -0.87885  -0.87813  -0.87280
 Alpha  occ. eigenvalues --   -0.87033  -0.86862  -0.85974  -0.85585  -0.84859
 Alpha  occ. eigenvalues --   -0.84791  -0.84300  -0.83674  -0.82716  -0.82654
 Alpha  occ. eigenvalues --   -0.81971  -0.81654  -0.80869  -0.80725  -0.80517
 Alpha  occ. eigenvalues --   -0.80285  -0.78049  -0.77835  -0.77483  -0.77284
 Alpha  occ. eigenvalues --   -0.76920  -0.76890  -0.76521  -0.76016  -0.75531
 Alpha  occ. eigenvalues --   -0.75218  -0.73549  -0.72760  -0.72249  -0.71852
 Alpha  occ. eigenvalues --   -0.69929  -0.69435  -0.69012  -0.68726  -0.67737
 Alpha  occ. eigenvalues --   -0.67330  -0.67259  -0.66880  -0.66375  -0.65719
 Alpha  occ. eigenvalues --   -0.65376  -0.65355  -0.64981  -0.64957  -0.64724
 Alpha  occ. eigenvalues --   -0.64556  -0.63146  -0.62225  -0.60555  -0.60118
 Alpha  occ. eigenvalues --   -0.59943  -0.59780  -0.59620  -0.59284  -0.58985
 Alpha  occ. eigenvalues --   -0.58913  -0.58273  -0.58082  -0.57048  -0.56913
 Alpha  occ. eigenvalues --   -0.56253  -0.56212  -0.55971  -0.55853  -0.55654
 Alpha  occ. eigenvalues --   -0.55651  -0.54973  -0.54960  -0.54570  -0.54374
 Alpha  occ. eigenvalues --   -0.53924  -0.53689  -0.53614  -0.53404  -0.53231
 Alpha  occ. eigenvalues --   -0.53046  -0.52724  -0.52653  -0.52310  -0.52192
 Alpha  occ. eigenvalues --   -0.52070  -0.51974  -0.51739  -0.51681  -0.51403
 Alpha  occ. eigenvalues --   -0.51317  -0.51145  -0.50901  -0.50569  -0.50564
 Alpha  occ. eigenvalues --   -0.50315  -0.50195  -0.50067  -0.49979  -0.49892
 Alpha  occ. eigenvalues --   -0.49681  -0.49414  -0.49239  -0.48960  -0.48936
 Alpha  occ. eigenvalues --   -0.48673  -0.48488  -0.48366  -0.48276  -0.48019
 Alpha  occ. eigenvalues --   -0.47769  -0.47754  -0.47481  -0.47238  -0.47178
 Alpha  occ. eigenvalues --   -0.46911  -0.46860  -0.46630  -0.46485  -0.46104
 Alpha  occ. eigenvalues --   -0.46043  -0.45957  -0.45933  -0.45912  -0.45879
 Alpha  occ. eigenvalues --   -0.45770  -0.45518  -0.45447  -0.45331  -0.45312
 Alpha  occ. eigenvalues --   -0.45176  -0.45156  -0.44909  -0.44580  -0.44459
 Alpha  occ. eigenvalues --   -0.44148  -0.44077  -0.43992  -0.43804  -0.43689
 Alpha  occ. eigenvalues --   -0.43487  -0.43317  -0.43292  -0.43014  -0.42676
 Alpha  occ. eigenvalues --   -0.42524  -0.42459  -0.42434  -0.42342  -0.42097
 Alpha  occ. eigenvalues --   -0.42052  -0.41758  -0.41611  -0.41603  -0.41417
 Alpha  occ. eigenvalues --   -0.41309  -0.41134  -0.41022  -0.40987  -0.40438
 Alpha  occ. eigenvalues --   -0.40154  -0.40095  -0.39182  -0.39060  -0.38797
 Alpha  occ. eigenvalues --   -0.38570  -0.38279  -0.38245  -0.37935  -0.37832
 Alpha  occ. eigenvalues --   -0.37647  -0.37352  -0.37276  -0.36527  -0.36445
 Alpha  occ. eigenvalues --   -0.36337  -0.35782  -0.35436  -0.35228  -0.34720
 Alpha  occ. eigenvalues --   -0.34228  -0.33357  -0.33210  -0.31769  -0.31475
 Alpha  occ. eigenvalues --   -0.31145  -0.30821  -0.30602  -0.30578  -0.30226
 Alpha  occ. eigenvalues --   -0.30039  -0.29809  -0.29489  -0.24432  -0.24061
 Alpha  occ. eigenvalues --   -0.21664  -0.21049
 Alpha virt. eigenvalues --   -0.09347  -0.08542  -0.02626  -0.01853  -0.00615
 Alpha virt. eigenvalues --    0.00122   0.00209   0.01782   0.02158   0.02385
 Alpha virt. eigenvalues --    0.04127   0.04695   0.05001   0.05155   0.05689

 Mulliken charges:
               1
     1  Mg  12.001457
     2  C    5.974661
     3  C    6.001344
     4  C    6.037210
     5  C    6.012472
     6  N    6.973672
     7  C    6.028444
     8  C    5.990333
     9  C    6.016008
    10  C    5.975117
    11  C    6.004880
    12  C    5.994783
    13  C    6.000522
    14  H    1.005370
    15  N    7.009798
    16  C    5.958997
    17  C    5.981071
    18  C    5.991501
    19  C    5.953460
    20  C    6.003714
    21  C    5.989673
    22  O    7.981176
    23  C    5.998218
    24  N    7.017795
    25  C    5.960255
    26  C    6.011211
    27  C    5.993530
    28  C    6.018069
    29  C    6.003753
    30  C    5.994827
    31  C    5.997911
    32  N    6.998890
    33  C    6.027934
    34  C    6.027464
    35  C    6.004846
    36  C    6.036423
    37  C    5.999473
    38  C    6.017401
    39  O    8.025208
    40  C    6.003333
    41  C    6.003194
    42  O    8.006126
    43  O    7.997998
    44  C    5.996813
    45  H    0.985320
    46  H    0.999272
    47  H    1.015051
    48  H    0.998482
    49  H    0.994704
    50  H    0.985203
    51  H    1.004691
    52  H    0.989575
    53  H    1.010696
    54  H    0.996445
    55  H    0.995446
    56  H    0.998497
    57  H    0.982822
    58  H    0.982246
    59  H    0.985067
    60  H    0.990490
    61  H    0.990377
    62  H    0.989717
    63  H    0.999004
    64  H    1.001927
    65  H    1.007746
    66  H    0.995006
    67  H    0.993464
    68  H    0.994836
    69  H    1.010619
    70  H    1.006943
    71  H    1.005166
    72  H    0.997852
    73  H    1.014612
    74  H    1.020032
    75  H    1.015752
    76  H    1.004387
    77  H    1.006694
    78  H    1.005366
    79  H    1.000161
    80  Mg  11.999506
    81  C    5.992764
    82  C    6.005936
    83  C    6.006197
    84  C    5.993127
    85  N    6.998895
    86  C    6.008483
    87  C    5.999086
    88  C    6.000511
    89  C    5.990893
    90  C    6.000471
    91  C    5.998359
    92  C    5.999751
    93  H    1.001988
    94  N    7.004343
    95  C    5.984405
    96  C    5.995064
    97  C    5.995963
    98  C    5.987947
    99  C    6.001819
   100  C    5.997281
   101  O    7.993263
   102  C    6.000965
   103  N    6.998774
   104  C    5.990005
   105  C    6.003799
   106  C    5.995526
   107  C    6.012075
   108  C    6.001017
   109  C    6.000307
   110  C    5.997281
   111  N    6.997706
   112  C    6.016270
   113  C    6.007670
   114  C    6.001147
   115  C    6.009864
   116  C    6.000118
   117  C    6.005078
   118  O    8.009479
   119  C    5.999425
   120  C    6.000644
   121  O    8.001447
   122  O    8.000405
   123  C    5.999299
   124  H    0.997343
   125  H    0.999169
   126  H    1.002948
   127  H    0.999671
   128  H    0.999764
   129  H    0.995566
   130  H    1.000652
   131  H    0.999401
   132  H    1.003961
   133  H    0.999235
   134  H    0.998281
   135  H    1.000888
   136  H    0.993855
   137  H    0.994969
   138  H    0.994400
   139  H    0.996636
   140  H    0.996483
   141  H    0.996378
   142  H    0.999757
   143  H    1.001670
   144  H    1.002631
   145  H    0.998045
   146  H    0.998500
   147  H    1.003267
   148  H    1.000176
   149  H    1.002825
   150  H    0.998929
   151  H    1.000602
   152  H    1.005254
   153  H    1.004042
   154  H    1.004818
   155  H    1.002649
   156  H    1.001356
   157  H    1.001771
   158  H    0.999752
 Sum of Mulliken charges = 624.00000

 Dipole moment (field-independent basis, Debye):
    X=              5.6224    Y=             -5.7918    Z=             -4.7259  Tot=              9.3537
 Quadrupole moment (field-independent basis, Debye-Ang):
   XX=            115.4747   YY=             -9.3362   ZZ=              1.9555
   XY=           -313.0616   XZ=           -115.7100   YZ=             -2.6434

 Normal termination of Gaussian 16 at Wed Sep 22 18:11:49 2021.
