 Gaussian 16, Revision A.03,
 Gaussian 16:  ES64L-G16RevA.03 25-Dec-2016

 ----------------------------------------------------------
 #p cam-b3lyp/Def2SVP td=(nstates=5) density=(transition=1)
 ----------------------------------------------------------

 --------------------------------
 TDDFT excited states in gaussian
 --------------------------------
 Symbolic Z-matrix:
 Charge =  0 Multiplicity = 1

                         Standard orientation:
 ---------------------------------------------------------------------
 Center     Atomic      Atomic             Coordinates (Angstroms)
 Number     Number       Type             X           Y           Z
 ---------------------------------------------------------------------
      1         12           0       31.423229    0.491691   -0.457123
      2          6           0       29.285158   -1.956984    0.678188
      3          6           0       28.856461    2.734436   -0.242437
      4          6           0       33.708778    2.871698   -0.300452
      5          6           0       33.955725   -1.937231   -0.576638
      6          7           0       29.441948    0.418522    0.607879
      7          6           0       28.707533   -0.713526    0.759914
      8          6           0       27.266895   -0.433404    1.070577
      9          6           0       27.104519    0.949300    0.360077
     10          6           0       28.550541    1.375623    0.154259
     11          6           0       26.242374    0.873014   -0.932554
     12          6           0       26.996214   -0.318306    2.654062
     13          6           0       25.580624   -0.871925    3.150150
     14          1           0       24.835996    0.270118    3.796145
     15          7           0       31.274113    2.533678   -0.493182
     16          6           0       30.181591    3.308604   -0.315862
     17          6           0       30.545272    4.719958   -0.318106
     18          6           0       31.953443    4.772720   -0.368086
     19          6           0       32.368146    3.341765   -0.384343
     20          6           0       29.467998    5.825365   -0.200514
     21          6           0       32.729461    6.047072   -0.184479
     22          8           0       32.139119    7.089408   -0.069267
     23          6           0       34.264229    6.130603   -0.079106
     24          7           0       33.575229    0.519251   -0.570723
     25          6           0       34.236686    1.585140   -0.469874
     26          6           0       35.701342    1.365595   -0.375603
     27          6           0       35.816385   -0.206046   -0.478843
     28          6           0       34.400509   -0.583863   -0.544389
     29          6           0       36.483693    2.206443   -1.440367
     30          6           0       36.563725   -0.838223    0.785082
     31          6           0       37.146995   -2.287840    0.631048
     32          7           0       31.628031   -1.535948   -0.131370
     33          6           0       32.695285   -2.394154   -0.324659
     34          6           0       32.282853   -3.759928   -0.155778
     35          6           0       30.893912   -3.643610    0.201498
     36          6           0       30.595025   -2.298496    0.301200
     37          6           0       33.109457   -4.994746   -0.317952
     38          6           0       29.727129   -4.400114    0.499792
     39          8           0       29.466037   -5.606242    0.595385
     40          6           0       28.690368   -3.344781    1.009125
     41          6           0       27.387196   -3.682358    0.364945
     42          8           0       26.506851   -4.388312    0.876639
     43          8           0       27.339020   -3.144006   -0.891306
     44          6           0       26.052755   -3.532229   -1.535253
     45          1           0       28.085247    3.501517   -0.342560
     46          1           0       34.438839    3.675253   -0.187975
     47          1           0       34.765745   -2.664657   -0.483408
     48          1           0       26.727492   -1.212442    0.533315
     49          1           0       26.557484    1.624276    1.018510
     50          1           0       25.336623    1.463115   -0.795941
     51          1           0       25.914190   -0.161668   -1.036967
     52          1           0       26.875763    1.174803   -1.766138
     53          1           0       27.164667    0.660762    3.102305
     54          1           0       27.736439   -0.896572    3.206097
     55          1           0       25.836385   -1.584701    3.934281
     56          1           0       24.946384   -1.431134    2.462213
     57          1           0       29.583561    6.490308    0.655324
     58          1           0       28.443774    5.450930   -0.210433
     59          1           0       29.515091    6.406693   -1.120749
     60          1           0       34.775714    5.821874   -0.990206
     61          1           0       34.675717    5.585240    0.770593
     62          1           0       34.459925    7.160070    0.222441
     63          1           0       35.935479    1.687901    0.638903
     64          1           0       36.239500   -0.636955   -1.385935
     65          1           0       37.171470    2.848462   -0.890463
     66          1           0       35.813432    2.794549   -2.067509
     67          1           0       37.208734    1.632330   -2.017054
     68          1           0       35.891285   -0.861686    1.642882
     69          1           0       37.369183   -0.142608    1.015988
     70          1           0       38.211979   -2.482410    0.754743
     71          1           0       36.967920   -2.666240   -0.374425
     72          1           0       36.651505   -2.967999    1.323870
     73          1           0       34.102569   -4.865597   -0.747797
     74          1           0       32.439775   -5.567738   -0.958017
     75          1           0       33.054373   -5.388424    0.697060
     76          1           0       28.580619   -3.310657    2.093576
     77          1           0       26.066362   -4.599704   -1.752964
     78          1           0       25.945139   -3.125410   -2.540771
     79          1           0       25.245487   -3.211479   -0.876486
     80         12           0      -31.484595    0.200104    0.246802
     81          6           0      -29.254478   -1.812953   -1.348591
     82          6           0      -32.040992    1.982313   -2.643016
     83          6           0      -33.539695    2.234095    2.007543
     84          6           0      -30.530473   -1.339035    3.282005
     85          7           0      -30.555209    0.228134   -1.725415
     86          6           0      -29.931292   -0.881230   -2.204047
     87          6           0      -29.849946   -0.920960   -3.692443
     88          6           0      -30.558685    0.489843   -4.036461
     89          6           0      -31.099982    0.954397   -2.724314
     90          6           0      -29.547354    1.550145   -4.668124
     91          6           0      -30.700100   -2.167864   -4.222830
     92          6           0      -30.349558   -2.718063   -5.607031
     93          1           0      -29.465361   -1.980628   -6.643315
     94          7           0      -32.724694    1.818327   -0.220003
     95          6           0      -32.787094    2.419403   -1.487797
     96          6           0      -33.712296    3.524087   -1.385935
     97          6           0      -34.175569    3.589312   -0.056091
     98          6           0      -33.502314    2.481475    0.607719
     99          6           0      -34.090366    4.367342   -2.626014
    100          6           0      -35.147877    4.704769    0.597357
    101          8           0      -35.612816    4.599348    1.739366
    102          6           0      -35.615206    5.958960   -0.122602
    103          7           0      -32.009652    0.351252    2.391902
    104          6           0      -32.857935    1.316131    2.820866
    105          6           0      -32.851932    1.427572    4.344571
    106          6           0      -32.119166    0.028666    4.771884
    107          6           0      -31.583436   -0.449924    3.413370
    108          6           0      -32.255989    2.780394    4.949006
    109          6           0      -33.079877   -1.153184    5.300874
    110          6           0      -32.740692   -1.882485    6.587818
    111          7           0      -30.211970   -1.313041    0.920345
    112          6           0      -29.913444   -1.817951    2.130206
    113          6           0      -28.970494   -2.970262    1.979748
    114          6           0      -28.751981   -3.002904    0.582017
    115          6           0      -29.439162   -1.891557    0.035534
    116          6           0      -28.409476   -3.911515    2.986156
    117          6           0      -28.032881   -3.742188   -0.386591
    118          8           0      -27.284087   -4.731977   -0.253930
    119          6           0      -28.320470   -3.002120   -1.690472
    120          6           0      -27.072562   -2.523655   -2.239996
    121          8           0      -26.224262   -1.836522   -1.763176
    122          8           0      -27.054488   -2.930930   -3.570654
    123          6           0      -25.927041   -2.566003   -4.511434
    124          1           0      -32.434669    2.441836   -3.551599
    125          1           0      -34.127775    2.953016    2.582399
    126          1           0      -30.048171   -1.723382    4.182512
    127          1           0      -28.893434   -0.983636   -4.210965
    128          1           0      -31.379090    0.359396   -4.742141
    129          1           0      -29.962103    2.205968   -5.433267
    130          1           0      -28.641111    1.033429   -4.983712
    131          1           0      -29.250214    2.210337   -3.852639
    132          1           0      -31.767868   -1.948213   -4.233139
    133          1           0      -30.540529   -2.953015   -3.483357
    134          1           0      -31.305664   -2.945282   -6.080252
    135          1           0      -29.889871   -3.697795   -5.482669
    136          1           0      -33.645758    4.018858   -3.558113
    137          1           0      -33.792765    5.392068   -2.406069
    138          1           0      -35.178221    4.357862   -2.697532
    139          1           0      -36.290168    5.591923   -0.894899
    140          1           0      -34.840486    6.389850   -0.757144
    141          1           0      -35.921897    6.718803    0.595913
    142          1           0      -33.886078    1.356160    4.683642
    143          1           0      -31.356865    0.203995    5.531255
    144          1           0      -31.416387    2.580543    5.615180
    145          1           0      -33.035389    3.329952    5.475621
    146          1           0      -31.837906    3.403086    4.157722
    147          1           0      -33.269799   -1.897675    4.527861
    148          1           0      -34.063148   -0.702631    5.432682
    149          1           0      -32.672855   -2.939705    6.333708
    150          1           0      -33.464541   -1.703602    7.382408
    151          1           0      -31.741527   -1.596012    6.918973
    152          1           0      -28.792797   -3.783484    3.998333
    153          1           0      -27.326728   -3.804744    3.057089
    154          1           0      -28.634449   -4.928511    2.665521
    155          1           0      -28.807746   -3.640640   -2.427902
    156          1           0      -25.207189   -1.919889   -4.008524
    157          1           0      -26.322425   -1.989955   -5.349128
    158          1           0      -25.480799   -3.514995   -4.808603
 ---------------------------------------------------------------------

 SCF Done:  E(RCAM-B3LYP) =  -4069.79822255     A.U. after   19 cycles

 Excitation energies and oscillator strengths:

 Excited State   1:      Singlet-A      1.6890 eV  734.07 nm  f=0.3582  <S**2>=0.000
     309 -> 315        0.16437
     311 -> 313        0.68793
     309 <- 315        0.10173
 This state for optimization and/or second-order correction.
 Total Energy, E(TD-HF/TD-DFT) =  -4069.73615289
 Copying the excited state density for this state as the 1-particle RhoCI density.

 Excited State   2:      Singlet-A      1.7389 eV  713.01 nm  f=0.3983  <S**2>=0.000
     310 -> 316       -0.19176
     312 -> 314        0.68294
     310 <- 316       -0.10976

 Excited State   3:      Singlet-A      2.2121 eV  560.48 nm  f=0.1069  <S**2>=0.000
     309 -> 313        0.64120
     311 -> 315       -0.27964

 Excited State   4:      Singlet-A      2.2287 eV  556.30 nm  f=0.1025  <S**2>=0.000
     310 -> 314        0.63902
     312 -> 316        0.29488

 Excited State   5:      Singlet-A      3.2081 eV  386.48 nm  f=0.0000  <S**2>=0.000
     312 -> 313        0.70711

 The electronic state is 1-A.
 Alpha  occ. eigenvalues --  -46.89396 -46.89216 -19.25552 -19.23679 -19.19587
 Alpha  occ. eigenvalues --  -19.19517 -19.19189 -19.19034 -19.18775 -19.17892
 Alpha  occ. eigenvalues --  -14.42473 -14.42106 -14.41900 -14.41666 -14.40304
 Alpha  occ. eigenvalues --  -14.39547 -14.39386 -14.38582 -10.38653 -10.38648
 Alpha  occ. eigenvalues --  -10.36225 -10.35750 -10.34470 -10.34064 -10.32309
 Alpha  occ. eigenvalues --  -10.31898 -10.31742 -10.31705 -10.31703 -10.30976
 Alpha  occ. eigenvalues --  -10.30675 -10.30671 -10.30640 -10.30246 -10.30210
 Alpha  occ. eigenvalues --  -10.29989 -10.29962 -10.29864 -10.29741 -10.29366
 Alpha  occ. eigenvalues --  -10.29009 -10.28850 -10.28776 -10.28769 -10.28384
 Alpha  occ. eigenvalues --  -10.28383 -10.28294 -10.28245 -10.28205 -10.28184
 Alpha  occ. eigenvalues --  -10.28182 -10.28155 -10.28032 -10.27958 -10.27954
 Alpha  occ. eigenvalues --  -10.27843 -10.27819 -10.27771 -10.27681 -10.27578
 Alpha  occ. eigenvalues --  -10.27565 -10.27511 -10.27457 -10.27426 -10.27394
 Alpha  occ. eigenvalues --  -10.27359 -10.27253 -10.27161 -10.26989 -10.26663
 Alpha  occ. eigenvalues --  -10.26658 -10.26650 -10.26607 -10.26577 -10.26432
 Alpha  occ. eigenvalues --  -10.26272 -10.26213 -10.26210 -10.26205 -10.26164
 Alpha  occ. eigenvalues --  -10.26110 -10.26062 -10.25888 -10.25357 -10.24743
 Alpha  occ. eigenvalues --  -10.24426  -3.17802  -3.17789  -1.92722  -1.92676
 Alpha  occ. eigenvalues --   -1.92258  -1.92240  -1.92114  -1.92080  -1.15940
 Alpha  occ. eigenvalues --   -1.15628  -1.11951  -1.09510  -1.08321  -1.08098
 Alpha  occ. eigenvalues --   -1.07198  -1.07045  -1.06419  -1.05558  -1.04585
 Alpha  occ. eigenvalues --   -1.04455  -1.03930  -1.03572  -1.02821  -1.02625
 Alpha  occ. eigenvalues --   -0.93489  -0.92491  -0.89725  -0.88683  -0.88604
 Alpha  occ. eigenvalues --   -0.88258  -0.88252  -0.87512  -0.87293  -0.87060
 Alpha  occ. eigenvalues --   -0.86901  -0.86871  -0.86622  -0.86217  -0.84321
 Alpha  occ. eigenvalues --   -0.84293  -0.83798  -0.83469  -0.82360  -0.82270
 Alpha  occ. eigenvalues --   -0.81822  -0.81604  -0.81184  -0.80908  -0.80338
 Alpha  occ. eigenvalues --   -0.80295  -0.78418  -0.78407  -0.77835  -0.77467
 Alpha  occ. eigenvalues --   -0.77119  -0.76800  -0.76197  -0.75965  -0.75485
 Alpha  occ. eigenvalues --   -0.75183  -0.72684  -0.72585  -0.72216  -0.71981
 Alpha  occ. eigenvalues --   -0.70481  -0.69307  -0.69253  -0.68634  -0.68221
 Alpha  occ. eigenvalues --   -0.68145  -0.67741  -0.66817  -0.65979  -0.65352
 Alpha  occ. eigenvalues --   -0.65333  -0.65200  -0.64845  -0.64510  -0.64454
 Alpha  occ. eigenvalues --   -0.64247  -0.62412  -0.61812  -0.60510  -0.60445
 Alpha  occ. eigenvalues --   -0.59921  -0.59616  -0.59178  -0.59177  -0.58796
 Alpha  occ. eigenvalues --   -0.58791  -0.58468  -0.57970  -0.57751  -0.56990
 Alpha  occ. eigenvalues --   -0.56684  -0.56203  -0.56022  -0.55664  -0.55498
 Alpha  occ. eigenvalues --   -0.55289  -0.55035  -0.54231  -0.54135  -0.53766
 Alpha  occ. eigenvalues --   -0.53582  -0.53039  -0.52971  -0.52940  -0.52755
 Alpha  occ. eigenvalues --   -0.52655  -0.52383  -0.52197  -0.52133  -0.51968
 Alpha  occ. eigenvalues --   -0.51695  -0.51690  -0.51626  -0.51402  -0.51226
 Alpha  occ. eigenvalues --   -0.51178  -0.50802  -0.50643  -0.50537  -0.50403
 Alpha  occ. eigenvalues --   -0.50205  -0.49910  -0.49800  -0.49698  -0.49683
 Alpha  occ. eigenvalues --   -0.49391  -0.49134  -0.49121  -0.48933  -0.48912
 Alpha  occ. eigenvalues --   -0.48617  -0.48333  -0.48302  -0.48141  -0.47947
 Alpha  occ. eigenvalues --   -0.47763  -0.47672  -0.47609  -0.47399  -0.47263
 Alpha  occ. eigenvalues --   -0.46923  -0.46917  -0.46806  -0.46587  -0.46452
 Alpha  occ. eigenvalues --   -0.46277  -0.46242  -0.46216  -0.46164  -0.45822
 Alpha  occ. eigenvalues --   -0.45804  -0.45579  -0.45370  -0.45184  -0.45097
 Alpha  occ. eigenvalues --   -0.44684  -0.44658  -0.44408  -0.44345  -0.44291
 Alpha  occ. eigenvalues --   -0.44258  -0.44201  -0.43975  -0.43975  -0.43893
 Alpha  occ. eigenvalues --   -0.43687  -0.43369  -0.43156  -0.43136  -0.42911
 Alpha  occ. eigenvalues --   -0.42667  -0.42599  -0.42319  -0.42177  -0.41955
 Alpha  occ. eigenvalues --   -0.41890  -0.41742  -0.41626  -0.41446  -0.41291
 Alpha  occ. eigenvalues --   -0.41153  -0.41130  -0.41048  -0.40807  -0.40758
 Alpha  occ. eigenvalues --   -0.40203  -0.40063  -0.39717  -0.39612  -0.39403
 Alpha  occ. eigenvalues --   -0.38613  -0.38415  -0.38277  -0.37781  -0.37700
 Alpha  occ. eigenvalues --   -0.37531  -0.36805  -0.36754  -0.36698  -0.36575
 Alpha  occ. eigenvalues --   -0.36479  -0.36070  -0.34958  -0.34486  -0.34227
 Alpha  occ. eigenvalues --   -0.33588  -0.33376  -0.33150  -0.31901  -0.31372
 Alpha  occ. eigenvalues --   -0.31245  -0.31095  -0.31016  -0.30589  -0.30169
 Alpha  occ. eigenvalues --   -0.30044  -0.30043  -0.28950  -0.24175  -0.23828
 Alpha  occ. eigenvalues --   -0.21154  -0.21127
 Alpha virt. eigenvalues --   -0.08790  -0.08509  -0.01792  -0.01696   0.00002
 Alpha virt. eigenvalues --    0.00214   0.01671   0.02313   0.02368   0.02798
 Alpha virt. eigenvalues --    0.04632   0.04673   0.05338   0.05815   0.06010

 Mulliken charges:
               1
     1  Mg  12.000361
     2  C    6.017708
     3  C    5.985317
     4  C    5.976234
     5  C    6.006355
     6  N    7.008285
     7  C    5.963357
     8  C    6.011188
     9  C    5.984967
    10  C    6.034404
    11  C    5.996629
    12  C    5.999151
    13  C    6.002112
    14  H    0.990762
    15  N    6.990098
    16  C    6.043797
    17  C    6.021729
    18  C    6.014044
    19  C    6.039282
    20  C    5.994430
    21  C    6.008084
    22  O    8.018615
    23  C    5.997780
    24  N    6.999047
    25  C    6.034621
    26  C    5.989987
    27  C    6.010886
    28  C    5.966281
    29  C    5.997020
    30  C    6.007523
    31  C    6.001251
    32  N    7.001486
    33  C    5.967457
    34  C    5.967063
    35  C    5.999886
    36  C    5.971490
    37  C    6.001381
    38  C    5.984948
    39  O    7.969803
    40  C    6.000929
    41  C    5.995714
    42  O    7.993151
    43  O    8.001253
    44  C    6.001328
    45  H    1.010332
    46  H    1.005870
    47  H    0.991039
    48  H    1.002911
    49  H    1.006151
    50  H    1.003948
    51  H    1.016357
    52  H    0.999619
    53  H    0.988323
    54  H    1.005436
    55  H    1.002304
    56  H    1.000529
    57  H    1.019306
    58  H    1.019232
    59  H    1.018844
    60  H    1.010793
    61  H    1.011348
    62  H    1.011354
    63  H    0.999164
    64  H    0.998786
    65  H    1.000758
    66  H    0.994294
    67  H    1.010100
    68  H    0.997159
    69  H    0.987093
    70  H    0.993790
    71  H    1.001772
    72  H    1.004083
    73  H    0.980258
    74  H    0.982662
    75  H    0.980486
    76  H    0.991366
    77  H    1.000220
    78  H    0.993318
    79  H    0.993799
    80  Mg  11.999994
    81  C    5.999937
    82  C    5.999958
    83  C    6.000066
    84  C    6.000041
    85  N    6.999979
    86  C    6.000101
    87  C    5.999961
    88  C    6.000023
    89  C    5.999979
    90  C    6.000012
    91  C    5.999990
    92  C    5.999998
    93  H    1.000009
    94  N    7.000017
    95  C    5.999952
    96  C    5.999942
    97  C    5.999981
    98  C    5.999910
    99  C    6.000013
   100  C    5.999963
   101  O    7.999945
   102  C    6.000010
   103  N    7.000022
   104  C    5.999923
   105  C    6.000035
   106  C    5.999977
   107  C    6.000013
   108  C    6.000001
   109  C    5.999983
   110  C    5.999995
   111  N    6.999988
   112  C    6.000025
   113  C    6.000106
   114  C    5.999961
   115  C    6.000083
   116  C    5.999983
   117  C    6.000043
   118  O    8.000076
   119  C    5.999997
   120  C    6.000012
   121  O    7.999999
   122  O    8.000003
   123  C    5.999995
   124  H    0.999988
   125  H    0.999980
   126  H    1.000011
   127  H    1.000010
   128  H    0.999997
   129  H    0.999989
   130  H    0.999966
   131  H    0.999988
   132  H    1.000029
   133  H    0.999989
   134  H    1.000013
   135  H    1.000003
   136  H    0.999957
   137  H    0.999952
   138  H    0.999964
   139  H    0.999985
   140  H    0.999976
   141  H    0.999960
   142  H    1.000001
   143  H    1.000006
   144  H    0.999975
   145  H    0.999995
   146  H    1.000001
   147  H    1.000007
   148  H    1.000030
   149  H    1.000005
   150  H    1.000016
   151  H    0.999997
   152  H    1.000047
   153  H    1.000050
   154  H    1.000054
   155  H    1.000029
   156  H    0.999999
   157  H    1.000009
   158  H    1.000019
 Sum of Mulliken charges = 624.00000

 Dipole moment (field-independent basis, Debye):
    X=             -0.9310    Y=             10.5144    Z=             -0.6465  Tot=             10.5754
 Quadrupole moment (field-independent basis, Debye-Ang):
   XX=            -62.2832   YY=             10.0974   ZZ=             -0.7684
   XY=            330.6538   XZ=            -18.9981   YZ=             -1.7685

 Normal termination of Gaussian 16 at Thu Sep 23 03:54:39 2021.
