 Gaussian 16, Revision A.03,
 Gaussian 16:  ES64L-G16RevA.03 25-Dec-2016

 -----------------------------------
 #p cam-b3lyp/Def2SVP td=(nstates=5)
 -----------------------------------

 --------------------------------
 TDDFT excited states in gaussian
 --------------------------------
 Symbolic Z-matrix:
 Charge =  0 Multiplicity = 1

                         Standard orientation:
 ---------------------------------------------------------------------
 Center     Atomic      Atomic             Coordinates (Angstroms)
 Number     Number       Type             X           Y           Z
 ---------------------------------------------------------------------
      1         12           0       21.060162   -0.649566    0.382359
      2          6           0       19.976006    1.829793   -1.705539
      3          6           0       22.203928    1.585454    2.572973
      4          6           0       22.220407   -3.150672    2.120416
      5          6           0       20.349917   -2.903340   -2.285713
      6          7           0       21.245918    1.512597    0.357484
      7          6           0       20.495085    2.285832   -0.466151
      8          6           0       20.324878    3.679574    0.073466
      9          6           0       21.302061    3.637948    1.316113
     10          6           0       21.689008    2.177077    1.395528
     11          6           0       22.493509    4.622195    1.234432
     12          6           0       18.760513    4.108883    0.366460
     13          6           0       18.267938    5.475040   -0.134770
     14          1           0       19.349647    6.578819   -0.354938
     15          7           0       21.879578   -0.771555    2.115799
     16          6           0       22.309849    0.232870    2.923077
     17          6           0       23.024054   -0.237005    4.085126
     18          6           0       22.858096   -1.588967    4.070963
     19          6           0       22.406339   -1.887830    2.676533
     20          6           0       23.735446    0.804144    4.929817
     21          6           0       23.262667   -2.623720    5.139714
     22          8           0       23.128911   -3.818404    5.011027
     23          6           0       23.883069   -2.020387    6.365140
     24          7           0       21.398685   -2.716444   -0.136181
     25          6           0       21.784325   -3.534784    0.859392
     26          6           0       21.737784   -4.999332    0.412534
     27          6           0       20.844281   -4.943857   -0.872902
     28          6           0       20.875226   -3.427003   -1.151192
     29          6           0       23.110894   -5.764289    0.186392
     30          6           0       19.350722   -5.416304   -0.707978
     31          6           0       18.395464   -4.777213    0.265309
     32          7           0       20.239222   -0.660580   -1.581622
     33          6           0       20.086158   -1.612975   -2.594371
     34          6           0       19.514736   -1.021731   -3.811040
     35          6           0       19.443931    0.344886   -3.501876
     36          6           0       19.892717    0.469713   -2.149393
     37          6           0       19.055328   -1.721309   -5.064459
     38          6           0       19.107031    1.608469   -3.976312
     39          8           0       18.714055    2.016559   -5.058038
     40          6           0       19.206597    2.587811   -2.778175
     41          6           0       19.943475    3.732190   -3.361698
     42          8           0       21.163651    3.784396   -3.533950
     43          8           0       19.085689    4.698900   -3.800311
     44          6           0       19.587294    5.767348   -4.670323
     45          1           0       22.388055    2.332062    3.348588
     46          1           0       22.536178   -4.040971    2.666889
     47          1           0       20.144169   -3.708011   -2.995737
     48          1           0       20.768568    4.410195   -0.602958
     49          1           0       20.727335    3.833053    2.221239
     50          1           0       23.392800    4.065424    0.971312
     51          1           0       22.642666    5.065495    2.218994
     52          1           0       22.241274    5.349317    0.462476
     53          1           0       18.664170    4.069930    1.451564
     54          1           0       18.077004    3.399767   -0.099450
     55          1           0       17.621006    5.937887    0.609976
     56          1           0       17.639087    5.339914   -1.014681
     57          1           0       24.514903    1.365549    4.414437
     58          1           0       24.387954    0.500172    5.748094
     59          1           0       22.887697    1.381907    5.298126
     60          1           0       23.216982   -1.281201    6.809521
     61          1           0       24.839039   -1.667981    5.978355
     62          1           0       24.070330   -2.658504    7.228022
     63          1           0       21.261957   -5.473906    1.271451
     64          1           0       21.376197   -5.434526   -1.688318
     65          1           0       23.940250   -5.093087    0.408156
     66          1           0       23.256140   -5.992554   -0.868829
     67          1           0       23.238510   -6.704735    0.724630
     68          1           0       19.522139   -6.465411   -0.465603
     69          1           0       18.796992   -5.364445   -1.644876
     70          1           0       18.940764   -4.088338    0.911767
     71          1           0       17.952798   -5.530683    0.916616
     72          1           0       17.608027   -4.157162   -0.162688
     73          1           0       19.726017   -1.550506   -5.905375
     74          1           0       18.048880   -1.391303   -5.322425
     75          1           0       19.149323   -2.775514   -4.802648
     76          1           0       18.225980    2.830111   -2.368151
     77          1           0       18.802269    6.189134   -5.299075
     78          1           0       20.499638    5.476729   -5.188910
     79          1           0       19.984700    6.612177   -4.108096
     80         12           0      -21.345076   -0.557181   -0.265293
     81          6           0      -19.094961    2.071705    0.374169
     82          6           0      -23.877659    1.497246    0.941334
     83          6           0      -23.369005   -3.171134   -0.579193
     84          6           0      -18.551121   -2.780377   -0.641722
     85          7           0      -21.465984    1.504508    0.573553
     86          6           0      -20.409097    2.424813    0.612312
     87          6           0      -20.975237    3.827214    0.736956
     88          6           0      -22.448404    3.627614    1.193736
     89          6           0      -22.614603    2.110430    0.878504
     90          6           0      -22.790417    4.074809    2.649683
     91          6           0      -20.812417    4.715100   -0.545207
     92          6           0      -20.652155    6.270370   -0.244915
     93          1           0      -20.727337    6.728195    1.214109
     94          7           0      -23.302369   -0.750225   -0.001580
     95          6           0      -24.191435    0.221307    0.424844
     96          6           0      -25.540605   -0.262007    0.362604
     97          6           0      -25.423002   -1.653660    0.047864
     98          6           0      -24.015547   -1.884449   -0.224568
     99          6           0      -26.783479    0.589864    0.763580
    100          6           0      -26.493492   -2.693930   -0.009047
    101          8           0      -26.219095   -3.910022   -0.146174
    102          6           0      -28.032435   -2.530979    0.163112
    103          7           0      -21.025361   -2.720235   -0.296798
    104          6           0      -22.039282   -3.572542   -0.538508
    105          6           0      -21.492879   -4.958010   -0.965810
    106          6           0      -19.963722   -4.851039   -0.966469
    107          6           0      -19.833000   -3.295862   -0.651133
    108          6           0      -22.118333   -6.071196   -0.181856
    109          6           0      -19.227789   -5.285728   -2.252076
    110          6           0      -19.623982   -4.514042   -3.534930
    111          7           0      -19.214925   -0.462698   -0.106996
    112          6           0      -18.276310   -1.379668   -0.438583
    113          6           0      -16.998845   -0.670588   -0.493264
    114          6           0      -17.220944    0.706626   -0.212368
    115          6           0      -18.605794    0.787954    0.072210
    116          6           0      -15.664329   -1.272266   -0.925641
    117          6           0      -16.609471    1.989875   -0.075221
    118          8           0      -15.482075    2.424905   -0.294527
    119          6           0      -17.860982    2.979296    0.400380
    120          6           0      -17.474989    3.688251    1.684916
    121          8           0      -17.542964    3.173306    2.783743
    122          8           0      -17.143841    5.001478    1.439468
    123          6           0      -16.389874    5.739788    2.447429
    124          1           0      -24.604189    2.264685    1.215699
    125          1           0      -24.092608   -3.967922   -0.761992
    126          1           0      -17.762772   -3.490321   -0.899301
    127          1           0      -20.439418    4.363069    1.520312
    128          1           0      -23.072921    4.193133    0.502768
    129          1           0      -23.204197    3.163799    3.080752
    130          1           0      -23.601199    4.804314    2.647649
    131          1           0      -21.996820    4.429156    3.307473
    132          1           0      -21.702859    4.676398   -1.171908
    133          1           0      -19.980373    4.327522   -1.131669
    134          1           0      -21.512458    6.774694   -0.685232
    135          1           0      -19.709963    6.588960   -0.690204
    136          1           0      -27.478881   -0.070126    1.283601
    137          1           0      -27.313495    0.990074   -0.100062
    138          1           0      -26.683722    1.483806    1.379040
    139          1           0      -28.423144   -1.800097   -0.545450
    140          1           0      -28.314065   -2.281580    1.186104
    141          1           0      -28.618395   -3.358205   -0.235694
    142          1           0      -21.927996   -5.149504   -1.945839
    143          1           0      -19.654471   -5.324267   -0.033858
    144          1           0      -22.893051   -6.598124   -0.739179
    145          1           0      -22.501665   -5.689009    0.764373
    146          1           0      -21.414245   -6.835692    0.148521
    147          1           0      -19.537363   -6.323909   -2.373989
    148          1           0      -18.148818   -5.238578   -2.101811
    149          1           0      -18.701737   -4.049992   -3.883949
    150          1           0      -20.367759   -3.774270   -3.238768
    151          1           0      -20.127216   -5.121258   -4.287516
    152          1           0      -15.104345   -0.615619   -1.590867
    153          1           0      -15.807644   -2.158498   -1.543161
    154          1           0      -15.125696   -1.578372   -0.028408
    155          1           0      -17.914395    3.734628   -0.384077
    156          1           0      -16.798156    5.446382    3.414906
    157          1           0      -16.468412    6.824570    2.374615
    158          1           0      -15.345513    5.477837    2.277565
 ---------------------------------------------------------------------

 SCF Done:  E(RCAM-B3LYP) =  -4069.81024786     A.U. after   18 cycles

 Excitation energies and oscillator strengths:

 Excited State   1:      Singlet-A      1.6591 eV  747.30 nm  f=0.4047  <S**2>=0.000
     309 -> 316        0.16730
     311 -> 313        0.68826
     309 <- 316        0.10534
 This state for optimization and/or second-order correction.
 Total Energy, E(TD-HF/TD-DFT) =  -4069.74927713
 Copying the excited state density for this state as the 1-particle RhoCI density.

 Excited State   2:      Singlet-A      1.7683 eV  701.14 nm  f=0.3744  <S**2>=0.000
     310 -> 315        0.19166
     312 -> 314        0.68182
     310 <- 315        0.10600

 Excited State   3:      Singlet-A      2.1919 eV  565.65 nm  f=0.1539  <S**2>=0.000
     309 -> 313        0.65721
     311 -> 316       -0.24507

 Excited State   4:      Singlet-A      2.2756 eV  544.83 nm  f=0.0579  <S**2>=0.000
     310 -> 314        0.61595
     312 -> 315       -0.33783

 Excited State   5:      Singlet-A      2.8675 eV  432.38 nm  f=0.0000  <S**2>=0.000
     312 -> 313        0.70710

 The electronic state is 1-A.
 Alpha  occ. eigenvalues --  -46.88901 -46.87936 -19.24250 -19.23889 -19.19915
 Alpha  occ. eigenvalues --  -19.19351 -19.19251 -19.18356 -19.18317 -19.17629
 Alpha  occ. eigenvalues --  -14.42543 -14.41688 -14.41425 -14.41039 -14.40265
 Alpha  occ. eigenvalues --  -14.39980 -14.39371 -14.38728 -10.39112 -10.38232
 Alpha  occ. eigenvalues --  -10.35945 -10.35581 -10.35470 -10.33524 -10.31534
 Alpha  occ. eigenvalues --  -10.31408 -10.30929 -10.30807 -10.30792 -10.30724
 Alpha  occ. eigenvalues --  -10.30635 -10.30563 -10.30461 -10.30430 -10.30344
 Alpha  occ. eigenvalues --  -10.30222 -10.30114 -10.29845 -10.29509 -10.29284
 Alpha  occ. eigenvalues --  -10.29031 -10.29007 -10.28945 -10.28906 -10.28696
 Alpha  occ. eigenvalues --  -10.28237 -10.28194 -10.28147 -10.28042 -10.27969
 Alpha  occ. eigenvalues --  -10.27938 -10.27845 -10.27831 -10.27805 -10.27790
 Alpha  occ. eigenvalues --  -10.27739 -10.27727 -10.27572 -10.27538 -10.27516
 Alpha  occ. eigenvalues --  -10.27512 -10.27468 -10.27468 -10.27448 -10.27305
 Alpha  occ. eigenvalues --  -10.27218 -10.26877 -10.26717 -10.26584 -10.26503
 Alpha  occ. eigenvalues --  -10.26474 -10.26325 -10.26252 -10.26241 -10.26064
 Alpha  occ. eigenvalues --  -10.26021 -10.26017 -10.25878 -10.25607 -10.25592
 Alpha  occ. eigenvalues --  -10.25543 -10.25286 -10.25192 -10.25034 -10.24900
 Alpha  occ. eigenvalues --  -10.24039  -3.17471  -3.16791  -1.92342  -1.91927
 Alpha  occ. eigenvalues --   -1.91785  -1.91656  -1.91260  -1.91124  -1.15442
 Alpha  occ. eigenvalues --   -1.14820  -1.11509  -1.09440  -1.08980  -1.08406
 Alpha  occ. eigenvalues --   -1.07449  -1.05899  -1.05567  -1.04677  -1.04322
 Alpha  occ. eigenvalues --   -1.04091  -1.03461  -1.03209  -1.02974  -1.02107
 Alpha  occ. eigenvalues --   -0.92319  -0.92181  -0.89608  -0.89202  -0.88544
 Alpha  occ. eigenvalues --   -0.88399  -0.88141  -0.88002  -0.87938  -0.87446
 Alpha  occ. eigenvalues --   -0.87361  -0.86794  -0.86536  -0.85308  -0.84351
 Alpha  occ. eigenvalues --   -0.83811  -0.83563  -0.83330  -0.82690  -0.82581
 Alpha  occ. eigenvalues --   -0.82180  -0.81059  -0.81041  -0.80621  -0.80504
 Alpha  occ. eigenvalues --   -0.80033  -0.79003  -0.78702  -0.77443  -0.76960
 Alpha  occ. eigenvalues --   -0.76944  -0.76766  -0.75831  -0.75680  -0.75189
 Alpha  occ. eigenvalues --   -0.74980  -0.72620  -0.72535  -0.71665  -0.71078
 Alpha  occ. eigenvalues --   -0.69919  -0.69621  -0.69130  -0.69006  -0.68328
 Alpha  occ. eigenvalues --   -0.68128  -0.67520  -0.67295  -0.65393  -0.65212
 Alpha  occ. eigenvalues --   -0.64952  -0.64907  -0.64724  -0.64146  -0.64127
 Alpha  occ. eigenvalues --   -0.63740  -0.61691  -0.61629  -0.61097  -0.60901
 Alpha  occ. eigenvalues --   -0.59483  -0.59296  -0.59263  -0.58788  -0.58066
 Alpha  occ. eigenvalues --   -0.57906  -0.57780  -0.57529  -0.57413  -0.56947
 Alpha  occ. eigenvalues --   -0.56284  -0.55892  -0.55757  -0.55294  -0.55098
 Alpha  occ. eigenvalues --   -0.54917  -0.54737  -0.54649  -0.54397  -0.53939
 Alpha  occ. eigenvalues --   -0.53614  -0.53469  -0.53185  -0.53044  -0.52770
 Alpha  occ. eigenvalues --   -0.52603  -0.52598  -0.52539  -0.52416  -0.52343
 Alpha  occ. eigenvalues --   -0.52274  -0.51982  -0.51610  -0.51314  -0.51237
 Alpha  occ. eigenvalues --   -0.51020  -0.50715  -0.50589  -0.50441  -0.50210
 Alpha  occ. eigenvalues --   -0.50011  -0.49510  -0.49479  -0.49313  -0.49275
 Alpha  occ. eigenvalues --   -0.49198  -0.49071  -0.49021  -0.48761  -0.48756
 Alpha  occ. eigenvalues --   -0.48600  -0.48553  -0.48182  -0.48042  -0.47991
 Alpha  occ. eigenvalues --   -0.47868  -0.47763  -0.47746  -0.47410  -0.47148
 Alpha  occ. eigenvalues --   -0.46777  -0.46677  -0.46634  -0.46491  -0.46369
 Alpha  occ. eigenvalues --   -0.46288  -0.45825  -0.45686  -0.45460  -0.45457
 Alpha  occ. eigenvalues --   -0.45228  -0.45197  -0.44806  -0.44713  -0.44543
 Alpha  occ. eigenvalues --   -0.44488  -0.44233  -0.44094  -0.44070  -0.43992
 Alpha  occ. eigenvalues --   -0.43889  -0.43811  -0.43444  -0.43397  -0.43152
 Alpha  occ. eigenvalues --   -0.43129  -0.43037  -0.42888  -0.42825  -0.42632
 Alpha  occ. eigenvalues --   -0.42416  -0.42408  -0.42117  -0.41918  -0.41841
 Alpha  occ. eigenvalues --   -0.41823  -0.41595  -0.41552  -0.41525  -0.41229
 Alpha  occ. eigenvalues --   -0.41039  -0.40728  -0.40726  -0.40600  -0.40498
 Alpha  occ. eigenvalues --   -0.40093  -0.39626  -0.39567  -0.39237  -0.39184
 Alpha  occ. eigenvalues --   -0.38673  -0.38446  -0.38174  -0.37796  -0.37628
 Alpha  occ. eigenvalues --   -0.36979  -0.36816  -0.36426  -0.36304  -0.36252
 Alpha  occ. eigenvalues --   -0.35962  -0.35130  -0.34337  -0.34006  -0.33736
 Alpha  occ. eigenvalues --   -0.33257  -0.33053  -0.32919  -0.32474  -0.31462
 Alpha  occ. eigenvalues --   -0.31342  -0.30787  -0.30731  -0.30694  -0.30289
 Alpha  occ. eigenvalues --   -0.30069  -0.29689  -0.29485  -0.24116  -0.23791
 Alpha  occ. eigenvalues --   -0.21377  -0.20586
 Alpha virt. eigenvalues --   -0.09238  -0.07807  -0.01731  -0.01404  -0.00044
 Alpha virt. eigenvalues --    0.00244   0.01366   0.02173   0.02299   0.03046
 Alpha virt. eigenvalues --    0.05046   0.05212   0.05393   0.06080   0.06132

 Mulliken charges:
               1
     1  Mg   0.850609
     2  C    0.012175
     3  C   -0.109477
     4  C   -0.070324
     5  C   -0.108741
     6  N   -0.257953
     7  C   -0.051841
     8  C   -0.000888
     9  C   -0.101375
    10  C    0.045280
    11  C    0.094742
    12  C    0.048918
    13  C   -0.072534
    14  H    0.012949
    15  N   -0.419482
    16  C    0.163747
    17  C   -0.108912
    18  C   -0.091227
    19  C    0.161836
    20  C    0.094049
    21  C    0.026222
    22  O   -0.168455
    23  C    0.036208
    24  N   -0.251382
    25  C    0.003038
    26  C   -0.036980
    27  C    0.001987
    28  C   -0.034623
    29  C    0.070322
    30  C    0.035375
    31  C    0.008529
    32  N   -0.312655
    33  C    0.155303
    34  C   -0.183084
    35  C    0.078815
    36  C    0.062757
    37  C    0.144276
    38  C   -0.022475
    39  O   -0.177541
    40  C    0.001698
    41  C    0.195311
    42  O   -0.239458
    43  O   -0.323681
    44  C    0.190522
    45  H   -0.033066
    46  H   -0.010563
    47  H   -0.035043
    48  H    0.022024
    49  H    0.005891
    50  H    0.023406
    51  H    0.016533
    52  H    0.024986
    53  H    0.008968
    54  H    0.018172
    55  H    0.025975
    56  H    0.040087
    57  H    0.037344
    58  H    0.007405
    59  H    0.045243
    60  H    0.040714
    61  H    0.049156
    62  H    0.021267
    63  H    0.008522
    64  H    0.002520
    65  H    0.016648
    66  H    0.005043
    67  H    0.028195
    68  H    0.006562
    69  H    0.007657
    70  H    0.009852
    71  H    0.017929
    72  H    0.021382
    73  H    0.036285
    74  H    0.041609
    75  H   -0.001559
    76  H    0.044099
    77  H    0.042911
    78  H    0.040254
    79  H    0.012017
    80  Mg   0.835505
    81  C    0.031232
    82  C   -0.057085
    83  C   -0.053476
    84  C   -0.058929
    85  N   -0.269270
    86  C   -0.044965
    87  C    0.001985
    88  C   -0.047199
    89  C   -0.014793
    90  C    0.074628
    91  C    0.034733
    92  C   -0.076598
    93  H    0.020603
    94  N   -0.405713
    95  C    0.178227
    96  C   -0.125154
    97  C   -0.000864
    98  C    0.109747
    99  C    0.101761
   100  C   -0.004283
   101  O   -0.244043
   102  C    0.051031
   103  N   -0.270196
   104  C    0.053233
   105  C   -0.078188
   106  C    0.027873
   107  C   -0.007803
   108  C    0.069553
   109  C    0.031267
   110  C    0.009327
   111  N   -0.344269
   112  C    0.135699
   113  C   -0.189177
   114  C    0.048240
   115  C    0.088862
   116  C    0.113935
   117  C    0.043011
   118  O   -0.170951
   119  C   -0.068817
   120  C    0.209036
   121  O   -0.207557
   122  O   -0.347370
   123  C    0.172023
   124  H   -0.027407
   125  H   -0.004049
   126  H   -0.028297
   127  H    0.008144
   128  H    0.006984
   129  H    0.010108
   130  H    0.012678
   131  H    0.036556
   132  H    0.005622
   133  H    0.014524
   134  H    0.032446
   135  H    0.046729
   136  H    0.016013
   137  H    0.027851
   138  H    0.023614
   139  H    0.009469
   140  H    0.052506
   141  H    0.022998
   142  H    0.010415
   143  H    0.009985
   144  H    0.021280
   145  H    0.019802
   146  H   -0.000310
   147  H    0.007283
   148  H    0.015364
   149  H    0.024421
   150  H    0.019926
   151  H    0.019870
   152  H    0.034836
   153  H   -0.002137
   154  H    0.035948
   155  H    0.036143
   156  H    0.043630
   157  H    0.035896
   158  H    0.046346
 Sum of Mulliken charges =  -0.00000

 Dipole moment (field-independent basis, Debye):
    X=             -4.1221    Y=              2.2799    Z=              3.1485  Tot=              5.6659
 Quadrupole moment (field-independent basis, Debye-Ang):
   XX=           -346.0217   YY=           -475.6288   ZZ=           -520.7955
   XY=            -59.4863   XZ=            158.0350   YZ=             36.3879

 Normal termination of Gaussian 16 at Tue Aug 31 15:15:22 2021.
