 Gaussian 16, Revision A.03,
 Gaussian 16:  ES64L-G16RevA.03 25-Dec-2016

 -----------------------------------------------------
 #p cam-b3lyp/Def2SVP td=(nstates=5) density=(current)
 -----------------------------------------------------

 --------------------------------
 TDDFT excited states in gaussian
 --------------------------------
 Symbolic Z-matrix:
 Charge =  0 Multiplicity = 1

                         Standard orientation:
 ---------------------------------------------------------------------
 Center     Atomic      Atomic             Coordinates (Angstroms)
 Number     Number       Type             X           Y           Z
 ---------------------------------------------------------------------
      1         12           0       -0.730856    0.076575    0.030670
      2          6           0        2.732108    0.174729    0.237107
      3          6           0       -0.638841   -3.288268   -0.177871
      4          6           0       -4.057382    0.123100   -0.339392
      5          6           0       -0.711987    3.577709    0.091323
      6          7           0        0.930772   -1.345794    0.067237
      7          6           0        2.210905   -1.123396    0.246267
      8          6           0        2.944421   -2.542403    0.289192
      9          6           0        1.970491   -3.311874   -0.577891
     10          6           0        0.617434   -2.637377   -0.185951
     11          6           0        2.379138   -3.209054   -2.063201
     12          6           0        3.243979   -2.973622    1.789050
     13          6           0        4.333269   -4.039850    1.940624
     14          1           0        4.843774   -4.746765    0.696903
     15          7           0       -2.148174   -1.365456   -0.042183
     16          6           0       -1.896782   -2.735463   -0.037849
     17          6           0       -3.208129   -3.432455    0.122556
     18          6           0       -4.257212   -2.423899    0.009600
     19          6           0       -3.462118   -1.186281   -0.208476
     20          6           0       -3.324098   -4.928766    0.292366
     21          6           0       -5.846850   -2.535097    0.131891
     22          8           0       -6.607857   -1.562643    0.086215
     23          6           0       -6.412171   -3.925628    0.332998
     24          7           0       -2.130487    1.581118   -0.212718
     25          6           0       -3.434644    1.365268   -0.362135
     26          6           0       -4.239346    2.676963   -0.617519
     27          6           0       -3.182185    3.719929   -0.227429
     28          6           0       -1.922509    2.933915   -0.041187
     29          6           0       -4.791906    2.828931   -2.062259
     30          6           0       -3.536405    4.766188    0.920918
     31          6           0       -2.933200    4.540016    2.268222
     32          7           0        0.685682    1.610470   -0.067761
     33          6           0        0.562935    2.955622    0.029259
     34          6           0        1.809732    3.633849    0.008222
     35          6           0        2.740141    2.551009    0.097110
     36          6           0        1.975677    1.407554    0.052069
     37          6           0        2.214244    5.083055   -0.071709
     38          6           0        4.113008    2.154560    0.199421
     39          8           0        5.141034    2.795172    0.244853
     40          6           0        4.186815    0.615018    0.452857
     41          6           0        5.139801    0.008678   -0.481643
     42          8           0        4.985628    0.049408   -1.692820
     43          8           0        6.328757   -0.459124    0.134251
     44          6           0        7.368323   -0.969339   -0.773381
     45          1           0       -0.562592   -4.368613   -0.309269
     46          1           0       -5.136089    0.103938   -0.503550
     47          1           0       -0.743165    4.668434    0.057991
     48          1           0        3.935212   -2.457997   -0.155211
     49          1           0        1.849710   -4.358290   -0.298786
     50          1           0        2.667931   -4.235571   -2.291453
     51          1           0        3.216892   -2.530363   -2.228674
     52          1           0        1.461319   -2.994472   -2.610171
     53          1           0        2.340567   -3.372158    2.251559
     54          1           0        3.629446   -2.072357    2.266317
     55          1           0        3.945444   -4.781589    2.638169
     56          1           0        5.173836   -3.559878    2.441199
     57          1           0       -2.477299   -5.333618    0.847733
     58          1           0       -3.436645   -5.524441   -0.612925
     59          1           0       -4.189404   -5.135636    0.921912
     60          1           0       -5.958763   -4.501347   -0.473543
     61          1           0       -7.490761   -4.001449    0.198247
     62          1           0       -6.179744   -4.276884    1.338467
     63          1           0       -5.107651    2.744230    0.037755
     64          1           0       -2.944328    4.246421   -1.151007
     65          1           0       -4.600087    3.868473   -2.329184
     66          1           0       -5.841390    2.584110   -2.218290
     67          1           0       -4.261596    2.118290   -2.696242
     68          1           0       -4.620299    4.873484    0.964451
     69          1           0       -3.120156    5.736919    0.652591
     70          1           0       -2.216928    5.343380    2.442061
     71          1           0       -2.264545    3.683090    2.358771
     72          1           0       -3.643314    4.576130    3.094452
     73          1           0        1.360175    5.745989   -0.214642
     74          1           0        2.999469    5.189939   -0.820669
     75          1           0        2.614492    5.527332    0.839874
     76          1           0        4.508558    0.386948    1.468665
     77          1           0        8.196346   -1.481832   -0.284278
     78          1           0        7.719005   -0.067237   -1.275452
     79          1           0        6.837871   -1.580307   -1.502802
 ---------------------------------------------------------------------

 SCF Done:  E(RCAM-B3LYP) =  -2034.91462070     A.U. after   17 cycles

 Excitation energies and oscillator strengths:

 Excited State   1:      Singlet-A      1.7356 eV  714.38 nm  f=0.3926  <S**2>=0.000
     155 ->158        -0.17792
     156 ->157         0.68646
     155 <-158        -0.10695
 This state for optimization and/or second-order correction.
 Total Energy, E(TD-HF/TD-DFT) =  -2034.85084006
 Copying the excited state density for this state as the 1-particle RhoCI density.

 Excited State   2:      Singlet-A      2.2152 eV  559.70 nm  f=0.1505  <S**2>=0.000
     155 ->157         0.65495
     156 ->158         0.25747

 Excited State   3:      Singlet-A      3.4515 eV  359.22 nm  f=0.0036  <S**2>=0.000
     151 ->157        -0.10107
     152 ->157        -0.27119
     153 ->157         0.20705
     154 ->157         0.59633

 Excited State   4:      Singlet-A      3.5298 eV  351.25 nm  f=0.0009  <S**2>=0.000
     152 ->157         0.18077
     152 ->160         0.11797
     153 ->157         0.55662
     153 ->159         0.17409
     153 ->160         0.24102
     154 ->157        -0.14884

 Excited State   5:      Singlet-A      3.5689 eV  347.40 nm  f=0.0330  <S**2>=0.000
     151 ->157         0.30469
     152 ->157         0.45176
     154 ->157         0.28895
     156 ->158        -0.30531

 The electronic state is 1-A.
 Alpha  occ. eigenvalues --  -46.87770 -19.23919 -19.20484 -19.19493 -19.17908
 Alpha  occ. eigenvalues --  -14.42018 -14.41465 -14.40116 -14.38639 -10.38880
 Alpha  occ. eigenvalues --  -10.37241 -10.34112 -10.31336 -10.31144 -10.31070
 Alpha  occ. eigenvalues --  -10.31003 -10.30598 -10.30462 -10.30313 -10.29857
 Alpha  occ. eigenvalues --  -10.29020 -10.28826 -10.28676 -10.28125 -10.28102
 Alpha  occ. eigenvalues --  -10.27963 -10.27955 -10.27634 -10.27597 -10.27555
 Alpha  occ. eigenvalues --  -10.27298 -10.27247 -10.27168 -10.27068 -10.26768
 Alpha  occ. eigenvalues --  -10.26337 -10.25899 -10.25769 -10.25748 -10.25676
 Alpha  occ. eigenvalues --  -10.25585 -10.24527 -10.24188  -3.16535  -1.91446
 Alpha  occ. eigenvalues --   -1.90955  -1.90882  -1.14504  -1.10490  -1.09581
 Alpha  occ. eigenvalues --   -1.06750  -1.05590  -1.04733  -1.04154  -1.03168
 Alpha  occ. eigenvalues --   -0.92137  -0.89214  -0.88586  -0.88291  -0.87302
 Alpha  occ. eigenvalues --   -0.87126  -0.86267  -0.84339  -0.83671  -0.82768
 Alpha  occ. eigenvalues --   -0.82572  -0.80960  -0.80075  -0.78593  -0.77248
 Alpha  occ. eigenvalues --   -0.76669  -0.75865  -0.75077  -0.72823  -0.71183
 Alpha  occ. eigenvalues --   -0.69257  -0.68758  -0.67937  -0.66622  -0.65059
 Alpha  occ. eigenvalues --   -0.64671  -0.64196  -0.64009  -0.61256  -0.60642
 Alpha  occ. eigenvalues --   -0.59594  -0.59135  -0.58023  -0.57986  -0.57626
 Alpha  occ. eigenvalues --   -0.55807  -0.55677  -0.55446  -0.54794  -0.53996
 Alpha  occ. eigenvalues --   -0.53694  -0.53364  -0.53002  -0.52666  -0.52342
 Alpha  occ. eigenvalues --   -0.52142  -0.51804  -0.51216  -0.50730  -0.50700
 Alpha  occ. eigenvalues --   -0.50351  -0.49896  -0.49510  -0.49240  -0.49013
 Alpha  occ. eigenvalues --   -0.48814  -0.48551  -0.48504  -0.47761  -0.47383
 Alpha  occ. eigenvalues --   -0.46882  -0.46461  -0.46296  -0.46027  -0.45792
 Alpha  occ. eigenvalues --   -0.45577  -0.44950  -0.44650  -0.44331  -0.44015
 Alpha  occ. eigenvalues --   -0.43951  -0.43450  -0.43326  -0.43228  -0.42983
 Alpha  occ. eigenvalues --   -0.42484  -0.42072  -0.41799  -0.41413  -0.41032
 Alpha  occ. eigenvalues --   -0.40977  -0.40530  -0.40223  -0.39979  -0.39191
 Alpha  occ. eigenvalues --   -0.38199  -0.38061  -0.37571  -0.36628  -0.36155
 Alpha  occ. eigenvalues --   -0.35630  -0.34444  -0.33942  -0.33257  -0.32199
 Alpha  occ. eigenvalues --   -0.31158  -0.30511  -0.30186  -0.29565  -0.23900
 Alpha  occ. eigenvalues --   -0.21396
 Alpha virt. eigenvalues --   -0.08840  -0.01260  -0.00021   0.02469   0.03499
 Alpha virt. eigenvalues --    0.04790   0.05319   0.06131   0.06298   0.07697
 Alpha virt. eigenvalues --    0.08379   0.08840   0.09050   0.09620   0.10796

 Mulliken charges:
               1
     1  Mg   0.832060
     2  C   -0.040223
     3  C   -0.086415
     4  C   -0.081119
     5  C   -0.120069
     6  N   -0.260178
     7  C   -0.040691
     8  C   -0.050379
     9  C   -0.057635
    10  C    0.032016
    11  C    0.107369
    12  C    0.058343
    13  C   -0.054675
    14  H    0.024736
    15  N   -0.394165
    16  C    0.178871
    17  C   -0.145821
    18  C   -0.077768
    19  C    0.105858
    20  C    0.097568
    21  C    0.051585
    22  O   -0.204972
    23  C    0.034996
    24  N   -0.312734
    25  C    0.071000
    26  C   -0.049354
    27  C    0.009538
    28  C    0.048051
    29  C    0.068963
    30  C    0.045426
    31  C    0.005463
    32  N   -0.284397
    33  C    0.123198
    34  C   -0.159948
    35  C    0.023784
    36  C    0.078936
    37  C    0.123336
    38  C    0.016000
    39  O   -0.166203
    40  C    0.056367
    41  C    0.179150
    42  O   -0.224836
    43  O   -0.371103
    44  C    0.187047
    45  H   -0.024777
    46  H   -0.011700
    47  H   -0.031458
    48  H   -0.000018
    49  H   -0.019873
    50  H    0.013600
    51  H    0.048031
    52  H    0.016786
    53  H    0.012855
    54  H    0.017671
    55  H    0.024069
    56  H    0.030665
    57  H    0.013643
    58  H    0.037056
    59  H    0.006026
    60  H    0.036622
    61  H    0.025334
    62  H    0.057536
    63  H    0.013436
    64  H    0.009059
    65  H    0.016706
    66  H    0.025565
    67  H    0.021782
    68  H    0.012102
    69  H    0.004737
    70  H   -0.002794
    71  H    0.028165
    72  H    0.019463
    73  H   -0.003690
    74  H    0.047160
    75  H    0.027172
    76  H    0.036336
    77  H    0.045124
    78  H    0.038693
    79  H    0.031941
 Sum of Mulliken charges =  -0.00000

 Dipole moment (field-independent basis, Debye):
    X=             -1.9179    Y=             -3.0455    Z=              1.4004  Tot=              3.8619
 Quadrupole moment (field-independent basis, Debye-Ang):
   XX=           -276.5430   YY=           -223.2845   ZZ=           -258.0703
   XY=            -20.1950   XZ=              3.7258   YZ=             -0.8068

 Normal termination of Gaussian 16 at Fri Oct  8 16:14:09 2021.
