 Gaussian 16, Revision A.03,
 Gaussian 16:  ES64L-G16RevA.03 25-Dec-2016

 -----------------------------------
 #p cam-b3lyp/Def2SVP td=(nstates=5)
 -----------------------------------

 --------------------------------
 TDDFT excited states in gaussian
 --------------------------------
 Symbolic Z-matrix:
 Charge =  0 Multiplicity = 1

                         Standard orientation:
 ---------------------------------------------------------------------
 Center     Atomic      Atomic             Coordinates (Angstroms)
 Number     Number       Type             X           Y           Z
 ---------------------------------------------------------------------
      1         12           0      -13.578300   -0.518139    0.305727
      2          6           0      -13.176508    2.677072   -1.112780
      3          6           0      -12.160783    0.745118    3.218702
      4          6           0      -13.677175   -3.620743    1.485406
      5          6           0      -14.191996   -1.835428   -2.977353
      6          7           0      -12.751679    1.446538    0.958095
      7          6           0      -12.820384    2.637330    0.221367
      8          6           0      -12.657018    3.815329    1.163920
      9          6           0      -12.063094    3.208955    2.467099
     10          6           0      -12.346887    1.699333    2.203767
     11          6           0      -10.585980    3.589138    2.799263
     12          6           0      -13.957241    4.664234    1.382032
     13          6           0      -13.688136    6.207947    1.663560
     14          1           0      -12.232917    6.676729    1.744742
     15          7           0      -13.131559   -1.267454    2.088073
     16          6           0      -12.633519   -0.584764    3.184449
     17          6           0      -12.565160   -1.444791    4.330489
     18          6           0      -12.876106   -2.751169    3.834227
     19          6           0      -13.276237   -2.568447    2.450421
     20          6           0      -12.058347   -0.981203    5.730285
     21          6           0      -12.823054   -4.061215    4.549989
     22          8           0      -12.973460   -5.147348    3.941163
     23          6           0      -12.509855   -4.351017    6.047474
     24          7           0      -13.618675   -2.491667   -0.635322
     25          6           0      -13.756685   -3.612335    0.098123
     26          6           0      -14.219703   -4.791056   -0.794567
     27          6           0      -14.363836   -4.239996   -2.217706
     28          6           0      -14.077000   -2.704493   -1.909398
     29          6           0      -13.370238   -6.009264   -0.596223
     30          6           0      -15.708175   -4.486345   -2.935622
     31          6           0      -16.955894   -3.912568   -2.219970
     32          7           0      -13.620042    0.203251   -1.706581
     33          6           0      -14.028803   -0.409294   -2.842135
     34          6           0      -14.209057    0.641053   -3.843125
     35          6           0      -13.921932    1.901722   -3.248801
     36          6           0      -13.510379    1.583310   -1.931741
     37          6           0      -14.758072    0.442210   -5.253424
     38          6           0      -13.854675    3.312064   -3.462926
     39          8           0      -14.182219    4.050535   -4.387989
     40          6           0      -13.274081    3.907245   -2.020671
     41          6           0      -12.037957    4.744897   -2.288954
     42          8           0      -10.932682    4.273356   -2.471229
     43          8           0      -12.325787    6.087548   -2.194550
     44          6           0      -11.399584    7.051119   -2.780410
     45          1           0      -11.827314    1.274986    4.113198
     46          1           0      -13.784110   -4.600991    1.953986
     47          1           0      -14.515063   -2.291612   -3.915108
     48          1           0      -11.932166    4.513228    0.745094
     49          1           0      -12.698280    3.540479    3.288014
     50          1           0      -10.109510    2.613251    2.886412
     51          1           0      -10.519483    4.047899    3.786515
     52          1           0      -10.008412    4.184722    2.092340
     53          1           0      -14.497867    4.342876    2.271746
     54          1           0      -14.614913    4.516749    0.526364
     55          1           0      -14.051219    6.420992    2.669107
     56          1           0      -14.222298    6.772533    0.899739
     57          1           0      -11.469492   -1.796717    6.151924
     58          1           0      -12.872664   -0.786181    6.427292
     59          1           0      -11.463470   -0.075416    5.846674
     60          1           0      -13.185926   -3.793541    6.696357
     61          1           0      -11.467518   -4.157931    6.301010
     62          1           0      -12.844378   -5.327858    6.394713
     63          1           0      -15.153052   -5.137662   -0.352779
     64          1           0      -13.459587   -4.567047   -2.732212
     65          1           0      -13.847881   -6.760475    0.033052
     66          1           0      -12.396128   -5.722005   -0.200049
     67          1           0      -13.099560   -6.520725   -1.520605
     68          1           0      -15.790742   -5.573404   -2.937570
     69          1           0      -15.659535   -4.119049   -3.961150
     70          1           0      -17.393749   -3.211359   -2.930098
     71          1           0      -16.598852   -3.413391   -1.319125
     72          1           0      -17.652462   -4.667940   -1.855898
     73          1           0      -15.478847    1.209450   -5.534704
     74          1           0      -15.351017   -0.469075   -5.325914
     75          1           0      -13.912019    0.340840   -5.933698
     76          1           0      -14.057370    4.584310   -1.678917
     77          1           0      -10.395507    6.686480   -2.562094
     78          1           0      -11.475181    8.061614   -2.378658
     79          1           0      -11.663474    7.101246   -3.836825
     80         12           0       12.765287   -0.796992   -0.148940
     81          6           0       14.946320    1.875284    0.496898
     82          6           0       10.258746    0.788790    1.375545
     83          6           0       10.929650   -3.390174   -0.764947
     84          6           0       15.748273   -2.735168   -0.807688
     85          7           0       12.701754    1.080531    0.906122
     86          6           0       13.596200    2.076819    0.919791
     87          6           0       13.111541    3.258801    1.719076
     88          6           0       11.761420    2.717744    2.339715
     89          6           0       11.538963    1.475997    1.498184
     90          6           0       11.710462    2.428294    3.875025
     91          6           0       12.804774    4.510593    0.748335
     92          6           0       13.420794    5.855985    1.254486
     93          1           0       13.359786    7.007815    0.111703
     94          7           0       10.856680   -1.125713    0.019429
     95          6           0        9.920180   -0.328229    0.654840
     96          6           0        8.609649   -0.829035    0.343771
     97          6           0        8.722448   -2.103662   -0.348492
     98          6           0       10.221017   -2.234004   -0.511748
     99          6           0        7.366653   -0.085918    0.912168
    100          6           0        7.748180   -3.144289   -0.888688
    101          8           0        8.041023   -4.157517   -1.548896
    102          6           0        6.327297   -2.775131   -0.647575
    103          7           0       13.352330   -2.779043   -0.547733
    104          6           0       12.308316   -3.646754   -0.753534
    105          6           0       12.816965   -5.071386   -0.976856
    106          6           0       14.311150   -4.813153   -1.304160
    107          6           0       14.525658   -3.381726   -0.808472
    108          6           0       12.457995   -5.974960    0.268872
    109          6           0       14.733415   -4.990816   -2.824257
    110          6           0       16.212207   -5.307289   -3.099250
    111          7           0       14.922579   -0.526150   -0.203561
    112          6           0       15.936275   -1.391655   -0.483422
    113          6           0       17.210110   -0.709086   -0.525191
    114          6           0       16.823680    0.606081   -0.208285
    115          6           0       15.444863    0.661062    0.040814
    116          6           0       18.643141   -1.205081   -0.826187
    117          6           0       17.344578    1.934911   -0.047508
    118          8           0       18.405978    2.443311   -0.297601
    119          6           0       16.128801    2.785294    0.593104
    120          6           0       16.223430    4.023468   -0.184744
    121          8           0       15.766406    4.277216   -1.327893
    122          8           0       16.935643    4.863171    0.586298
    123          6           0       17.240180    6.195324    0.062199
    124          1           0        9.411290    1.338076    1.791300
    125          1           0       10.308661   -4.243620   -1.045758
    126          1           0       16.603074   -3.344569   -1.108350
    127          1           0       13.809216    3.628393    2.471089
    128          1           0       10.873166    3.321966    2.154301
    129          1           0       11.647772    1.348011    4.005904
    130          1           0       10.790813    2.900372    4.220253
    131          1           0       12.545145    2.751644    4.496009
    132          1           0       11.754715    4.679840    0.507027
    133          1           0       13.169582    4.223493   -0.237927
    134          1           0       14.462896    5.715619    1.540834
    135          1           0       12.894898    6.323280    2.086706
    136          1           0        7.062123    0.662537    0.181907
    137          1           0        7.598980    0.588518    1.737256
    138          1           0        6.586621   -0.697861    1.364530
    139          1           0        6.013616   -1.844030   -1.118218
    140          1           0        6.281652   -2.757557    0.442011
    141          1           0        5.616827   -3.543490   -0.953771
    142          1           0       12.261585   -5.440280   -1.839263
    143          1           0       14.925841   -5.530186   -0.760067
    144          1           0       13.354842   -6.188709    0.850180
    145          1           0       12.015616   -6.955373    0.094170
    146          1           0       11.824994   -5.525636    1.034349
    147          1           0       14.601104   -3.985842   -3.225952
    148          1           0       14.166169   -5.700886   -3.426417
    149          1           0       16.714505   -4.496129   -3.627931
    150          1           0       16.468076   -6.205145   -3.662194
    151          1           0       16.690185   -5.311846   -2.120654
    152          1           0       18.642571   -2.268531   -0.587068
    153          1           0       19.378705   -0.669479   -0.224580
    154          1           0       18.794812   -1.067021   -1.896666
    155          1           0       16.355876    3.020448    1.633081
    156          1           0       16.669799    6.928581    0.632108
    157          1           0       17.126673    6.249042   -1.020020
    158          1           0       18.278327    6.424653    0.302212
 ---------------------------------------------------------------------

 SCF Done:  E(RCAM-B3LYP) =  -4069.80993705     A.U. after   17 cycles

 Excitation energies and oscillator strengths:

 Excited State   1:      Singlet-A      1.6590 eV  747.35 nm  f=0.4015  <S**2>=0.000
     309 -> 316        0.16730
     311 -> 313        0.68820
     309 <- 316        0.10535
 This state for optimization and/or second-order correction.
 Total Energy, E(TD-HF/TD-DFT) =  -4069.74897062
 Copying the excited state density for this state as the 1-particle RhoCI density.

 Excited State   2:      Singlet-A      1.7274 eV  717.74 nm  f=0.3828  <S**2>=0.000
     310 -> 315       -0.19746
     312 -> 314        0.68089
     310 <- 315       -0.11062

 Excited State   3:      Singlet-A      2.1917 eV  565.69 nm  f=0.1518  <S**2>=0.000
     309 -> 313        0.65714
     311 -> 316       -0.24518

 Excited State   4:      Singlet-A      2.2498 eV  551.08 nm  f=0.0633  <S**2>=0.000
     310 -> 314        0.61696
     312 -> 315        0.33579

 Excited State   5:      Singlet-A      2.8526 eV  434.64 nm  f=0.0000  <S**2>=0.000
     312 -> 313        0.70709

 The electronic state is 1-A.
 Alpha  occ. eigenvalues --  -46.88955 -46.87535 -19.24838 -19.24304 -19.19620
 Alpha  occ. eigenvalues --  -19.19402 -19.19306 -19.19004 -19.18410 -19.18397
 Alpha  occ. eigenvalues --  -14.42597 -14.42562 -14.41693 -14.41478 -14.40319
 Alpha  occ. eigenvalues --  -14.39425 -14.39419 -14.38369 -10.39166 -10.38538
 Alpha  occ. eigenvalues --  -10.35944 -10.35632 -10.35524 -10.34627 -10.31678
 Alpha  occ. eigenvalues --  -10.31585 -10.31461 -10.31155 -10.30985 -10.30979
 Alpha  occ. eigenvalues --  -10.30849 -10.30774 -10.30752 -10.30567 -10.30515
 Alpha  occ. eigenvalues --  -10.30396 -10.30236 -10.30078 -10.30001 -10.29899
 Alpha  occ. eigenvalues --  -10.29562 -10.29439 -10.29342 -10.29192 -10.29086
 Alpha  occ. eigenvalues --  -10.28691 -10.28501 -10.28338 -10.28290 -10.28248
 Alpha  occ. eigenvalues --  -10.28208 -10.28023 -10.27992 -10.27906 -10.27828
 Alpha  occ. eigenvalues --  -10.27800 -10.27707 -10.27699 -10.27676 -10.27633
 Alpha  occ. eigenvalues --  -10.27575 -10.27573 -10.27567 -10.27525 -10.27495
 Alpha  occ. eigenvalues --  -10.27269 -10.26924 -10.26773 -10.26759 -10.26636
 Alpha  occ. eigenvalues --  -10.26617 -10.26477 -10.26395 -10.26383 -10.26322
 Alpha  occ. eigenvalues --  -10.26221 -10.26117 -10.26001 -10.25838 -10.25784
 Alpha  occ. eigenvalues --  -10.25649 -10.25638 -10.25339 -10.25329 -10.24945
 Alpha  occ. eigenvalues --  -10.24403  -3.17525  -3.16378  -1.92395  -1.91981
 Alpha  occ. eigenvalues --   -1.91839  -1.91263  -1.90846  -1.90693  -1.15906
 Alpha  occ. eigenvalues --   -1.15496  -1.10740  -1.09491  -1.09341  -1.08460
 Alpha  occ. eigenvalues --   -1.07504  -1.05518  -1.05156  -1.04376  -1.04267
 Alpha  occ. eigenvalues --   -1.03555  -1.03515  -1.03262  -1.02374  -1.02161
 Alpha  occ. eigenvalues --   -0.92679  -0.92235  -0.89249  -0.89074  -0.88602
 Alpha  occ. eigenvalues --   -0.88230  -0.88195  -0.88011  -0.87414  -0.87412
 Alpha  occ. eigenvalues --   -0.86929  -0.86849  -0.86227  -0.85360  -0.84499
 Alpha  occ. eigenvalues --   -0.83865  -0.83792  -0.83381  -0.82435  -0.82234
 Alpha  occ. eigenvalues --   -0.82232  -0.81234  -0.81113  -0.80675  -0.80265
 Alpha  occ. eigenvalues --   -0.80089  -0.78758  -0.78177  -0.77284  -0.76994
 Alpha  occ. eigenvalues --   -0.76887  -0.76823  -0.75889  -0.75885  -0.75369
 Alpha  occ. eigenvalues --   -0.75033  -0.72752  -0.72588  -0.72098  -0.71131
 Alpha  occ. eigenvalues --   -0.69967  -0.69210  -0.69184  -0.68763  -0.68382
 Alpha  occ. eigenvalues --   -0.67883  -0.67575  -0.67178  -0.66020  -0.65510
 Alpha  occ. eigenvalues --   -0.65266  -0.64964  -0.64827  -0.64410  -0.64194
 Alpha  occ. eigenvalues --   -0.64179  -0.61738  -0.61683  -0.60955  -0.60194
 Alpha  occ. eigenvalues --   -0.59808  -0.59538  -0.59114  -0.58842  -0.58605
 Alpha  occ. eigenvalues --   -0.58118  -0.57939  -0.57466  -0.57123  -0.56999
 Alpha  occ. eigenvalues --   -0.56287  -0.55946  -0.55894  -0.55806  -0.55403
 Alpha  occ. eigenvalues --   -0.54969  -0.54792  -0.54333  -0.53991  -0.53886
 Alpha  occ. eigenvalues --   -0.53527  -0.53392  -0.53175  -0.53096  -0.52821
 Alpha  occ. eigenvalues --   -0.52742  -0.52593  -0.52516  -0.52399  -0.52187
 Alpha  occ. eigenvalues --   -0.52037  -0.51566  -0.51396  -0.51369  -0.51071
 Alpha  occ. eigenvalues --   -0.50993  -0.50765  -0.50685  -0.50355  -0.50125
 Alpha  occ. eigenvalues --   -0.50068  -0.49979  -0.49563  -0.49393  -0.49326
 Alpha  occ. eigenvalues --   -0.49251  -0.49074  -0.49015  -0.48895  -0.48815
 Alpha  occ. eigenvalues --   -0.48654  -0.48454  -0.48238  -0.48076  -0.47990
 Alpha  occ. eigenvalues --   -0.47923  -0.47805  -0.47464  -0.47385  -0.47225
 Alpha  occ. eigenvalues --   -0.46841  -0.46728  -0.46467  -0.46426  -0.46344
 Alpha  occ. eigenvalues --   -0.46314  -0.45879  -0.45868  -0.45680  -0.45511
 Alpha  occ. eigenvalues --   -0.45489  -0.45248  -0.45114  -0.44854  -0.44769
 Alpha  occ. eigenvalues --   -0.44591  -0.44286  -0.44120  -0.44042  -0.44001
 Alpha  occ. eigenvalues --   -0.43698  -0.43525  -0.43449  -0.43438  -0.43186
 Alpha  occ. eigenvalues --   -0.43092  -0.43062  -0.42836  -0.42826  -0.42681
 Alpha  occ. eigenvalues --   -0.42626  -0.42460  -0.42178  -0.42043  -0.41970
 Alpha  occ. eigenvalues --   -0.41896  -0.41865  -0.41645  -0.41579  -0.41311
 Alpha  occ. eigenvalues --   -0.41170  -0.40783  -0.40781  -0.40655  -0.40548
 Alpha  occ. eigenvalues --   -0.40287  -0.40149  -0.39673  -0.39563  -0.39294
 Alpha  occ. eigenvalues --   -0.38745  -0.38721  -0.37852  -0.37807  -0.37684
 Alpha  occ. eigenvalues --   -0.37348  -0.36965  -0.36870  -0.36359  -0.36016
 Alpha  occ. eigenvalues --   -0.35473  -0.35191  -0.34061  -0.33948  -0.33900
 Alpha  occ. eigenvalues --   -0.33789  -0.33107  -0.32940  -0.31677  -0.31516
 Alpha  occ. eigenvalues --   -0.31278  -0.30839  -0.30784  -0.30511  -0.30343
 Alpha  occ. eigenvalues --   -0.30296  -0.29573  -0.29537  -0.24169  -0.24150
 Alpha  occ. eigenvalues --   -0.21430  -0.21081
 Alpha virt. eigenvalues --   -0.09292  -0.08402  -0.02264  -0.01458  -0.00252
 Alpha virt. eigenvalues --   -0.00097   0.01313   0.02120   0.02439   0.03182
 Alpha virt. eigenvalues --    0.04816   0.05158   0.05173   0.05335   0.06023

 Mulliken charges:
               1
     1  Mg   0.835506
     2  C    0.031214
     3  C   -0.057251
     4  C   -0.053437
     5  C   -0.058828
     6  N   -0.269272
     7  C   -0.045015
     8  C    0.001984
     9  C   -0.047143
    10  C   -0.014824
    11  C    0.074669
    12  C    0.034729
    13  C   -0.076556
    14  H    0.020462
    15  N   -0.405732
    16  C    0.178260
    17  C   -0.125226
    18  C   -0.000872
    19  C    0.109711
    20  C    0.101804
    21  C   -0.004300
    22  O   -0.244009
    23  C    0.051029
    24  N   -0.270198
    25  C    0.053197
    26  C   -0.078180
    27  C    0.027916
    28  C   -0.007853
    29  C    0.069540
    30  C    0.031193
    31  C    0.009321
    32  N   -0.344274
    33  C    0.135695
    34  C   -0.189108
    35  C    0.048262
    36  C    0.088883
    37  C    0.113927
    38  C    0.043054
    39  O   -0.170829
    40  C   -0.068848
    41  C    0.209039
    42  O   -0.207629
    43  O   -0.347353
    44  C    0.172030
    45  H   -0.027530
    46  H   -0.004006
    47  H   -0.028180
    48  H    0.008099
    49  H    0.006993
    50  H    0.009961
    51  H    0.012581
    52  H    0.036433
    53  H    0.005654
    54  H    0.014591
    55  H    0.032453
    56  H    0.046800
    57  H    0.015896
    58  H    0.027871
    59  H    0.023449
    60  H    0.009492
    61  H    0.052363
    62  H    0.023051
    63  H    0.010463
    64  H    0.010039
    65  H    0.021322
    66  H    0.019732
    67  H   -0.000215
    68  H    0.007368
    69  H    0.015435
    70  H    0.024451
    71  H    0.019877
    72  H    0.019927
    73  H    0.034903
    74  H   -0.002068
    75  H    0.036049
    76  H    0.036177
    77  H    0.043514
    78  H    0.035908
    79  H    0.046460
    80  Mg   0.852780
    81  C    0.059575
    82  C   -0.070825
    83  C   -0.057458
    84  C   -0.106755
    85  N   -0.271021
    86  C    0.000270
    87  C   -0.067207
    88  C   -0.030287
    89  C    0.007095
    90  C    0.073769
    91  C    0.057205
    92  C   -0.089413
    93  H    0.003789
    94  N   -0.473342
    95  C    0.176012
    96  C   -0.108065
    97  C   -0.095433
    98  C    0.154313
    99  C    0.089158
   100  C    0.047473
   101  O   -0.208915
   102  C    0.040281
   103  N   -0.291877
   104  C    0.056820
   105  C   -0.031484
   106  C   -0.009900
   107  C    0.036993
   108  C    0.062913
   109  C    0.033911
   110  C   -0.009085
   111  N   -0.270796
   112  C    0.124381
   113  C   -0.199783
   114  C    0.032749
   115  C    0.059060
   116  C    0.139561
   117  C    0.025803
   118  O   -0.148554
   119  C   -0.069259
   120  C    0.203341
   121  O   -0.256587
   122  O   -0.319736
   123  C    0.175317
   124  H   -0.039463
   125  H    0.000641
   126  H   -0.042919
   127  H    0.011859
   128  H    0.003442
   129  H    0.020764
   130  H    0.015802
   131  H    0.020469
   132  H    0.007640
   133  H    0.035383
   134  H    0.036264
   135  H    0.033541
   136  H    0.030139
   137  H    0.006096
   138  H    0.032791
   139  H    0.052792
   140  H    0.030630
   141  H    0.021001
   142  H    0.015968
   143  H    0.001351
   144  H   -0.000391
   145  H    0.021584
   146  H    0.019800
   147  H    0.012343
   148  H    0.017963
   149  H    0.013128
   150  H    0.020626
   151  H    0.010203
   152  H    0.013390
   153  H    0.043138
   154  H    0.041332
   155  H    0.043480
   156  H    0.031975
   157  H    0.059383
   158  H    0.031069
 Sum of Mulliken charges =  -0.00000

 Dipole moment (field-independent basis, Debye):
    X=             -5.0133    Y=              0.2682    Z=              8.3154  Tot=              9.7134
 Quadrupole moment (field-independent basis, Debye-Ang):
   XX=           -542.2718   YY=           -498.0602   ZZ=           -499.6237
   XY=            -26.7415   XZ=            -13.5761   YZ=             41.1672

 Normal termination of Gaussian 16 at Wed Sep  1 10:09:16 2021.
