 Gaussian 16, Revision A.03,
 Gaussian 16:  ES64L-G16RevA.03 25-Dec-2016

 -----------------------------------
 #p cam-b3lyp/Def2SVP td=(nstates=5)
 -----------------------------------

 --------------------------------
 TDDFT excited states in gaussian
 --------------------------------
 Symbolic Z-matrix:
 Charge =  0 Multiplicity = 1

                         Standard orientation:
 ---------------------------------------------------------------------
 Center     Atomic      Atomic             Coordinates (Angstroms)
 Number     Number       Type             X           Y           Z
 ---------------------------------------------------------------------
      1         12           0      -11.215197   -0.073319   -0.033437
      2          6           0       -8.019401   -1.018848    1.238787
      3          6           0      -10.220158    3.066211    0.373055
      4          6           0      -13.696202    0.917170   -2.103472
      5          6           0      -11.468808   -3.439053   -1.176990
      6          7           0       -9.452814    0.869814    0.800919
      7          6           0       -8.279960    0.311958    1.354294
      8          6           0       -7.271046    1.387886    1.865981
      9          6           0       -8.069118    2.697054    1.606828
     10          6           0       -9.379759    2.196176    0.963942
     11          6           0       -8.188998    3.437494    2.949249
     12          6           0       -5.827962    1.421727    1.200244
     13          6           0       -4.649245    1.068623    2.099948
     14          1           0       -3.513056    2.104607    2.221108
     15          7           0      -11.934770    1.691818   -0.691239
     16          6           0      -11.349497    2.923489   -0.398490
     17          6           0      -12.148719    3.976593   -0.880013
     18          6           0      -13.263206    3.426242   -1.485683
     19          6           0      -13.032109    1.995889   -1.478441
     20          6           0      -11.915914    5.528077   -0.755181
     21          6           0      -14.392637    4.259431   -2.044678
     22          8           0      -14.483461    5.443697   -1.912698
     23          6           0      -15.586338    3.431669   -2.732846
     24          7           0      -12.375122   -1.084577   -1.499060
     25          6           0      -13.365931   -0.439592   -2.187794
     26          6           0      -13.943703   -1.472475   -3.239762
     27          6           0      -13.366583   -2.854758   -2.891842
     28          6           0      -12.312787   -2.452923   -1.790643
     29          6           0      -15.431902   -1.410477   -3.435742
     30          6           0      -12.637690   -3.420672   -4.104239
     31          6           0      -12.461226   -4.914545   -4.168932
     32          7           0      -10.126984   -1.948188    0.217275
     33          6           0      -10.374996   -3.205447   -0.279720
     34          6           0       -9.404546   -4.122031    0.197990
     35          6           0       -8.435526   -3.359383    0.891954
     36          6           0       -8.891927   -2.018166    0.753354
     37          6           0       -9.302650   -5.563394   -0.103412
     38          6           0       -7.165323   -3.308739    1.628452
     39          8           0       -6.444214   -4.248577    1.989322
     40          6           0       -6.836889   -1.793523    1.916380
     41          6           0       -6.954405   -1.545566    3.328603
     42          8           0       -8.076950   -1.463243    3.880950
     43          8           0       -5.705456   -1.490171    3.831491
     44          6           0       -5.524446   -1.050402    5.242114
     45          1           0       -9.941779    4.111118    0.527410
     46          1           0      -14.532984    1.269944   -2.710128
     47          1           0      -11.558069   -4.505064   -1.394826
     48          1           0       -7.119471    1.268297    2.938701
     49          1           0       -7.598878    3.356572    0.878068
     50          1           0       -8.884163    4.261670    2.791945
     51          1           0       -7.263335    3.849989    3.350393
     52          1           0       -8.589334    2.801702    3.739731
     53          1           0       -5.668419    2.477705    0.982065
     54          1           0       -5.825478    0.834378    0.281967
     55          1           0       -4.242940    0.121676    1.742900
     56          1           0       -5.007861    0.930546    3.120572
     57          1           0      -11.977535    5.915572   -1.772319
     58          1           0      -10.936405    5.761549   -0.338152
     59          1           0      -12.570669    6.053071   -0.059689
     60          1           0      -16.354327    4.167846   -2.968315
     61          1           0      -15.861134    2.713877   -1.959588
     62          1           0      -15.083058    2.986186   -3.590903
     63          1           0      -13.509338   -1.133691   -4.180983
     64          1           0      -14.071109   -3.608064   -2.539453
     65          1           0      -15.780718   -2.403384   -3.718267
     66          1           0      -15.597211   -0.679857   -4.227805
     67          1           0      -15.981261   -0.995775   -2.591369
     68          1           0      -11.652518   -2.978742   -4.256141
     69          1           0      -13.109808   -3.126930   -5.041725
     70          1           0      -13.053556   -5.444821   -3.423465
     71          1           0      -11.406657   -5.131517   -3.997693
     72          1           0      -12.603162   -5.276075   -5.187341
     73          1           0      -10.279472   -6.002398   -0.308839
     74          1           0       -8.861143   -6.015209    0.785196
     75          1           0       -8.692318   -5.627091   -1.004557
     76          1           0       -5.903034   -1.437737    1.481116
     77          1           0       -4.659373   -1.655039    5.518324
     78          1           0       -6.398959   -1.209157    5.872399
     79          1           0       -5.114114   -0.041496    5.296637
     80         12           0       10.864253    0.063602   -0.470718
     81          6           0        8.248013    0.908580    1.705532
     82          6           0       10.506022   -3.211099    0.530388
     83          6           0       13.349459   -0.701861   -2.502835
     84          6           0       11.186199    3.473976   -1.250712
     85          7           0        9.458133   -0.973476    0.891165
     86          6           0        8.460442   -0.456682    1.717936
     87          6           0        7.505485   -1.565249    2.311904
     88          6           0        8.361384   -2.784224    2.026874
     89          6           0        9.532960   -2.310220    1.071114
     90          6           0        9.041699   -3.323366    3.367678
     91          6           0        6.234682   -1.534224    1.351634
     92          6           0        4.804217   -1.663972    2.037954
     93          1           0        4.903111   -2.550257    3.253183
     94          7           0       11.858314   -1.643446   -0.792865
     95          6           0       11.598258   -2.856749   -0.313940
     96          6           0       12.482194   -3.862068   -0.841831
     97          6           0       13.205820   -3.211952   -1.861093
     98          6           0       12.860336   -1.747592   -1.717431
     99          6           0       12.525278   -5.290094   -0.437368
    100          6           0       14.078757   -3.778564   -2.961821
    101          8           0       14.445956   -3.113292   -3.937003
    102          6           0       14.634194   -5.200265   -2.839963
    103          7           0       12.130997    1.266295   -1.675308
    104          6           0       13.043132    0.620138   -2.475899
    105          6           0       13.666889    1.644936   -3.420933
    106          6           0       12.880472    3.010138   -3.109355
    107          6           0       11.962274    2.587601   -1.992792
    108          6           0       15.227177    1.646150   -3.250277
    109          6           0       12.180912    3.684177   -4.279268
    110          6           0       12.552805    5.190296   -4.450947
    111          7           0        9.934787    1.828831    0.120833
    112          6           0       10.190594    3.179032   -0.275593
    113          6           0        9.330678    4.069105    0.419244
    114          6           0        8.554164    3.199200    1.203157
    115          6           0        9.005758    1.876980    1.011217
    116          6           0        9.194084    5.555577    0.340610
    117          6           0        7.481696    3.124371    2.142932
    118          8           0        6.800168    3.965657    2.680056
    119          6           0        7.187388    1.620405    2.406076
    120          6           0        7.080214    1.399964    3.871298
    121          8           0        7.984081    1.427748    4.701771
    122          8           0        5.801945    1.102974    4.124711
    123          6           0        5.466163    0.762202    5.491270
    124          1           0       10.413506   -4.292203    0.652244
    125          1           0       14.172327   -1.019495   -3.148142
    126          1           0       11.209196    4.534783   -1.509064
    127          1           0        7.250324   -1.208744    3.309372
    128          1           0        7.770952   -3.549510    1.524173
    129          1           0        8.794564   -2.710758    4.234929
    130          1           0       10.122436   -3.320314    3.227223
    131          1           0        8.668047   -4.343205    3.460059
    132          1           0        6.239384   -2.327887    0.605108
    133          1           0        6.306255   -0.604059    0.787315
    134          1           0        4.131530   -2.251317    1.412850
    135          1           0        4.297069   -0.700286    2.091627
    136          1           0       12.162161   -5.864353   -1.290790
    137          1           0       11.858865   -5.486989    0.401255
    138          1           0       13.524477   -5.635150   -0.173254
    139          1           0       15.459479   -5.132545   -3.548405
    140          1           0       13.911518   -5.980760   -3.080927
    141          1           0       15.123279   -5.467527   -1.903423
    142          1           0       13.538538    1.445583   -4.484795
    143          1           0       13.589572    3.724478   -2.690829
    144          1           0       15.632395    1.642443   -4.262211
    145          1           0       15.607559    0.823360   -2.644863
    146          1           0       15.589019    2.624446   -2.931684
    147          1           0       11.094191    3.609545   -4.255147
    148          1           0       12.637523    3.223728   -5.156534
    149          1           0       13.350258    5.471397   -3.762894
    150          1           0       11.748945    5.844303   -4.113641
    151          1           0       12.871180    5.406293   -5.471000
    152          1           0        8.678588    5.669502   -0.613409
    153          1           0       10.201623    5.963828    0.416852
    154          1           0        8.533750    5.955363    1.108890
    155          1           0        6.176423    1.495994    2.015752
    156          1           0        5.801596    1.551361    6.164765
    157          1           0        5.939258   -0.128457    5.906175
    158          1           0        4.379590    0.679854    5.522969
 ---------------------------------------------------------------------

 SCF Done:  E(RCAM-B3LYP) =  -4069.83616179     A.U. after   19 cycles

 Excitation energies and oscillator strengths:

 Excited State   1:      Singlet-A      1.7223 eV  719.89 nm  f=0.1482  <S**2>=0.000
     309 -> 315        0.16001
     311 -> 313        0.64401
     312 -> 314       -0.24090
 This state for optimization and/or second-order correction.
 Total Energy, E(TD-HF/TD-DFT) =  -4069.77286940
 Copying the excited state density for this state as the 1-particle RhoCI density.

 Excited State   2:      Singlet-A      1.7268 eV  718.00 nm  f=0.6149  <S**2>=0.000
     310 -> 316        0.15113
     311 -> 313        0.24057
     312 -> 314        0.64424

 Excited State   3:      Singlet-A      2.2583 eV  549.01 nm  f=0.1229  <S**2>=0.000
     309 -> 313        0.63646
     311 -> 315       -0.28904

 Excited State   4:      Singlet-A      2.2843 eV  542.76 nm  f=0.1201  <S**2>=0.000
     310 -> 314        0.63618
     312 -> 316       -0.28251

 Excited State   5:      Singlet-A      2.9123 eV  425.72 nm  f=0.0000  <S**2>=0.000
     312 -> 313        0.70705

 The electronic state is 1-A.
 Alpha  occ. eigenvalues --  -46.88514 -46.87758 -19.26516 -19.25274 -19.19906
 Alpha  occ. eigenvalues --  -19.19662 -19.19647 -19.18802 -19.18751 -19.17409
 Alpha  occ. eigenvalues --  -14.42534 -14.42227 -14.42186 -14.41609 -14.40211
 Alpha  occ. eigenvalues --  -14.39508 -14.38474 -14.38461 -10.39516 -10.38322
 Alpha  occ. eigenvalues --  -10.36222 -10.35476 -10.35407 -10.33158 -10.32850
 Alpha  occ. eigenvalues --  -10.31892 -10.31645 -10.31498 -10.31392 -10.31006
 Alpha  occ. eigenvalues --  -10.30997 -10.30675 -10.30619 -10.30597 -10.30477
 Alpha  occ. eigenvalues --  -10.30434 -10.30105 -10.29622 -10.29056 -10.28976
 Alpha  occ. eigenvalues --  -10.28957 -10.28902 -10.28689 -10.28414 -10.28322
 Alpha  occ. eigenvalues --  -10.28312 -10.28216 -10.28118 -10.28027 -10.27968
 Alpha  occ. eigenvalues --  -10.27965 -10.27808 -10.27788 -10.27629 -10.27543
 Alpha  occ. eigenvalues --  -10.27517 -10.27514 -10.27318 -10.27187 -10.27108
 Alpha  occ. eigenvalues --  -10.27094 -10.27089 -10.27084 -10.27069 -10.26925
 Alpha  occ. eigenvalues --  -10.26841 -10.26685 -10.26613 -10.26523 -10.26409
 Alpha  occ. eigenvalues --  -10.26359 -10.26246 -10.26221 -10.26163 -10.26003
 Alpha  occ. eigenvalues --  -10.25999 -10.25877 -10.25853 -10.25806 -10.25770
 Alpha  occ. eigenvalues --  -10.25703 -10.25461 -10.25424 -10.25188 -10.24843
 Alpha  occ. eigenvalues --  -10.23577  -3.17111  -3.16467  -1.91989  -1.91547
 Alpha  occ. eigenvalues --   -1.91438  -1.91377  -1.90903  -1.90799  -1.17113
 Alpha  occ. eigenvalues --   -1.16653  -1.11979  -1.10343  -1.09375  -1.08684
 Alpha  occ. eigenvalues --   -1.07405  -1.07094  -1.04975  -1.04118  -1.03904
 Alpha  occ. eigenvalues --   -1.03184  -1.02909  -1.02838  -1.02334  -1.01751
 Alpha  occ. eigenvalues --   -0.92646  -0.92218  -0.89677  -0.89634  -0.89328
 Alpha  occ. eigenvalues --   -0.88713  -0.88472  -0.88396  -0.87969  -0.87335
 Alpha  occ. eigenvalues --   -0.87026  -0.86647  -0.86626  -0.86516  -0.84814
 Alpha  occ. eigenvalues --   -0.84246  -0.83946  -0.83523  -0.83288  -0.82342
 Alpha  occ. eigenvalues --   -0.81914  -0.81830  -0.81262  -0.81138  -0.80365
 Alpha  occ. eigenvalues --   -0.80315  -0.78894  -0.77738  -0.77420  -0.77380
 Alpha  occ. eigenvalues --   -0.76753  -0.76677  -0.76254  -0.75593  -0.75128
 Alpha  occ. eigenvalues --   -0.74967  -0.73094  -0.72758  -0.71725  -0.71395
 Alpha  occ. eigenvalues --   -0.69249  -0.69172  -0.68863  -0.68631  -0.67749
 Alpha  occ. eigenvalues --   -0.67594  -0.67366  -0.67242  -0.65692  -0.65611
 Alpha  occ. eigenvalues --   -0.65394  -0.65239  -0.65009  -0.64998  -0.64565
 Alpha  occ. eigenvalues --   -0.64498  -0.62478  -0.62245  -0.60778  -0.60150
 Alpha  occ. eigenvalues --   -0.59637  -0.59587  -0.59428  -0.59129  -0.58615
 Alpha  occ. eigenvalues --   -0.58523  -0.58219  -0.57765  -0.57294  -0.57152
 Alpha  occ. eigenvalues --   -0.56631  -0.56415  -0.56048  -0.55667  -0.55319
 Alpha  occ. eigenvalues --   -0.54975  -0.54700  -0.54467  -0.54287  -0.53821
 Alpha  occ. eigenvalues --   -0.53809  -0.53524  -0.53170  -0.53149  -0.52878
 Alpha  occ. eigenvalues --   -0.52579  -0.52534  -0.52471  -0.52404  -0.52150
 Alpha  occ. eigenvalues --   -0.51753  -0.51682  -0.51470  -0.51313  -0.51246
 Alpha  occ. eigenvalues --   -0.51019  -0.50711  -0.50592  -0.50408  -0.50340
 Alpha  occ. eigenvalues --   -0.50293  -0.50159  -0.49976  -0.49966  -0.49871
 Alpha  occ. eigenvalues --   -0.49635  -0.49244  -0.49177  -0.48930  -0.48622
 Alpha  occ. eigenvalues --   -0.48511  -0.48434  -0.48403  -0.48264  -0.48050
 Alpha  occ. eigenvalues --   -0.47884  -0.47668  -0.47532  -0.47527  -0.47478
 Alpha  occ. eigenvalues --   -0.47172  -0.46958  -0.46736  -0.46556  -0.46415
 Alpha  occ. eigenvalues --   -0.46370  -0.46289  -0.46088  -0.46069  -0.45609
 Alpha  occ. eigenvalues --   -0.45311  -0.45263  -0.45156  -0.45059  -0.44915
 Alpha  occ. eigenvalues --   -0.44740  -0.44698  -0.44549  -0.44441  -0.44320
 Alpha  occ. eigenvalues --   -0.44280  -0.44123  -0.43712  -0.43686  -0.43647
 Alpha  occ. eigenvalues --   -0.43468  -0.43289  -0.43089  -0.43071  -0.42834
 Alpha  occ. eigenvalues --   -0.42800  -0.42609  -0.42558  -0.42344  -0.42312
 Alpha  occ. eigenvalues --   -0.41937  -0.41928  -0.41653  -0.41642  -0.41563
 Alpha  occ. eigenvalues --   -0.41110  -0.40808  -0.40579  -0.40370  -0.40222
 Alpha  occ. eigenvalues --   -0.40117  -0.40051  -0.39713  -0.39152  -0.38780
 Alpha  occ. eigenvalues --   -0.38372  -0.38268  -0.38232  -0.37601  -0.37600
 Alpha  occ. eigenvalues --   -0.37402  -0.37216  -0.36889  -0.36702  -0.36468
 Alpha  occ. eigenvalues --   -0.36309  -0.35991  -0.34346  -0.34229  -0.34170
 Alpha  occ. eigenvalues --   -0.33848  -0.32936  -0.32802  -0.32252  -0.31791
 Alpha  occ. eigenvalues --   -0.31379  -0.30893  -0.30888  -0.30772  -0.30555
 Alpha  occ. eigenvalues --   -0.29687  -0.29262  -0.28938  -0.24274  -0.24112
 Alpha  occ. eigenvalues --   -0.21256  -0.21048
 Alpha virt. eigenvalues --   -0.08756  -0.08572  -0.01701  -0.01686   0.00534
 Alpha virt. eigenvalues --    0.00561   0.02182   0.02736   0.02818   0.03427
 Alpha virt. eigenvalues --    0.04561   0.04773   0.05579   0.05652   0.05922

 Mulliken charges:
               1
     1  Mg   0.849680
     2  C   -0.035911
     3  C   -0.127506
     4  C   -0.088549
     5  C   -0.059266
     6  N   -0.306945
     7  C   -0.024908
     8  C   -0.013005
     9  C   -0.067285
    10  C    0.093679
    11  C    0.060619
    12  C    0.056326
    13  C   -0.083015
    14  H    0.017658
    15  N   -0.421973
    16  C    0.201617
    17  C   -0.158664
    18  C   -0.012256
    19  C    0.124808
    20  C    0.150569
    21  C   -0.039959
    22  O   -0.163340
    23  C    0.032913
    24  N   -0.321083
    25  C    0.081318
    26  C   -0.032073
    27  C   -0.024560
    28  C    0.083647
    29  C    0.078935
    30  C   -0.005168
    31  C    0.032885
    32  N   -0.303110
    33  C    0.079921
    34  C   -0.204934
    35  C    0.040143
    36  C    0.083694
    37  C    0.124708
    38  C    0.054198
    39  O   -0.187229
    40  C   -0.001651
    41  C    0.227746
    42  O   -0.252709
    43  O   -0.320103
    44  C    0.163802
    45  H   -0.038727
    46  H   -0.061724
    47  H   -0.037352
    48  H    0.007751
    49  H    0.019561
    50  H    0.005476
    51  H    0.020404
    52  H    0.021060
    53  H    0.017490
    54  H    0.022996
    55  H    0.046395
    56  H    0.015680
    57  H    0.039347
    58  H   -0.011460
    59  H    0.039104
    60  H    0.031009
    61  H    0.046603
    62  H    0.048708
    63  H    0.020536
    64  H    0.012655
    65  H    0.018303
    66  H    0.010042
    67  H    0.016879
    68  H    0.005579
    69  H   -0.002452
    70  H    0.015921
    71  H    0.008709
    72  H    0.008653
    73  H    0.009134
    74  H    0.042986
    75  H    0.037193
    76  H    0.028050
    77  H    0.043414
    78  H    0.067997
    79  H    0.040417
    80  Mg   0.840745
    81  C    0.028099
    82  C   -0.106739
    83  C   -0.066819
    84  C   -0.071407
    85  N   -0.281569
    86  C   -0.102098
    87  C   -0.000321
    88  C   -0.045993
    89  C    0.075596
    90  C    0.066981
    91  C    0.037756
    92  C   -0.061187
    93  H    0.017717
    94  N   -0.375464
    95  C    0.135963
    96  C   -0.158080
    97  C   -0.029493
    98  C    0.112253
    99  C    0.127563
   100  C    0.018963
   101  O   -0.213664
   102  C    0.015277
   103  N   -0.316351
   104  C    0.098155
   105  C   -0.060713
   106  C   -0.001767
   107  C    0.049108
   108  C    0.056783
   109  C    0.053055
   110  C   -0.019130
   111  N   -0.321779
   112  C    0.076429
   113  C   -0.187308
   114  C    0.016339
   115  C    0.096313
   116  C    0.134223
   117  C    0.001105
   118  O   -0.167285
   119  C   -0.002311
   120  C    0.159802
   121  O   -0.226910
   122  O   -0.302929
   123  C    0.183843
   124  H   -0.025450
   125  H    0.002375
   126  H   -0.035676
   127  H    0.026618
   128  H    0.014852
   129  H    0.029488
   130  H    0.022662
   131  H    0.018478
   132  H    0.007471
   133  H    0.019732
   134  H    0.020321
   135  H    0.040211
   136  H    0.030129
   137  H    0.018067
   138  H    0.035662
   139  H    0.033390
   140  H    0.043210
   141  H    0.031323
   142  H    0.017427
   143  H    0.009716
   144  H    0.005327
   145  H    0.040379
   146  H    0.003558
   147  H    0.024212
   148  H    0.003368
   149  H    0.001180
   150  H    0.016187
   151  H    0.023377
   152  H    0.031368
   153  H    0.031550
   154  H    0.036463
   155  H    0.038003
   156  H    0.036486
   157  H    0.028100
   158  H    0.037682
 Sum of Mulliken charges =  -0.00000

 Dipole moment (field-independent basis, Debye):
    X=              0.0581    Y=             -3.6458    Z=             -3.3266  Tot=              4.9358
 Quadrupole moment (field-independent basis, Debye-Ang):
   XX=           -484.1614   YY=           -516.2703   ZZ=           -507.8906
   XY=            -15.2608   XZ=              1.6266   YZ=             -3.2698

 Normal termination of Gaussian 16 at Wed Sep 15 15:11:04 2021.
