 Gaussian 16, Revision A.03,
 Gaussian 16:  ES64L-G16RevA.03 25-Dec-2016

 -----------------------------------
 #p cam-b3lyp/Def2SVP td=(nstates=5)
 -----------------------------------

 --------------------------------
 TDDFT excited states in gaussian
 --------------------------------
 Symbolic Z-matrix:
 Charge =  0 Multiplicity = 1

                         Standard orientation:
 ---------------------------------------------------------------------
 Center     Atomic      Atomic             Coordinates (Angstroms)
 Number     Number       Type             X           Y           Z
 ---------------------------------------------------------------------
      1         12           0       30.284039    0.298656   -0.656288
      2          6           0       27.195687   -1.334791    0.372732
      3          6           0       28.499517    3.226400   -0.838973
      4          6           0       33.127759    1.975283   -0.122815
      5          6           0       31.856908   -2.711750   -0.556913
      6          7           0       28.102378    0.887025   -0.072178
      7          6           0       26.998669    0.018493    0.252488
      8          6           0       25.694421    0.820066    0.217937
      9          6           0       26.069785    2.139413   -0.519131
     10          6           0       27.661606    2.138886   -0.519590
     11          6           0       25.510770    2.218970   -2.018085
     12          6           0       24.934196    0.951291    1.505262
     13          6           0       25.692936    0.642557    2.817545
     14          1           0       25.147222    0.774387    4.251167
     15          7           0       30.777941    2.357093   -0.639367
     16          6           0       29.883862    3.402396   -0.711084
     17          6           0       30.664405    4.677795   -0.764225
     18          6           0       31.962491    4.290290   -0.441764
     19          6           0       32.035311    2.835607   -0.326994
     20          6           0       29.984013    5.982200   -0.985042
     21          6           0       33.146843    5.276409   -0.223698
     22          8           0       32.905696    6.470152   -0.253867
     23          6           0       34.528618    4.869338    0.167991
     24          7           0       32.181497   -0.355982   -0.224870
     25          6           0       33.211266    0.583734   -0.194766
     26          6           0       34.576909   -0.101362   -0.144283
     27          6           0       34.238453   -1.572682   -0.581239
     28          6           0       32.710621   -1.549732   -0.496759
     29          6           0       35.736560    0.497559   -0.981059
     30          6           0       34.902139   -2.710103    0.259511
     31          6           0       36.088919   -3.505114   -0.454514
     32          7           0       29.684264   -1.671294   -0.273730
     33          6           0       30.455616   -2.821372   -0.356825
     34          6           0       29.596314   -3.973831   -0.240187
     35          6           0       28.368130   -3.401640    0.118045
     36          6           0       28.492064   -1.991754    0.053696
     37          6           0       30.099267   -5.425738   -0.317799
     38          6           0       26.999142   -3.672499    0.433823
     39          8           0       26.483921   -4.807700    0.481555
     40          6           0       26.105452   -2.354874    0.482168
     41          6           0       25.390366   -2.444984    1.770834
     42          8           0       25.886351   -2.691973    2.875145
     43          8           0       24.108186   -2.079617    1.525897
     44          6           0       23.137095   -2.274588    2.647794
     45          1           0       27.934145    4.159250   -0.879652
     46          1           0       34.050629    2.537326    0.036542
     47          1           0       32.368821   -3.670924   -0.655127
     48          1           0       25.153573    0.171120   -0.470913
     49          1           0       25.838006    3.032291    0.061783
     50          1           0       24.775409    3.020811   -1.964929
     51          1           0       25.105834    1.248473   -2.305901
     52          1           0       26.358659    2.530933   -2.628930
     53          1           0       24.028614    0.357839    1.380742
     54          1           0       24.638662    1.999976    1.458965
     55          1           0       26.589635    1.261057    2.767690
     56          1           0       26.000771   -0.403250    2.822642
     57          1           0       30.063781    6.522534   -0.042214
     58          1           0       28.949322    5.782411   -1.261972
     59          1           0       30.447431    6.492550   -1.830096
     60          1           0       34.671955    4.405475    1.143151
     61          1           0       35.201927    5.719068    0.276864
     62          1           0       34.809591    4.270239   -0.698058
     63          1           0       34.749016    0.025872    0.925124
     64          1           0       34.519512   -1.614134   -1.633798
     65          1           0       36.427147    1.105230   -0.395435
     66          1           0       35.331391    1.177724   -1.729525
     67          1           0       36.228699   -0.329441   -1.494055
     68          1           0       34.202551   -3.459629    0.630548
     69          1           0       35.247279   -2.200849    1.159398
     70          1           0       36.826703   -3.569330    0.344874
     71          1           0       36.511622   -3.012755   -1.330433
     72          1           0       35.662008   -4.435740   -0.826689
     73          1           0       29.375220   -6.150234   -0.691231
     74          1           0       30.289303   -5.629397    0.735451
     75          1           0       30.900938   -5.507561   -1.051454
     76          1           0       25.438533   -2.341915   -0.381149
     77          1           0       22.149390   -1.938839    2.329968
     78          1           0       23.419453   -1.685862    3.520798
     79          1           0       23.192736   -3.350425    2.807805
     80         12           0      -30.215643    0.247624    0.339529
     81          6           0      -27.902437   -2.112972   -0.884756
     82          6           0      -30.621440    1.289231   -2.930793
     83          6           0      -32.386113    2.663138    1.392595
     84          6           0      -29.471380   -0.632707    3.492363
     85          7           0      -29.372189   -0.378734   -1.706227
     86          6           0      -28.543866   -1.456403   -1.995557
     87          6           0      -28.502706   -1.705941   -3.489813
     88          6           0      -29.088264   -0.381283   -4.101001
     89          6           0      -29.733837    0.186519   -2.856986
     90          6           0      -28.046093    0.559700   -4.823279
     91          6           0      -29.358824   -2.903715   -3.927483
     92          6           0      -28.781240   -3.741401   -5.073366
     93          1           0      -28.723890   -3.114272   -6.494102
     94          7           0      -31.411634    1.700310   -0.624292
     95          6           0      -31.360555    1.946528   -1.953676
     96          6           0      -32.180645    3.079023   -2.237942
     97          6           0      -32.863338    3.468271   -1.034011
     98          6           0      -32.195133    2.650298   -0.037267
     99          6           0      -32.293052    3.658575   -3.620718
    100          6           0      -33.895913    4.560347   -0.754049
    101          8           0      -34.498095    4.631223    0.339982
    102          6           0      -34.202490    5.674573   -1.748321
    103          7           0      -30.896615    0.846964    2.153388
    104          6           0      -31.748216    1.922094    2.388915
    105          6           0      -31.894012    2.113052    3.863738
    106          6           0      -31.033265    1.035876    4.616777
    107          6           0      -30.448390    0.323645    3.386396
    108          6           0      -31.704213    3.580605    4.352382
    109          6           0      -31.821771    0.071349    5.528972
    110          6           0      -31.830406    0.495142    7.010450
    111          7           0      -28.956396   -1.023404    1.181987
    112          6           0      -28.760470   -1.371635    2.517676
    113          6           0      -27.779026   -2.506809    2.684807
    114          6           0      -27.431269   -2.757243    1.347465
    115          6           0      -28.187410   -1.898359    0.486646
    116          6           0      -27.337475   -3.145300    3.989090
    117          6           0      -26.582232   -3.621262    0.541252
    118          8           0      -25.771325   -4.489226    0.867006
    119          6           0      -26.973866   -3.290089   -0.961197
    120          6           0      -25.636693   -3.012680   -1.675899
    121          8           0      -24.691913   -2.397924   -1.225734
    122          8           0      -25.616139   -3.728748   -2.871246
    123          6           0      -24.379267   -3.539204   -3.629312
    124          1           0      -30.785628    1.539475   -3.980790
    125          1           0      -33.064840    3.392935    1.838384
    126          1           0      -29.197396   -0.771592    4.539934
    127          1           0      -27.502516   -1.843972   -3.899772
    128          1           0      -29.841742   -0.531128   -4.874299
    129          1           0      -27.039095    0.154415   -4.926374
    130          1           0      -27.856593    1.526231   -4.356977
    131          1           0      -28.347530    0.748803   -5.853572
    132          1           0      -30.357852   -2.588358   -4.227589
    133          1           0      -29.466599   -3.618905   -3.111769
    134          1           0      -29.264136   -4.715602   -5.148549
    135          1           0      -27.757439   -4.048546   -4.860849
    136          1           0      -31.245314    3.749614   -3.907566
    137          1           0      -32.723040    4.655139   -3.720022
    138          1           0      -32.789501    3.015839   -4.347359
    139          1           0      -33.284014    6.144747   -2.100047
    140          1           0      -34.820866    6.344230   -1.150776
    141          1           0      -34.717631    5.286370   -2.626964
    142          1           0      -32.958761    2.027404    4.082825
    143          1           0      -30.186235    1.430067    5.179731
    144          1           0      -31.428843    4.184144    3.487231
    145          1           0      -30.883160    3.608505    5.068259
    146          1           0      -32.683748    3.854565    4.745671
    147          1           0      -31.451761   -0.934529    5.331706
    148          1           0      -32.885930    0.098018    5.293528
    149          1           0      -31.658178    1.568847    7.087791
    150          1           0      -31.041810    0.083916    7.640891
    151          1           0      -32.826152    0.298593    7.408996
    152          1           0      -28.174993   -3.739249    4.355419
    153          1           0      -27.080527   -2.452306    4.789993
    154          1           0      -26.492023   -3.783104    3.731666
    155          1           0      -27.502493   -4.078830   -1.496162
    156          1           0      -24.396139   -2.705282   -4.331666
    157          1           0      -24.239331   -4.493729   -4.136467
    158          1           0      -23.453504   -3.330455   -3.093159
 ---------------------------------------------------------------------

 SCF Done:  E(RCAM-B3LYP) =  -4069.80706077     A.U. after   19 cycles

 Excitation energies and oscillator strengths:

 Excited State   1:      Singlet-A      1.6561 eV  748.64 nm  f=0.3567  <S**2>=0.000
     309 -> 315       -0.15661
     312 -> 313        0.69071
     309 <- 315       -0.10158
 This state for optimization and/or second-order correction.
 Total Energy, E(TD-HF/TD-DFT) =  -4069.74619889
 Copying the excited state density for this state as the 1-particle RhoCI density.

 Excited State   2:      Singlet-A      1.7014 eV  728.71 nm  f=0.3772  <S**2>=0.000
     310 -> 316        0.18653
     311 -> 314        0.68386
     310 <- 316        0.10956

 Excited State   3:      Singlet-A      2.2323 eV  555.40 nm  f=0.0994  <S**2>=0.000
     310 -> 314        0.63577
     311 -> 316       -0.29946

 Excited State   4:      Singlet-A      2.2759 eV  544.76 nm  f=0.0762  <S**2>=0.000
     309 -> 313        0.61914
     312 -> 315        0.32532

 Excited State   5:      Singlet-A      3.1604 eV  392.30 nm  f=0.0000  <S**2>=0.000
     312 -> 314        0.70711

 The electronic state is 1-A.
 Alpha  occ. eigenvalues --  -46.89304 -46.87642 -19.25758 -19.25359 -19.20405
 Alpha  occ. eigenvalues --  -19.19420 -19.19201 -19.19091 -19.19077 -19.17073
 Alpha  occ. eigenvalues --  -14.42669 -14.42468 -14.41545 -14.41271 -14.39889
 Alpha  occ. eigenvalues --  -14.39726 -14.39476 -14.38741 -10.39679 -10.39133
 Alpha  occ. eigenvalues --  -10.35841 -10.35503 -10.35074 -10.33533 -10.32125
 Alpha  occ. eigenvalues --  -10.31933 -10.31652 -10.31472 -10.31433 -10.31004
 Alpha  occ. eigenvalues --  -10.30874 -10.30869 -10.30811 -10.30739 -10.30722
 Alpha  occ. eigenvalues --  -10.30500 -10.30320 -10.30271 -10.29579 -10.29215
 Alpha  occ. eigenvalues --  -10.29099 -10.29007 -10.28835 -10.28738 -10.28733
 Alpha  occ. eigenvalues --  -10.28715 -10.28707 -10.28623 -10.28553 -10.28516
 Alpha  occ. eigenvalues --  -10.28477 -10.28392 -10.28373 -10.27876 -10.27857
 Alpha  occ. eigenvalues --  -10.27849 -10.27673 -10.27635 -10.27608 -10.27554
 Alpha  occ. eigenvalues --  -10.27541 -10.27366 -10.27298 -10.27236 -10.27197
 Alpha  occ. eigenvalues --  -10.27166 -10.27121 -10.27061 -10.27041 -10.26922
 Alpha  occ. eigenvalues --  -10.26891 -10.26787 -10.26597 -10.26420 -10.26398
 Alpha  occ. eigenvalues --  -10.26391 -10.26330 -10.26258 -10.26031 -10.26003
 Alpha  occ. eigenvalues --  -10.25984 -10.25940 -10.25688 -10.25656 -10.25555
 Alpha  occ. eigenvalues --  -10.23976  -3.17792  -3.16426  -1.92664  -1.92269
 Alpha  occ. eigenvalues --   -1.92074  -1.91324  -1.90857  -1.90770  -1.16296
 Alpha  occ. eigenvalues --   -1.16079  -1.10686  -1.09226  -1.08924  -1.08169
 Alpha  occ. eigenvalues --   -1.07478  -1.06676  -1.04837  -1.04710  -1.04021
 Alpha  occ. eigenvalues --   -1.03662  -1.03069  -1.02821  -1.01452  -1.00350
 Alpha  occ. eigenvalues --   -0.92569  -0.91935  -0.89430  -0.89345  -0.89016
 Alpha  occ. eigenvalues --   -0.88972  -0.88606  -0.88292  -0.87479  -0.87010
 Alpha  occ. eigenvalues --   -0.86821  -0.86648  -0.86142  -0.86083  -0.84411
 Alpha  occ. eigenvalues --   -0.84374  -0.83698  -0.83544  -0.82730  -0.82350
 Alpha  occ. eigenvalues --   -0.82296  -0.81725  -0.80983  -0.80964  -0.80166
 Alpha  occ. eigenvalues --   -0.80081  -0.78451  -0.78021  -0.77755  -0.77463
 Alpha  occ. eigenvalues --   -0.77284  -0.76488  -0.76149  -0.75997  -0.75247
 Alpha  occ. eigenvalues --   -0.75055  -0.73030  -0.72677  -0.71680  -0.71659
 Alpha  occ. eigenvalues --   -0.69636  -0.69381  -0.69010  -0.68813  -0.68183
 Alpha  occ. eigenvalues --   -0.67606  -0.67313  -0.66908  -0.66185  -0.65784
 Alpha  occ. eigenvalues --   -0.65501  -0.65366  -0.64662  -0.64488  -0.64160
 Alpha  occ. eigenvalues --   -0.63539  -0.62573  -0.62116  -0.60370  -0.60149
 Alpha  occ. eigenvalues --   -0.59624  -0.59116  -0.59044  -0.58932  -0.58496
 Alpha  occ. eigenvalues --   -0.58022  -0.57746  -0.57497  -0.57496  -0.57195
 Alpha  occ. eigenvalues --   -0.56770  -0.56279  -0.56018  -0.55448  -0.55173
 Alpha  occ. eigenvalues --   -0.55111  -0.54690  -0.54566  -0.54240  -0.53801
 Alpha  occ. eigenvalues --   -0.53665  -0.53493  -0.53456  -0.53133  -0.52876
 Alpha  occ. eigenvalues --   -0.52856  -0.52564  -0.52547  -0.52290  -0.52148
 Alpha  occ. eigenvalues --   -0.51852  -0.51833  -0.51748  -0.51378  -0.51221
 Alpha  occ. eigenvalues --   -0.51205  -0.51042  -0.50649  -0.50482  -0.50213
 Alpha  occ. eigenvalues --   -0.50040  -0.49972  -0.49792  -0.49660  -0.49531
 Alpha  occ. eigenvalues --   -0.49365  -0.49067  -0.48942  -0.48900  -0.48777
 Alpha  occ. eigenvalues --   -0.48491  -0.48346  -0.48239  -0.48112  -0.48083
 Alpha  occ. eigenvalues --   -0.47753  -0.47617  -0.47602  -0.47399  -0.47149
 Alpha  occ. eigenvalues --   -0.46906  -0.46851  -0.46790  -0.46658  -0.46543
 Alpha  occ. eigenvalues --   -0.46523  -0.46273  -0.46234  -0.45902  -0.45711
 Alpha  occ. eigenvalues --   -0.45513  -0.45458  -0.45184  -0.44951  -0.44918
 Alpha  occ. eigenvalues --   -0.44622  -0.44529  -0.44441  -0.44352  -0.44341
 Alpha  occ. eigenvalues --   -0.43986  -0.43940  -0.43587  -0.43493  -0.43475
 Alpha  occ. eigenvalues --   -0.43414  -0.43185  -0.43011  -0.42821  -0.42730
 Alpha  occ. eigenvalues --   -0.42682  -0.42555  -0.42355  -0.42277  -0.42118
 Alpha  occ. eigenvalues --   -0.41935  -0.41922  -0.41748  -0.41743  -0.41606
 Alpha  occ. eigenvalues --   -0.41227  -0.41071  -0.41049  -0.40762  -0.40446
 Alpha  occ. eigenvalues --   -0.40241  -0.39916  -0.39687  -0.39348  -0.39081
 Alpha  occ. eigenvalues --   -0.38707  -0.38501  -0.38309  -0.37931  -0.37404
 Alpha  occ. eigenvalues --   -0.37262  -0.37094  -0.36871  -0.36634  -0.36579
 Alpha  occ. eigenvalues --   -0.36341  -0.35834  -0.35155  -0.34952  -0.34375
 Alpha  occ. eigenvalues --   -0.33823  -0.32851  -0.32690  -0.31524  -0.31517
 Alpha  occ. eigenvalues --   -0.31171  -0.30972  -0.30938  -0.30552  -0.30103
 Alpha  occ. eigenvalues --   -0.29995  -0.29430  -0.29230  -0.24452  -0.23948
 Alpha  occ. eigenvalues --   -0.21074  -0.20752
 Alpha virt. eigenvalues --   -0.08583  -0.08570  -0.01791  -0.01778  -0.00000
 Alpha virt. eigenvalues --    0.00927   0.01472   0.01750   0.02500   0.03741
 Alpha virt. eigenvalues --    0.04757   0.04889   0.05032   0.05410   0.05608

 Mulliken charges:
               1
     1  Mg   0.820327
     2  C   -0.030315
     3  C   -0.063576
     4  C   -0.071126
     5  C   -0.075666
     6  N   -0.309243
     7  C   -0.098372
     8  C    0.032403
     9  C   -0.088987
    10  C    0.018010
    11  C    0.083164
    12  C    0.077551
    13  C   -0.046994
    14  H    0.019788
    15  N   -0.391656
    16  C    0.125430
    17  C   -0.145341
    18  C   -0.034505
    19  C    0.142967
    20  C    0.154401
    21  C   -0.013504
    22  O   -0.198122
    23  C    0.066667
    24  N   -0.314493
    25  C    0.069845
    26  C   -0.078972
    27  C    0.038556
    28  C   -0.001192
    29  C    0.080939
    30  C    0.022888
    31  C   -0.006873
    32  N   -0.284808
    33  C    0.084289
    34  C   -0.172569
    35  C    0.043297
    36  C    0.082291
    37  C    0.114725
    38  C    0.003080
    39  O   -0.216394
    40  C    0.045224
    41  C    0.197739
    42  O   -0.231860
    43  O   -0.339256
    44  C    0.180674
    45  H   -0.019402
    46  H   -0.063790
    47  H   -0.033484
    48  H    0.001490
    49  H    0.014761
    50  H    0.026234
    51  H    0.029005
    52  H    0.019938
    53  H    0.006724
    54  H   -0.008004
    55  H    0.024296
    56  H    0.048669
    57  H    0.049566
    58  H   -0.000644
    59  H    0.036235
    60  H    0.054905
    61  H    0.021104
    62  H    0.037895
    63  H    0.025847
    64  H    0.005556
    65  H    0.018952
    66  H    0.015429
    67  H    0.020814
    68  H    0.021156
    69  H   -0.000057
    70  H    0.029354
    71  H    0.015079
    72  H    0.025947
    73  H    0.027726
    74  H    0.049113
    75  H    0.018926
    76  H    0.043779
    77  H    0.041307
    78  H    0.050539
    79  H    0.054604
    80  Mg   0.856965
    81  C   -0.058727
    82  C   -0.109482
    83  C   -0.071392
    84  C   -0.087075
    85  N   -0.241852
    86  C   -0.014044
    87  C    0.014383
    88  C   -0.051419
    89  C   -0.006686
    90  C    0.052947
    91  C    0.064879
    92  C   -0.070543
    93  H    0.002367
    94  N   -0.342942
    95  C    0.211712
    96  C   -0.159424
    97  C   -0.006375
    98  C    0.104289
    99  C    0.108372
   100  C    0.005842
   101  O   -0.228234
   102  C    0.038025
   103  N   -0.379062
   104  C    0.084286
   105  C   -0.051059
   106  C   -0.001746
   107  C    0.029975
   108  C    0.063124
   109  C    0.045004
   110  C   -0.000570
   111  N   -0.392740
   112  C    0.133043
   113  C   -0.159673
   114  C   -0.023305
   115  C    0.156268
   116  C    0.124933
   117  C    0.083866
   118  O   -0.172877
   119  C   -0.034195
   120  C    0.197918
   121  O   -0.193128
   122  O   -0.339678
   123  C    0.167148
   124  H   -0.033796
   125  H   -0.010979
   126  H   -0.037295
   127  H    0.007781
   128  H    0.014683
   129  H    0.013052
   130  H    0.020443
   131  H    0.012813
   132  H    0.016731
   133  H    0.012000
   134  H    0.024797
   135  H    0.028574
   136  H    0.024986
   137  H    0.003810
   138  H    0.034953
   139  H    0.040282
   140  H    0.037956
   141  H    0.041720
   142  H    0.016577
   143  H    0.017688
   144  H    0.022111
   145  H    0.012477
   146  H    0.021707
   147  H    0.012889
   148  H    0.003404
   149  H    0.004434
   150  H    0.019160
   151  H    0.018466
   152  H    0.027680
   153  H    0.026020
   154  H    0.042300
   155  H    0.042758
   156  H    0.025733
   157  H    0.037243
   158  H    0.047725
 Sum of Mulliken charges =  -0.00000

 Dipole moment (field-independent basis, Debye):
    X=              0.3629    Y=              3.7053    Z=             -6.1841  Tot=              7.2183
 Quadrupole moment (field-independent basis, Debye-Ang):
   XX=           -229.4052   YY=           -559.8169   ZZ=           -475.0733
   XY=             -7.0970   XZ=            -10.3146   YZ=              5.7219

 Normal termination of Gaussian 16 at Tue Aug 31 19:33:57 2021.
