 Gaussian 16, Revision A.03,
 Gaussian 16:  ES64L-G16RevA.03 25-Dec-2016

 ----------------------------------------------------------
 #p cam-b3lyp/Def2SVP td=(nstates=5) density=(transition=1)
 ----------------------------------------------------------

 --------------------------------
 TDDFT excited states in gaussian
 --------------------------------
 Symbolic Z-matrix:
 Charge =  0 Multiplicity = 1

                         Standard orientation:
 ---------------------------------------------------------------------
 Center     Atomic      Atomic             Coordinates (Angstroms)
 Number     Number       Type             X           Y           Z
 ---------------------------------------------------------------------
      1         12           0      -22.077781    0.658407    0.333452
      2          6           0      -21.719321   -2.491313   -1.088050
      3          6           0      -22.315574   -0.970191    3.386450
      4          6           0      -22.937515    3.658839    1.684195
      5          6           0      -21.988199    2.061053   -2.825734
      6          7           0      -22.077494   -1.494586    1.050279
      7          6           0      -21.877368   -2.639282    0.293816
      8          6           0      -21.982981   -3.978618    1.123815
      9          6           0      -22.499743   -3.401952    2.498620
     10          6           0      -22.332011   -1.848738    2.313590
     11          6           0      -23.918532   -3.694921    2.995323
     12          6           0      -20.630140   -4.713069    1.155957
     13          6           0      -20.510886   -5.968119    0.332071
     14          1           0      -19.673222   -7.112790    0.929242
     15          7           0      -22.373742    1.338003    2.269733
     16          6           0      -22.344757    0.504593    3.344100
     17          6           0      -22.623458    1.361336    4.513164
     18          6           0      -22.904553    2.661095    4.063940
     19          6           0      -22.743304    2.633205    2.662133
     20          6           0      -22.468442    0.845057    5.886049
     21          6           0      -23.330055    3.878872    4.830689
     22          8           0      -23.444244    5.023613    4.310938
     23          6           0      -23.681860    3.866562    6.215805
     24          7           0      -22.328890    2.551028   -0.421385
     25          6           0      -22.654511    3.641397    0.325350
     26          6           0      -22.796718    4.880930   -0.467106
     27          6           0      -22.434902    4.404044   -1.919517
     28          6           0      -22.306847    2.941069   -1.716733
     29          6           0      -24.089301    5.749121   -0.469523
     30          6           0      -21.185127    5.152614   -2.600797
     31          6           0      -19.706042    4.725396   -2.364302
     32          7           0      -21.936489   -0.000830   -1.586374
     33          6           0      -21.874145    0.678860   -2.768690
     34          6           0      -21.534478   -0.192009   -3.807644
     35          6           0      -21.556664   -1.488731   -3.163597
     36          6           0      -21.777860   -1.299832   -1.813938
     37          6           0      -21.212506    0.156228   -5.259711
     38          6           0      -21.274352   -2.870873   -3.425269
     39          8           0      -20.871071   -3.491589   -4.387777
     40          6           0      -21.608136   -3.615536   -2.085236
     41          6           0      -22.865879   -4.374491   -2.232652
     42          8           0      -23.947911   -4.140401   -1.650707
     43          8           0      -22.802259   -5.398664   -3.111337
     44          6           0      -23.928343   -6.391466   -3.178981
     45          1           0      -22.453549   -1.492630    4.334713
     46          1           0      -23.245320    4.640689    2.050330
     47          1           0      -21.777726    2.442995   -3.827370
     48          1           0      -22.858409   -4.566243    0.845388
     49          1           0      -21.779829   -3.741033    3.243438
     50          1           0      -24.523902   -2.788877    2.959609
     51          1           0      -23.830990   -3.875362    4.065700
     52          1           0      -24.438466   -4.505397    2.483375
     53          1           0      -20.504473   -5.025822    2.193197
     54          1           0      -19.845686   -3.987679    0.940227
     55          1           0      -20.055049   -5.690938   -0.618812
     56          1           0      -21.453710   -6.427125    0.034259
     57          1           0      -21.673376    1.449212    6.321140
     58          1           0      -22.234114   -0.208509    6.043711
     59          1           0      -23.383706    1.027519    6.449107
     60          1           0      -24.317705    2.990455    6.340497
     61          1           0      -24.035882    4.846154    6.534401
     62          1           0      -22.822146    3.615765    6.837221
     63          1           0      -21.985363    5.459337   -0.026203
     64          1           0      -23.300618    4.536846   -2.567294
     65          1           0      -23.924217    6.730426   -0.024590
     66          1           0      -24.876168    5.285874    0.126707
     67          1           0      -24.532037    5.864330   -1.458807
     68          1           0      -21.270017    6.155924   -2.182805
     69          1           0      -21.495365    5.141384   -3.645763
     70          1           0      -19.570684    3.785025   -1.830622
     71          1           0      -19.039059    5.498965   -1.982682
     72          1           0      -19.315512    4.603521   -3.373763
     73          1           0      -21.860871   -0.372865   -5.958911
     74          1           0      -20.202497   -0.198482   -5.464406
     75          1           0      -21.195135    1.224567   -5.476840
     76          1           0      -20.864728   -4.402890   -1.959482
     77          1           0      -23.392275   -7.156068   -3.741398
     78          1           0      -24.827266   -6.037336   -3.682520
     79          1           0      -24.202317   -6.705323   -2.171264
     80         12           0       21.813301    0.638387   -0.340078
     81          6           0       23.656926   -2.162904    1.024543
     82          6           0       20.163546   -1.551724   -2.048617
     83          6           0       20.447505    3.330122   -1.663599
     84          6           0       24.288391    2.923820    1.023875
     85          7           0       21.848079   -1.658378   -0.378116
     86          6           0       22.648406   -2.610236    0.218785
     87          6           0       22.265801   -3.970140   -0.242894
     88          6           0       21.499635   -3.702250   -1.563822
     89          6           0       21.171540   -2.203624   -1.365153
     90          6           0       22.338855   -3.916606   -2.842514
     91          6           0       21.295290   -4.621594    0.788923
     92          6           0       21.566887   -6.132940    1.151791
     93          1           0       20.977962   -6.744162    2.485058
     94          7           0       20.379583    0.825390   -1.711018
     95          6           0       19.723084   -0.173909   -2.237421
     96          6           0       18.658010    0.367751   -3.060162
     97          6           0       18.702588    1.760922   -2.817728
     98          6           0       19.894783    2.013662   -2.054809
     99          6           0       17.676400   -0.561543   -3.796952
    100          6           0       17.726163    2.785569   -3.324383
    101          8           0       17.887702    3.943310   -3.077593
    102          6           0       16.501992    2.330143   -4.049556
    103          7           0       22.526627    2.850511   -0.520062
    104          6           0       21.615774    3.690136   -1.007927
    105          6           0       21.926247    5.102276   -0.679954
    106          6           0       23.305692    4.936992    0.032942
    107          6           0       23.436381    3.447924    0.215472
    108          6           0       21.876591    6.156225   -1.843987
    109          6           0       23.355468    5.764925    1.376053
    110          6           0       24.187204    7.076128    1.442389
    111          7           0       23.536003    0.515983    0.739045
    112          6           0       24.406214    1.477351    1.299897
    113          6           0       25.444187    0.793214    2.098409
    114          6           0       25.157294   -0.562653    2.013839
    115          6           0       24.064233   -0.716061    1.177908
    116          6           0       26.674044    1.480536    2.739600
    117          6           0       25.646119   -1.895991    2.491573
    118          8           0       26.533237   -2.246388    3.233466
    119          6           0       24.783938   -3.015917    1.720113
    120          6           0       24.373098   -4.055803    2.590318
    121          8           0       23.281665   -4.030427    3.176127
    122          8           0       25.274506   -5.095992    2.793959
    123          6           0       24.821531   -6.311256    3.537874
    124          1           0       19.503906   -2.183328   -2.646248
    125          1           0       19.956533    4.225604   -2.050020
    126          1           0       25.034439    3.597435    1.448272
    127          1           0       23.158626   -4.536588   -0.508951
    128          1           0       20.598514   -4.291791   -1.731585
    129          1           0       21.892002   -4.690543   -3.467277
    130          1           0       23.333217   -4.223953   -2.519996
    131          1           0       22.485036   -3.020591   -3.446401
    132          1           0       20.311812   -4.551856    0.323795
    133          1           0       21.313342   -3.971326    1.663289
    134          1           0       22.645169   -6.287839    1.125738
    135          1           0       21.119399   -6.653829    0.304473
    136          1           0       16.684797   -0.427055   -3.362874
    137          1           0       17.946692   -1.616588   -3.824228
    138          1           0       17.519500   -0.208420   -4.815760
    139          1           0       15.854100    1.713269   -3.427369
    140          1           0       16.652543    1.656222   -4.892849
    141          1           0       15.905583    3.204647   -4.310831
    142          1           0       21.201174    5.432874    0.063747
    143          1           0       24.103205    5.198529   -0.662861
    144          1           0       21.489915    5.628320   -2.715088
    145          1           0       22.788133    6.718247   -2.050306
    146          1           0       21.182576    6.947256   -1.559384
    147          1           0       23.777256    5.136887    2.161233
    148          1           0       22.318407    5.807632    1.708870
    149          1           0       23.603595    7.860279    1.924408
    150          1           0       24.482767    7.369815    0.435025
    151          1           0       25.083088    6.932782    2.047685
    152          1           0       26.375157    2.486851    3.031681
    153          1           0       27.441489    1.619636    1.977812
    154          1           0       27.052392    0.926291    3.598845
    155          1           0       25.410529   -3.434837    0.933267
    156          1           0       24.019420   -6.822205    3.003414
    157          1           0       24.687323   -6.104056    4.598872
    158          1           0       25.604993   -7.058362    3.411539
 ---------------------------------------------------------------------

 SCF Done:  E(RCAM-B3LYP) =  -4069.78687580     A.U. after   19 cycles

 Excitation energies and oscillator strengths:

 Excited State   1:      Singlet-A      1.7035 eV  727.83 nm  f=0.3828  <S**2>=0.000
     309 -> 315        0.17723
     312 -> 314        0.68473
     309 <- 315        0.10754
 This state for optimization and/or second-order correction.
 Total Energy, E(TD-HF/TD-DFT) =  -4069.72427403
 Copying the excited state density for this state as the 1-particle RhoCI density.

 Excited State   2:      Singlet-A      1.7382 eV  713.30 nm  f=0.3835  <S**2>=0.000
     310 -> 316        0.16386
     311 -> 313        0.68890
     310 <- 316        0.10277

 Excited State   3:      Singlet-A      2.1720 eV  570.82 nm  f=0.2244  <S**2>=0.000
     310 -> 313        0.67444
     311 -> 316       -0.20201

 Excited State   4:      Singlet-A      2.2075 eV  561.65 nm  f=0.1428  <S**2>=0.000
     309 -> 314        0.65102
     312 -> 315       -0.26106

 Excited State   5:      Singlet-A      3.0651 eV  404.51 nm  f=0.0000  <S**2>=0.000
     312 -> 313        0.70710

 The electronic state is 1-A.
 Alpha  occ. eigenvalues --  -46.89451 -46.87546 -19.24082 -19.23981 -19.19652
 Alpha  occ. eigenvalues --  -19.19268 -19.18540 -19.18277 -19.18242 -19.17967
 Alpha  occ. eigenvalues --  -14.42018 -14.41877 -14.41771 -14.40182 -14.39833
 Alpha  occ. eigenvalues --  -14.39783 -14.39548 -14.38376 -10.38556 -10.38528
 Alpha  occ. eigenvalues --  -10.35966 -10.35141 -10.34532 -10.34196 -10.32031
 Alpha  occ. eigenvalues --  -10.31629 -10.31149 -10.31032 -10.30974 -10.30820
 Alpha  occ. eigenvalues --  -10.30610 -10.30607 -10.30483 -10.30139 -10.30049
 Alpha  occ. eigenvalues --  -10.30040 -10.30034 -10.29848 -10.29382 -10.29325
 Alpha  occ. eigenvalues --  -10.28955 -10.28923 -10.28721 -10.28572 -10.28381
 Alpha  occ. eigenvalues --  -10.28309 -10.28256 -10.28197 -10.28164 -10.28116
 Alpha  occ. eigenvalues --  -10.28013 -10.27917 -10.27854 -10.27748 -10.27680
 Alpha  occ. eigenvalues --  -10.27393 -10.27274 -10.27272 -10.27268 -10.27172
 Alpha  occ. eigenvalues --  -10.27159 -10.27150 -10.27107 -10.26923 -10.26896
 Alpha  occ. eigenvalues --  -10.26814 -10.26764 -10.26712 -10.26534 -10.26364
 Alpha  occ. eigenvalues --  -10.26333 -10.26301 -10.26292 -10.26058 -10.26015
 Alpha  occ. eigenvalues --  -10.25932 -10.25928 -10.25905 -10.25738 -10.25736
 Alpha  occ. eigenvalues --  -10.25718 -10.25680 -10.25543 -10.25452 -10.25112
 Alpha  occ. eigenvalues --  -10.24626  -3.17974  -3.16261  -1.92861  -1.92437
 Alpha  occ. eigenvalues --   -1.92274  -1.91171  -1.90720  -1.90565  -1.15151
 Alpha  occ. eigenvalues --   -1.14195  -1.12177  -1.10860  -1.09543  -1.07964
 Alpha  occ. eigenvalues --   -1.06419  -1.05666  -1.05147  -1.04966  -1.04893
 Alpha  occ. eigenvalues --   -1.04855  -1.04101  -1.03254  -1.02243  -1.00995
 Alpha  occ. eigenvalues --   -0.93098  -0.91267  -0.89268  -0.89052  -0.88879
 Alpha  occ. eigenvalues --   -0.88463  -0.88313  -0.88002  -0.87807  -0.87647
 Alpha  occ. eigenvalues --   -0.87591  -0.87023  -0.86113  -0.85204  -0.84394
 Alpha  occ. eigenvalues --   -0.84353  -0.83661  -0.83066  -0.82821  -0.82477
 Alpha  occ. eigenvalues --   -0.82150  -0.82025  -0.81002  -0.80965  -0.80560
 Alpha  occ. eigenvalues --   -0.80413  -0.78778  -0.78570  -0.77524  -0.77134
 Alpha  occ. eigenvalues --   -0.76883  -0.76709  -0.76231  -0.76225  -0.75415
 Alpha  occ. eigenvalues --   -0.75310  -0.73127  -0.72784  -0.71349  -0.71111
 Alpha  occ. eigenvalues --   -0.70120  -0.69225  -0.68793  -0.68790  -0.68017
 Alpha  occ. eigenvalues --   -0.67945  -0.67348  -0.67114  -0.66120  -0.65632
 Alpha  occ. eigenvalues --   -0.65214  -0.65102  -0.64983  -0.64626  -0.64381
 Alpha  occ. eigenvalues --   -0.64232  -0.61507  -0.61447  -0.61052  -0.60114
 Alpha  occ. eigenvalues --   -0.59974  -0.59659  -0.59163  -0.59072  -0.58608
 Alpha  occ. eigenvalues --   -0.58062  -0.57810  -0.57578  -0.57319  -0.57189
 Alpha  occ. eigenvalues --   -0.56559  -0.56183  -0.55754  -0.55652  -0.55516
 Alpha  occ. eigenvalues --   -0.54910  -0.54457  -0.54018  -0.53882  -0.53843
 Alpha  occ. eigenvalues --   -0.53400  -0.53262  -0.53043  -0.52924  -0.52648
 Alpha  occ. eigenvalues --   -0.52542  -0.52453  -0.52439  -0.52090  -0.51992
 Alpha  occ. eigenvalues --   -0.51900  -0.51860  -0.51323  -0.51086  -0.50853
 Alpha  occ. eigenvalues --   -0.50557  -0.50366  -0.50248  -0.50179  -0.50095
 Alpha  occ. eigenvalues --   -0.49864  -0.49776  -0.49712  -0.49651  -0.49567
 Alpha  occ. eigenvalues --   -0.49440  -0.49283  -0.48955  -0.48843  -0.48820
 Alpha  occ. eigenvalues --   -0.48749  -0.48493  -0.48316  -0.48201  -0.47949
 Alpha  occ. eigenvalues --   -0.47943  -0.47785  -0.47780  -0.47564  -0.47450
 Alpha  occ. eigenvalues --   -0.47241  -0.46768  -0.46510  -0.46440  -0.46264
 Alpha  occ. eigenvalues --   -0.46241  -0.46006  -0.45793  -0.45720  -0.45539
 Alpha  occ. eigenvalues --   -0.45416  -0.45411  -0.45279  -0.45187  -0.44929
 Alpha  occ. eigenvalues --   -0.44817  -0.44788  -0.44560  -0.44473  -0.44264
 Alpha  occ. eigenvalues --   -0.44026  -0.43995  -0.43833  -0.43807  -0.43447
 Alpha  occ. eigenvalues --   -0.43430  -0.43342  -0.43000  -0.42908  -0.42774
 Alpha  occ. eigenvalues --   -0.42757  -0.42673  -0.42469  -0.42225  -0.41884
 Alpha  occ. eigenvalues --   -0.41615  -0.41497  -0.41309  -0.41140  -0.41051
 Alpha  occ. eigenvalues --   -0.40808  -0.40642  -0.40375  -0.40347  -0.40203
 Alpha  occ. eigenvalues --   -0.39993  -0.39902  -0.39862  -0.39718  -0.38939
 Alpha  occ. eigenvalues --   -0.38334  -0.38219  -0.37833  -0.37672  -0.37046
 Alpha  occ. eigenvalues --   -0.36926  -0.36529  -0.36519  -0.36404  -0.36069
 Alpha  occ. eigenvalues --   -0.35738  -0.35618  -0.34321  -0.33602  -0.33203
 Alpha  occ. eigenvalues --   -0.33062  -0.32896  -0.32615  -0.31853  -0.31535
 Alpha  occ. eigenvalues --   -0.31107  -0.31008  -0.30751  -0.30627  -0.30048
 Alpha  occ. eigenvalues --   -0.29910  -0.29688  -0.29333  -0.23655  -0.23543
 Alpha  occ. eigenvalues --   -0.21631  -0.21125
 Alpha virt. eigenvalues --   -0.09078  -0.08704  -0.01323  -0.00360   0.00671
 Alpha virt. eigenvalues --    0.00930   0.02310   0.02348   0.02653   0.03552
 Alpha virt. eigenvalues --    0.04525   0.05030   0.05147   0.05627   0.05760

 Mulliken charges:
               1
     1  Mg  11.999940
     2  C    6.022624
     3  C    5.979539
     4  C    5.975070
     5  C    6.002637
     6  N    7.004740
     7  C    5.970700
     8  C    6.012533
     9  C    5.993858
    10  C    6.028007
    11  C    5.997755
    12  C    6.004772
    13  C    6.001794
    14  H    0.992869
    15  N    6.991087
    16  C    6.048056
    17  C    6.030116
    18  C    6.006337
    19  C    6.041402
    20  C    5.991801
    21  C    6.012411
    22  O    8.025738
    23  C    5.995036
    24  N    6.990326
    25  C    6.043171
    26  C    5.983175
    27  C    6.014612
    28  C    5.965342
    29  C    6.001208
    30  C    6.004549
    31  C    6.001739
    32  N    7.006529
    33  C    5.968321
    34  C    5.970992
    35  C    5.993761
    36  C    5.967955
    37  C    6.003780
    38  C    5.986602
    39  O    7.970374
    40  C    5.994725
    41  C    5.999268
    42  O    7.990052
    43  O    8.001760
    44  C    6.002407
    45  H    1.010131
    46  H    1.007980
    47  H    0.986575
    48  H    0.995285
    49  H    1.001100
    50  H    0.995873
    51  H    0.999160
    52  H    1.013027
    53  H    0.990020
    54  H    0.999537
    55  H    1.005583
    56  H    1.000219
    57  H    1.022740
    58  H    1.022518
    59  H    1.023812
    60  H    1.003440
    61  H    1.014591
    62  H    1.006914
    63  H    1.000147
    64  H    0.999367
    65  H    1.000196
    66  H    0.997177
    67  H    1.011281
    68  H    0.986733
    69  H    1.001528
    70  H    1.000981
    71  H    0.990798
    72  H    1.001778
    73  H    0.980157
    74  H    0.980951
    75  H    0.981830
    76  H    0.991368
    77  H    0.996937
    78  H    0.997134
    79  H    0.993661
    80  Mg  11.999955
    81  C    6.000292
    82  C    5.999906
    83  C    5.999730
    84  C    6.000141
    85  N    7.000196
    86  C    5.999642
    87  C    6.000063
    88  C    5.999926
    89  C    6.000273
    90  C    5.999943
    91  C    6.000025
    92  C    6.000034
    93  H    0.999955
    94  N    6.999843
    95  C    6.000400
    96  C    6.000264
    97  C    6.000126
    98  C    6.000414
    99  C    5.999907
   100  C    6.000145
   101  O    8.000238
   102  C    5.999905
   103  N    6.999980
   104  C    6.000367
   105  C    5.999862
   106  C    6.000112
   107  C    5.999756
   108  C    6.000003
   109  C    6.000032
   110  C    5.999999
   111  N    6.999971
   112  C    5.999552
   113  C    5.999680
   114  C    5.999973
   115  C    5.999607
   116  C    6.000042
   117  C    5.999818
   118  O    7.999728
   119  C    5.999932
   120  C    5.999968
   121  O    7.999913
   122  O    8.000000
   123  C    6.000027
   124  H    1.000175
   125  H    1.000066
   126  H    0.999850
   127  H    1.000019
   128  H    1.000042
   129  H    1.000068
   130  H    1.000144
   131  H    0.999990
   132  H    0.999871
   133  H    1.000024
   134  H    1.000031
   135  H    0.999970
   136  H    1.000232
   137  H    1.000215
   138  H    1.000251
   139  H    1.000089
   140  H    1.000102
   141  H    1.000175
   142  H    1.000009
   143  H    0.999973
   144  H    0.999968
   145  H    1.000081
   146  H    1.000008
   147  H    1.000065
   148  H    0.999905
   149  H    0.999926
   150  H    0.999969
   151  H    1.000014
   152  H    0.999781
   153  H    0.999756
   154  H    0.999791
   155  H    0.999930
   156  H    0.999957
   157  H    0.999952
   158  H    0.999957
 Sum of Mulliken charges = 624.00000

 Dipole moment (field-independent basis, Debye):
    X=             -1.7981    Y=              3.5002    Z=             10.1505  Tot=             10.8866
 Quadrupole moment (field-independent basis, Debye-Ang):
   XX=             71.2613   YY=              0.3095   ZZ=              9.3338
   XY=            -79.6000   XZ=           -228.9146   YZ=              8.1531

 Normal termination of Gaussian 16 at Wed Sep 22 00:10:47 2021.
