 Gaussian 16, Revision A.03,
 Gaussian 16:  ES64L-G16RevA.03 25-Dec-2016

 -----------------------------------
 #p cam-b3lyp/Def2SVP td=(nstates=5)
 -----------------------------------

 --------------------------------
 TDDFT excited states in gaussian
 --------------------------------
 Symbolic Z-matrix:
 Charge =  0 Multiplicity = 1

                         Standard orientation:
 ---------------------------------------------------------------------
 Center     Atomic      Atomic             Coordinates (Angstroms)
 Number     Number       Type             X           Y           Z
 ---------------------------------------------------------------------
      1         12           0       12.706423   -0.717298   -0.338812
      2          6           0       14.837091    1.936062   -0.116134
      3          6           0       10.002045    1.529299    0.052420
      4          6           0       10.592933   -3.314606   -0.319287
      5          6           0       15.406814   -2.794434   -0.777183
      6          7           0       12.445488    1.410744    0.246789
      7          6           0       13.500052    2.328666    0.160907
      8          6           0       13.021650    3.788246    0.403212
      9          6           0       11.495354    3.528204    0.508067
     10          6           0       11.276592    2.037772    0.320760
     11          6           0       10.644120    4.058175    1.739549
     12          6           0       13.386281    4.857704   -0.718329
     13          6           0       12.825217    6.265467   -0.382331
     14          1           0       13.907765    7.265199    0.026904
     15          7           0       10.534645   -0.858105   -0.201937
     16          6           0        9.650051    0.195492   -0.286525
     17          6           0        8.321060   -0.395537   -0.182261
     18          6           0        8.509102   -1.811543   -0.283803
     19          6           0        9.914594   -2.069762   -0.297108
     20          6           0        7.113942    0.456439   -0.094963
     21          6           0        7.326696   -2.839689   -0.210207
     22          8           0        7.487739   -4.070578   -0.084082
     23          6           0        5.902342   -2.349087   -0.214233
     24          7           0       12.948378   -2.652274   -0.483442
     25          6           0       11.895441   -3.609005   -0.441369
     26          6           0       12.442977   -5.009514   -0.284305
     27          6           0       13.830170   -4.818210   -0.894458
     28          6           0       14.096905   -3.324611   -0.773094
     29          6           0       12.492657   -5.483285    1.207112
     30          6           0       13.881105   -5.190455   -2.393165
     31          6           0       14.119784   -6.628753   -2.767084
     32          7           0       14.762619   -0.581713   -0.403586
     33          6           0       15.729515   -1.452535   -0.735065
     34          6           0       17.000140   -0.791132   -0.691461
     35          6           0       16.721329    0.541583   -0.474764
     36          6           0       15.326768    0.634810   -0.346484
     37          6           0       18.282187   -1.499773   -0.958147
     38          6           0       17.319134    1.801494   -0.345145
     39          8           0       18.478170    2.159595   -0.427467
     40          6           0       16.089588    2.796564   -0.101025
     41          6           0       16.328547    3.511266    1.181678
     42          8           0       16.327109    3.037773    2.291896
     43          8           0       16.410405    4.831549    0.991861
     44          6           0       16.600576    5.678048    2.232239
     45          1           0        9.222793    2.293413    0.019828
     46          1           0        9.915579   -4.170947   -0.321250
     47          1           0       16.299758   -3.366273   -1.036793
     48          1           0       13.408783    4.122203    1.365919
     49          1           0       10.993710    3.963244   -0.356856
     50          1           0        9.634516    4.403852    1.515910
     51          1           0       11.248639    4.737541    2.340745
     52          1           0       10.460486    3.164306    2.335534
     53          1           0       12.995954    4.407052   -1.630005
     54          1           0       14.471755    4.900824   -0.806758
     55          1           0       12.007842    6.178662    0.333536
     56          1           0       12.402834    6.656879   -1.307332
     57          1           0        6.693284    0.338466    0.903835
     58          1           0        6.498630    0.186328   -0.953191
     59          1           0        7.366204    1.503472   -0.263467
     60          1           0        5.218216   -3.197646   -0.219597
     61          1           0        5.788564   -1.890739   -1.197573
     62          1           0        5.620881   -1.637589    0.561631
     63          1           0       11.839396   -5.732587   -0.833599
     64          1           0       14.613710   -5.363117   -0.368318
     65          1           0       13.301661   -4.993586    1.747757
     66          1           0       12.601354   -6.567061    1.256303
     67          1           0       11.523938   -5.213316    1.626141
     68          1           0       14.594327   -4.589127   -2.955491
     69          1           0       12.957234   -4.873053   -2.876917
     70          1           0       13.254446   -6.945747   -3.348454
     71          1           0       14.022817   -7.147964   -1.813481
     72          1           0       15.084387   -6.821569   -3.236901
     73          1           0       18.585609   -1.356588   -1.994497
     74          1           0       18.376589   -2.538872   -0.641274
     75          1           0       19.025698   -0.968426   -0.363788
     76          1           0       16.060002    3.510352   -0.924590
     77          1           0       15.833096    5.374110    2.944405
     78          1           0       16.452537    6.743260    2.052811
     79          1           0       17.600189    5.478972    2.619185
     80         12           0      -13.041691   -0.626803    0.326134
     81          6           0      -13.587244    2.507313   -1.191069
     82          6           0      -11.775873    1.100263    3.038988
     83          6           0      -12.344584   -3.590599    1.870331
     84          6           0      -13.975701   -2.177230   -2.501068
     85          7           0      -12.748381    1.585871    0.880120
     86          6           0      -13.165402    2.706693    0.172269
     87          6           0      -13.075387    3.945059    1.041241
     88          6           0      -12.159392    3.491507    2.235558
     89          6           0      -12.250420    1.993961    2.046329
     90          6           0      -10.699817    4.093803    2.247185
     91          6           0      -14.437915    4.408764    1.577571
     92          6           0      -14.625654    5.926718    1.672130
     93          1           0      -13.808885    6.709602    2.737518
     94          7           0      -12.269686   -1.178185    2.215480
     95          6           0      -11.791155   -0.287935    3.114900
     96          6           0      -11.217740   -1.007382    4.205537
     97          6           0      -11.469657   -2.410160    4.016366
     98          6           0      -11.991247   -2.437031    2.661265
     99          6           0      -10.535687   -0.313178    5.351605
    100          6           0      -11.144694   -3.630540    4.877930
    101          8           0      -11.600353   -4.764369    4.610806
    102          6           0      -10.188835   -3.567174    6.063840
    103          7           0      -13.230380   -2.576532   -0.199192
    104          6           0      -12.817564   -3.667864    0.559213
    105          6           0      -13.007102   -4.915654   -0.240735
    106          6           0      -13.600178   -4.547825   -1.648295
    107          6           0      -13.663721   -3.022562   -1.467401
    108          6           0      -11.773992   -5.868243   -0.263641
    109          6           0      -14.983197   -5.155298   -1.968276
    110          6           0      -14.908493   -6.449692   -2.800993
    111          7           0      -13.606740   -0.039830   -1.475846
    112          6           0      -14.043642   -0.766497   -2.582548
    113          6           0      -14.513978    0.119364   -3.711184
    114          6           0      -14.294952    1.392166   -3.159695
    115          6           0      -13.809965    1.256776   -1.819211
    116          6           0      -15.060156   -0.328724   -5.054575
    117          6           0      -14.427014    2.804509   -3.484066
    118          8           0      -14.792003    3.365413   -4.518096
    119          6           0      -14.074834    3.566530   -2.136588
    120          6           0      -13.017889    4.617015   -2.530461
    121          8           0      -12.098548    4.459511   -3.307111
    122          8           0      -13.383512    5.842665   -1.977168
    123          6           0      -12.443859    6.917155   -2.298052
    124          1           0      -11.457314    1.677507    3.909265
    125          1           0      -12.169529   -4.591369    2.270102
    126          1           0      -14.143942   -2.751044   -3.414410
    127          1           0      -12.596421    4.800186    0.564955
    128          1           0      -12.531517    3.763698    3.223286
    129          1           0      -10.497370    4.850726    1.488890
    130          1           0       -9.881062    3.391391    2.092959
    131          1           0      -10.507073    4.618033    3.183220
    132          1           0      -14.636563    3.995009    2.565962
    133          1           0      -15.242162    4.088473    0.914923
    134          1           0      -15.675342    6.201044    1.776091
    135          1           0      -14.391074    6.413321    0.725631
    136          1           0       -9.863645    0.367476    4.828734
    137          1           0       -9.907949   -0.915067    6.008541
    138          1           0      -11.194846    0.280177    5.984865
    139          1           0       -9.255166   -3.078762    5.784395
    140          1           0      -10.060864   -4.622301    6.305127
    141          1           0      -10.616966   -2.989667    6.883155
    142          1           0      -13.670894   -5.557167    0.339667
    143          1           0      -12.936560   -4.733282   -2.493861
    144          1           0      -10.966973   -5.377547    0.280886
    145          1           0      -11.458031   -6.008180   -1.297068
    146          1           0      -12.125669   -6.764436    0.248591
    147          1           0      -15.594800   -4.359674   -2.393168
    148          1           0      -15.468627   -5.513795   -1.060301
    149          1           0      -13.937082   -6.923759   -2.659196
    150          1           0      -14.960168   -6.337522   -3.884134
    151          1           0      -15.662407   -7.138071   -2.417941
    152          1           0      -16.057938   -0.730599   -4.877544
    153          1           0      -14.496891   -1.117250   -5.553242
    154          1           0      -15.106943    0.571632   -5.666961
    155          1           0      -14.908114    4.070985   -1.647797
    156          1           0      -11.626073    7.037574   -1.586901
    157          1           0      -13.074331    7.804959   -2.345123
    158          1           0      -11.889319    6.876462   -3.235551
 ---------------------------------------------------------------------

 SCF Done:  E(RCAM-B3LYP) =  -4069.86514261     A.U. after   17 cycles

 Excitation energies and oscillator strengths:

 Excited State   1:      Singlet-A      1.6534 eV  749.89 nm  f=0.4030  <S**2>=0.000
     309 -> 316       -0.16001
     311 -> 313        0.69037
     309 <- 316       -0.10381
 This state for optimization and/or second-order correction.
 Total Energy, E(TD-HF/TD-DFT) =  -4069.80438240
 Copying the excited state density for this state as the 1-particle RhoCI density.

 Excited State   2:      Singlet-A      1.7015 eV  728.67 nm  f=0.3664  <S**2>=0.000
     310 -> 315       -0.18643
     312 -> 314        0.68344
     310 <- 315       -0.10949

 Excited State   3:      Singlet-A      2.2323 eV  555.40 nm  f=0.0936  <S**2>=0.000
     310 -> 314        0.63560
     312 -> 315        0.29940

 Excited State   4:      Singlet-A      2.2510 eV  550.80 nm  f=0.1114  <S**2>=0.000
     309 -> 313        0.63823
     311 -> 316        0.28828

 Excited State   5:      Singlet-A      2.9083 eV  426.31 nm  f=0.0000  <S**2>=0.000
     312 -> 313        0.70706

 The electronic state is 1-A.
 Alpha  occ. eigenvalues --  -46.87684 -46.87535 -19.25813 -19.24949 -19.20459
 Alpha  occ. eigenvalues --  -19.19407 -19.19234 -19.19135 -19.18773 -19.18586
 Alpha  occ. eigenvalues --  -14.42753 -14.42712 -14.41773 -14.41311 -14.39931
 Alpha  occ. eigenvalues --  -14.39516 -14.38898 -14.38883 -10.39732 -10.38561
 Alpha  occ. eigenvalues --  -10.35874 -10.35247 -10.35119 -10.34972 -10.32326
 Alpha  occ. eigenvalues --  -10.32088 -10.31532 -10.31477 -10.31390 -10.30913
 Alpha  occ. eigenvalues --  -10.30778 -10.30761 -10.30597 -10.30359 -10.30312
 Alpha  occ. eigenvalues --  -10.30041 -10.29622 -10.29593 -10.29505 -10.29299
 Alpha  occ. eigenvalues --  -10.29258 -10.29147 -10.29026 -10.29014 -10.28781
 Alpha  occ. eigenvalues --  -10.28775 -10.28747 -10.28673 -10.28636 -10.28600
 Alpha  occ. eigenvalues --  -10.28512 -10.28421 -10.28130 -10.28090 -10.27883
 Alpha  occ. eigenvalues --  -10.27820 -10.27793 -10.27581 -10.27488 -10.27412
 Alpha  occ. eigenvalues --  -10.27401 -10.27399 -10.27230 -10.27147 -10.27103
 Alpha  occ. eigenvalues --  -10.27082 -10.26801 -10.26704 -10.26655 -10.26572
 Alpha  occ. eigenvalues --  -10.26449 -10.26439 -10.26384 -10.26361 -10.26195
 Alpha  occ. eigenvalues --  -10.26043 -10.26023 -10.25869 -10.25769 -10.25730
 Alpha  occ. eigenvalues --  -10.25686 -10.25603 -10.25583 -10.25558 -10.25125
 Alpha  occ. eigenvalues --  -10.25049  -3.16467  -3.16315  -1.91365  -1.91217
 Alpha  occ. eigenvalues --   -1.90898  -1.90811  -1.90786  -1.90614  -1.16945
 Alpha  occ. eigenvalues --   -1.16351  -1.10471  -1.09272  -1.08956  -1.08313
 Alpha  occ. eigenvalues --   -1.08223  -1.07175  -1.05473  -1.04753  -1.03956
 Alpha  occ. eigenvalues --   -1.03703  -1.03132  -1.03111  -1.01993  -1.01491
 Alpha  occ. eigenvalues --   -0.93367  -0.92613  -0.89477  -0.89113  -0.89053
 Alpha  occ. eigenvalues --   -0.88813  -0.88695  -0.88329  -0.87939  -0.87519
 Alpha  occ. eigenvalues --   -0.87205  -0.87050  -0.86603  -0.86183  -0.84456
 Alpha  occ. eigenvalues --   -0.84360  -0.84001  -0.83581  -0.82561  -0.82340
 Alpha  occ. eigenvalues --   -0.81760  -0.81616  -0.81247  -0.81026  -0.80670
 Alpha  occ. eigenvalues --   -0.80124  -0.78491  -0.78420  -0.77588  -0.77502
 Alpha  occ. eigenvalues --   -0.77331  -0.77252  -0.76245  -0.76197  -0.75237
 Alpha  occ. eigenvalues --   -0.75096  -0.73253  -0.72719  -0.71844  -0.71702
 Alpha  occ. eigenvalues --   -0.69480  -0.69422  -0.68991  -0.68848  -0.68346
 Alpha  occ. eigenvalues --   -0.68227  -0.67353  -0.66116  -0.65833  -0.65830
 Alpha  occ. eigenvalues --   -0.65539  -0.64986  -0.64656  -0.64529  -0.64220
 Alpha  occ. eigenvalues --   -0.64205  -0.62621  -0.62117  -0.60415  -0.60285
 Alpha  occ. eigenvalues --   -0.60188  -0.60026  -0.59150  -0.58975  -0.58915
 Alpha  occ. eigenvalues --   -0.58536  -0.58360  -0.58052  -0.57794  -0.57537
 Alpha  occ. eigenvalues --   -0.56585  -0.56117  -0.56058  -0.55489  -0.55155
 Alpha  occ. eigenvalues --   -0.55058  -0.54790  -0.54743  -0.54282  -0.53847
 Alpha  occ. eigenvalues --   -0.53535  -0.53495  -0.53384  -0.53172  -0.52973
 Alpha  occ. eigenvalues --   -0.52914  -0.52748  -0.52603  -0.52318  -0.52189
 Alpha  occ. eigenvalues --   -0.51896  -0.51797  -0.51789  -0.51705  -0.51359
 Alpha  occ. eigenvalues --   -0.51266  -0.50524  -0.50406  -0.50283  -0.50248
 Alpha  occ. eigenvalues --   -0.50081  -0.50021  -0.49936  -0.49829  -0.49766
 Alpha  occ. eigenvalues --   -0.49406  -0.49309  -0.49104  -0.48979  -0.48939
 Alpha  occ. eigenvalues --   -0.48797  -0.48533  -0.48295  -0.48277  -0.48131
 Alpha  occ. eigenvalues --   -0.48115  -0.47774  -0.47657  -0.47536  -0.47440
 Alpha  occ. eigenvalues --   -0.47155  -0.46958  -0.46901  -0.46699  -0.46567
 Alpha  occ. eigenvalues --   -0.46554  -0.46488  -0.46316  -0.46067  -0.45945
 Alpha  occ. eigenvalues --   -0.45889  -0.45555  -0.45534  -0.45306  -0.44960
 Alpha  occ. eigenvalues --   -0.44728  -0.44666  -0.44573  -0.44389  -0.44382
 Alpha  occ. eigenvalues --   -0.44260  -0.43783  -0.43747  -0.43629  -0.43590
 Alpha  occ. eigenvalues --   -0.43527  -0.43368  -0.43234  -0.43056  -0.42880
 Alpha  occ. eigenvalues --   -0.42726  -0.42401  -0.42040  -0.41975  -0.41840
 Alpha  occ. eigenvalues --   -0.41785  -0.41661  -0.41651  -0.41587  -0.41267
 Alpha  occ. eigenvalues --   -0.41159  -0.41089  -0.40912  -0.40672  -0.40482
 Alpha  occ. eigenvalues --   -0.40445  -0.40289  -0.40074  -0.39855  -0.39721
 Alpha  occ. eigenvalues --   -0.38743  -0.38469  -0.38350  -0.38095  -0.37970
 Alpha  occ. eigenvalues --   -0.37510  -0.37313  -0.36967  -0.36921  -0.36697
 Alpha  occ. eigenvalues --   -0.36678  -0.36600  -0.35196  -0.35002  -0.34250
 Alpha  occ. eigenvalues --   -0.34042  -0.33310  -0.32892  -0.31550  -0.31493
 Alpha  occ. eigenvalues --   -0.31277  -0.31013  -0.30982  -0.30683  -0.30594
 Alpha  occ. eigenvalues --   -0.30510  -0.30035  -0.29130  -0.24640  -0.23989
 Alpha  occ. eigenvalues --   -0.21148  -0.21116
 Alpha virt. eigenvalues --   -0.09102  -0.08611  -0.01819  -0.01578  -0.00040
 Alpha virt. eigenvalues --    0.00375   0.01710   0.02326   0.03386   0.03701
 Alpha virt. eigenvalues --    0.04625   0.04710   0.04983   0.05330   0.05559

 Mulliken charges:
               1
     1  Mg   0.828548
     2  C    0.007441
     3  C   -0.059563
     4  C   -0.069201
     5  C   -0.093581
     6  N   -0.267910
     7  C   -0.051192
     8  C    0.020209
     9  C   -0.103954
    10  C    0.038326
    11  C    0.063745
    12  C    0.034974
    13  C   -0.056581
    14  H    0.031807
    15  N   -0.358584
    16  C    0.139246
    17  C   -0.203074
    18  C   -0.035917
    19  C    0.110397
    20  C    0.139560
    21  C    0.019205
    22  O   -0.225604
    23  C    0.056018
    24  N   -0.391510
    25  C    0.083613
    26  C   -0.019353
    27  C   -0.020667
    28  C    0.118484
    29  C    0.088233
    30  C   -0.004955
    31  C    0.053338
    32  N   -0.339599
    33  C    0.089680
    34  C   -0.168111
    35  C    0.069276
    36  C    0.103933
    37  C    0.107994
    38  C    0.017676
    39  O   -0.153742
    40  C   -0.052430
    41  C    0.180648
    42  O   -0.217075
    43  O   -0.331545
    44  C    0.179213
    45  H   -0.027556
    46  H   -0.006577
    47  H   -0.026901
    48  H    0.017546
    49  H    0.009502
    50  H    0.020210
    51  H    0.021696
    52  H    0.015320
    53  H    0.011030
    54  H    0.033036
    55  H    0.029947
    56  H    0.029379
    57  H    0.042723
    58  H    0.027796
    59  H    0.001092
    60  H    0.024413
    61  H    0.024996
    62  H    0.039799
    63  H    0.000277
    64  H   -0.003816
    65  H    0.020425
    66  H    0.019258
    67  H    0.019106
    68  H   -0.002492
    69  H   -0.003835
    70  H    0.012754
    71  H   -0.002505
    72  H    0.028785
    73  H    0.038399
    74  H    0.023681
    75  H    0.027426
    76  H    0.043228
    77  H    0.041430
    78  H    0.041636
    79  H    0.051375
    80  Mg   0.856952
    81  C   -0.058829
    82  C   -0.109587
    83  C   -0.071320
    84  C   -0.087053
    85  N   -0.241842
    86  C   -0.014073
    87  C    0.014353
    88  C   -0.051371
    89  C   -0.006680
    90  C    0.053000
    91  C    0.064875
    92  C   -0.070526
    93  H    0.002287
    94  N   -0.342965
    95  C    0.211760
    96  C   -0.159473
    97  C   -0.006306
    98  C    0.104267
    99  C    0.108410
   100  C    0.005876
   101  O   -0.228119
   102  C    0.038024
   103  N   -0.379051
   104  C    0.084259
   105  C   -0.051073
   106  C   -0.001757
   107  C    0.029959
   108  C    0.063123
   109  C    0.044993
   110  C   -0.000587
   111  N   -0.392737
   112  C    0.133019
   113  C   -0.159682
   114  C   -0.023330
   115  C    0.156272
   116  C    0.124931
   117  C    0.083824
   118  O   -0.172915
   119  C   -0.034131
   120  C    0.197888
   121  O   -0.193236
   122  O   -0.339631
   123  C    0.167210
   124  H   -0.033848
   125  H   -0.010857
   126  H   -0.037252
   127  H    0.007681
   128  H    0.014710
   129  H    0.012905
   130  H    0.020308
   131  H    0.012764
   132  H    0.016788
   133  H    0.012052
   134  H    0.024857
   135  H    0.028531
   136  H    0.024831
   137  H    0.003854
   138  H    0.034981
   139  H    0.040233
   140  H    0.038116
   141  H    0.041736
   142  H    0.016656
   143  H    0.017691
   144  H    0.022104
   145  H    0.012511
   146  H    0.021822
   147  H    0.012872
   148  H    0.003452
   149  H    0.004483
   150  H    0.019160
   151  H    0.018535
   152  H    0.027742
   153  H    0.026024
   154  H    0.042267
   155  H    0.042775
   156  H    0.025608
   157  H    0.037275
   158  H    0.047629
 Sum of Mulliken charges =  -0.00000

 Dipole moment (field-independent basis, Debye):
    X=             -1.7536    Y=              2.5495    Z=              2.3483  Tot=              3.8845
 Quadrupole moment (field-independent basis, Debye-Ang):
   XX=           -618.0624   YY=           -482.7410   ZZ=           -521.5317
   XY=              2.7813   XZ=            -65.8129   YZ=             45.1335

 Normal termination of Gaussian 16 at Thu Sep  2 10:59:30 2021.
