 Gaussian 16, Revision A.03,
 Gaussian 16:  ES64L-G16RevA.03 25-Dec-2016

 -----------------------------------
 #p cam-b3lyp/Def2SVP td=(nstates=5)
 -----------------------------------

 --------------------------------
 TDDFT excited states in gaussian
 --------------------------------
 Symbolic Z-matrix:
 Charge =  0 Multiplicity = 1

                         Standard orientation:
 ---------------------------------------------------------------------
 Center     Atomic      Atomic             Coordinates (Angstroms)
 Number     Number       Type             X           Y           Z
 ---------------------------------------------------------------------
      1         12           0      -11.535589    0.052431   -0.335479
      2          6           0       -9.128622   -1.107630    1.969982
      3          6           0      -11.215022    3.248147    1.025518
      4          6           0      -13.016068    1.269924   -3.153328
      5          6           0      -11.300852   -3.167722   -1.886406
      6          7           0      -10.353766    0.913184    1.299426
      7          6           0       -9.441230    0.277084    2.064264
      8          6           0       -8.703438    1.280039    3.009741
      9          6           0       -9.683906    2.537593    2.910000
     10          6           0      -10.545432    2.224671    1.643924
     11          6           0      -10.673415    2.863707    4.051593
     12          6           0       -7.254259    1.537921    2.447952
     13          6           0       -6.172316    1.723531    3.547781
     14          1           0       -5.096614    2.849749    3.264674
     15          7           0      -12.248449    2.011976   -0.912532
     16          6           0      -12.035326    3.139777   -0.165102
     17          6           0      -12.693532    4.197708   -0.832745
     18          6           0      -13.181879    3.722448   -2.086050
     19          6           0      -12.878485    2.252166   -2.098589
     20          6           0      -12.771569    5.621103   -0.333436
     21          6           0      -13.725535    4.544706   -3.204338
     22          8           0      -13.741592    5.764352   -3.160173
     23          6           0      -14.213305    4.017575   -4.452153
     24          7           0      -11.976473   -0.854538   -2.313070
     25          6           0      -12.755625   -0.128442   -3.225944
     26          6           0      -13.214197   -1.010593   -4.344789
     27          6           0      -12.624253   -2.428695   -4.002898
     28          6           0      -11.926726   -2.172479   -2.678120
     29          6           0      -14.745570   -0.963555   -4.421907
     30          6           0      -11.841539   -3.094647   -5.196592
     31          6           0      -12.316391   -4.441717   -5.650368
     32          7           0      -10.468498   -1.836082   -0.036126
     33          6           0      -10.543237   -3.024178   -0.720802
     34          6           0       -9.791189   -4.079408   -0.006906
     35          6           0       -9.182365   -3.303806    1.015167
     36          6           0       -9.685173   -2.016316    0.998677
     37          6           0       -9.558460   -5.531867   -0.392365
     38          6           0       -8.171652   -3.368078    2.037174
     39          8           0       -7.432874   -4.308510    2.368313
     40          6           0       -8.076139   -2.007139    2.726295
     41          6           0       -8.284520   -2.128476    4.181274
     42          8           0       -7.475269   -1.790943    4.967257
     43          8           0       -9.558958   -2.475955    4.524852
     44          6           0       -9.768371   -2.324143    5.981084
     45          1           0      -11.198678    4.243728    1.474882
     46          1           0      -13.572904    1.709613   -3.982289
     47          1           0      -11.077316   -4.180963   -2.228406
     48          1           0       -8.662971    0.837886    4.005365
     49          1           0       -9.234548    3.447264    2.511991
     50          1           0      -10.917817    1.960289    4.611505
     51          1           0      -11.601592    3.356927    3.762761
     52          1           0      -10.130812    3.521115    4.730093
     53          1           0       -7.250676    2.383803    1.759926
     54          1           0       -7.028637    0.648178    1.860036
     55          1           0       -5.694251    0.744966    3.595456
     56          1           0       -6.770543    1.863974    4.448331
     57          1           0      -13.584894    6.228853   -0.730182
     58          1           0      -11.808487    6.041812   -0.621269
     59          1           0      -12.669591    5.767327    0.741905
     60          1           0      -15.057818    3.370853   -4.210721
     61          1           0      -13.423724    3.499172   -4.996898
     62          1           0      -14.547311    4.850626   -5.070741
     63          1           0      -12.716291   -0.739553   -5.275463
     64          1           0      -13.304925   -3.172500   -3.588138
     65          1           0      -15.180253   -0.137433   -3.858646
     66          1           0      -15.198367   -1.865928   -4.011056
     67          1           0      -15.049391   -0.669007   -5.425975
     68          1           0      -10.810631   -3.150604   -4.847004
     69          1           0      -11.927859   -2.553895   -6.138349
     70          1           0      -11.458777   -5.112786   -5.611090
     71          1           0      -12.648449   -4.426733   -6.688616
     72          1           0      -13.198494   -4.789993   -5.112975
     73          1           0       -8.746308   -5.652222   -1.109607
     74          1           0      -10.462298   -6.035887   -0.736931
     75          1           0       -9.174865   -5.932354    0.545938
     76          1           0       -7.053054   -1.638055    2.666937
     77          1           0      -10.797001   -2.612882    6.198641
     78          1           0       -9.581763   -1.296412    6.292299
     79          1           0       -9.202717   -3.026867    6.591923
     80         12           0       11.331549    0.204818   -0.587513
     81          6           0        8.617390    0.258294    1.651561
     82          6           0       11.247093   -3.265995   -0.395369
     83          6           0       14.089311    0.214847   -2.437436
     84          6           0       11.818783    3.711506    0.009335
     85          7           0       10.109908   -1.305091    0.506384
     86          6           0        8.968802   -1.022073    1.270094
     87          6           0        8.131494   -2.281131    1.398413
     88          6           0        9.086226   -3.442061    0.999120
     89          6           0       10.223073   -2.621001    0.319208
     90          6           0        9.519712   -4.409603    2.144847
     91          6           0        6.781492   -2.253418    0.601218
     92          6           0        5.609897   -3.095708    1.274000
     93          1           0        5.929364   -3.865465    2.558299
     94          7           0       12.388343   -1.270907   -1.389527
     95          6           0       12.160035   -2.630491   -1.264801
     96          6           0       13.058682   -3.375269   -2.098747
     97          6           0       13.981778   -2.406981   -2.608551
     98          6           0       13.479887   -1.112857   -2.182220
     99          6           0       13.056281   -4.931285   -2.198803
    100          6           0       15.216002   -2.627546   -3.420582
    101          8           0       16.015793   -1.692801   -3.664637
    102          6           0       15.779742   -3.953223   -4.011611
    103          7           0       12.916939    1.671973   -0.928114
    104          6           0       13.895407    1.447181   -1.825306
    105          6           0       14.591226    2.776106   -2.213197
    106          6           0       13.892811    3.889482   -1.424287
    107          6           0       12.739881    3.019884   -0.753727
    108          6           0       16.082872    2.675276   -2.114280
    109          6           0       13.367979    5.099031   -2.227330
    110          6           0       12.334453    4.763219   -3.330614
    111          7           0       10.473672    1.736620    0.632799
    112          6           0       10.681125    3.074033    0.624261
    113          6           0        9.578398    3.673801    1.373909
    114          6           0        8.693508    2.644006    1.799867
    115          6           0        9.311170    1.447180    1.362249
    116          6           0        9.330155    5.169732    1.548452
    117          6           0        7.485150    2.351228    2.502427
    118          8           0        6.587528    3.040830    2.978967
    119          6           0        7.409851    0.688213    2.490688
    120          6           0        7.265630    0.186012    3.914990
    121          8           0        8.197455    0.079329    4.687989
    122          8           0        5.973884   -0.219162    4.163376
    123          6           0        5.534617   -0.369161    5.546885
    124          1           0       11.048407   -4.339050   -0.361295
    125          1           0       14.933564    0.163273   -3.127700
    126          1           0       11.954315    4.794529    0.032890
    127          1           0        7.840499   -2.414915    2.440197
    128          1           0        8.574567   -4.022312    0.231797
    129          1           0       10.606647   -4.351154    2.098687
    130          1           0        9.260995   -5.439739    1.896985
    131          1           0        9.214034   -4.204719    3.170825
    132          1           0        6.887823   -2.719172   -0.378019
    133          1           0        6.494395   -1.214823    0.442005
    134          1           0        5.354112   -3.900814    0.585000
    135          1           0        4.778028   -2.412384    1.443029
    136          1           0       14.095495   -5.257314   -2.256511
    137          1           0       12.561271   -5.292496   -3.099612
    138          1           0       12.578622   -5.547828   -1.437494
    139          1           0       15.034430   -4.441271   -4.640276
    140          1           0       16.152645   -4.628429   -3.241501
    141          1           0       16.496184   -3.814704   -4.820451
    142          1           0       14.478537    2.855592   -3.293677
    143          1           0       14.565557    4.100712   -0.592337
    144          1           0       16.563930    2.550210   -3.084534
    145          1           0       16.356003    1.871608   -1.430264
    146          1           0       16.559690    3.540650   -1.652637
    147          1           0       14.266479    5.481336   -2.712158
    148          1           0       12.965474    5.853439   -1.550692
    149          1           0       11.437618    5.319676   -3.059076
    150          1           0       12.174560    3.685630   -3.292997
    151          1           0       12.683202    4.952381   -4.345963
    152          1           0        8.282679    5.439084    1.416019
    153          1           0        9.818182    5.749182    0.765289
    154          1           0        9.761632    5.474336    2.502338
    155          1           0        6.475796    0.468920    1.972804
    156          1           0        6.366882   -0.820042    6.088028
    157          1           0        4.666980   -1.014524    5.684483
    158          1           0        5.249140    0.631849    5.870372
 ---------------------------------------------------------------------

 SCF Done:  E(RCAM-B3LYP) =  -4069.79246343     A.U. after   19 cycles

 Excitation energies and oscillator strengths:

 Excited State   1:      Singlet-A      1.6587 eV  747.49 nm  f=0.3852  <S**2>=0.000
     310 -> 316        0.16727
     312 -> 314        0.68809
     310 <- 316        0.10531
 This state for optimization and/or second-order correction.
 Total Energy, E(TD-HF/TD-DFT) =  -4069.73150800
 Copying the excited state density for this state as the 1-particle RhoCI density.

 Excited State   2:      Singlet-A      1.6802 eV  737.92 nm  f=0.4192  <S**2>=0.000
     309 -> 315        0.17278
     311 -> 313        0.68683
     309 <- 315        0.10652

 Excited State   3:      Singlet-A      2.1919 eV  565.65 nm  f=0.1583  <S**2>=0.000
     310 -> 314        0.65463
     312 -> 316       -0.24399

 Excited State   4:      Singlet-A      2.2014 eV  563.21 nm  f=0.1113  <S**2>=0.000
     309 -> 313        0.63955
     311 -> 315       -0.27995

 Excited State   5:      Singlet-A      2.8087 eV  441.42 nm  f=0.0000  <S**2>=0.000
     312 -> 313        0.70706

 The electronic state is 1-A.
 Alpha  occ. eigenvalues --  -46.90864 -46.88797 -19.25139 -19.24081 -19.19943
 Alpha  occ. eigenvalues --  -19.19230 -19.19100 -19.18880 -19.18265 -19.17346
 Alpha  occ. eigenvalues --  -14.43004 -14.42727 -14.42434 -14.41323 -14.40163
 Alpha  occ. eigenvalues --  -14.39934 -14.39329 -14.39265 -10.38961 -10.38757
 Alpha  occ. eigenvalues --  -10.35458 -10.35381 -10.34808 -10.33530 -10.32264
 Alpha  occ. eigenvalues --  -10.32013 -10.31892 -10.31847 -10.31431 -10.31216
 Alpha  occ. eigenvalues --  -10.31094 -10.31012 -10.30815 -10.30679 -10.30623
 Alpha  occ. eigenvalues --  -10.30354 -10.30248 -10.30211 -10.29888 -10.29744
 Alpha  occ. eigenvalues --  -10.29407 -10.29337 -10.29109 -10.29098 -10.29041
 Alpha  occ. eigenvalues --  -10.28935 -10.28922 -10.28749 -10.28534 -10.28496
 Alpha  occ. eigenvalues --  -10.28460 -10.28199 -10.28159 -10.28104 -10.28080
 Alpha  occ. eigenvalues --  -10.28019 -10.27868 -10.27834 -10.27777 -10.27750
 Alpha  occ. eigenvalues --  -10.27564 -10.27509 -10.27406 -10.27379 -10.27361
 Alpha  occ. eigenvalues --  -10.27314 -10.27087 -10.27011 -10.26806 -10.26789
 Alpha  occ. eigenvalues --  -10.26688 -10.26637 -10.26551 -10.26484 -10.26398
 Alpha  occ. eigenvalues --  -10.26245 -10.26122 -10.25962 -10.25798 -10.25528
 Alpha  occ. eigenvalues --  -10.25493 -10.25480 -10.25316 -10.25277 -10.25178
 Alpha  occ. eigenvalues --  -10.24819  -3.19011  -3.17367  -1.93925  -1.93447
 Alpha  occ. eigenvalues --   -1.93307  -1.92237  -1.91823  -1.91681  -1.18000
 Alpha  occ. eigenvalues --   -1.15280  -1.09577  -1.09317  -1.09068  -1.08991
 Alpha  occ. eigenvalues --   -1.08316  -1.07291  -1.05143  -1.04215  -1.03774
 Alpha  occ. eigenvalues --   -1.03466  -1.03354  -1.03107  -1.02564  -1.02002
 Alpha  occ. eigenvalues --   -0.92658  -0.92064  -0.89462  -0.89115  -0.89049
 Alpha  occ. eigenvalues --   -0.88408  -0.88252  -0.88079  -0.88036  -0.87259
 Alpha  occ. eigenvalues --   -0.87049  -0.86694  -0.85850  -0.85204  -0.84910
 Alpha  occ. eigenvalues --   -0.84688  -0.83699  -0.83218  -0.82737  -0.82535
 Alpha  occ. eigenvalues --   -0.82049  -0.80956  -0.80945  -0.80578  -0.80496
 Alpha  occ. eigenvalues --   -0.79939  -0.78695  -0.78604  -0.77642  -0.76897
 Alpha  occ. eigenvalues --   -0.76838  -0.76633  -0.76511  -0.75700  -0.75455
 Alpha  occ. eigenvalues --   -0.74874  -0.73175  -0.72547  -0.72429  -0.70972
 Alpha  occ. eigenvalues --   -0.69824  -0.69409  -0.69297  -0.69018  -0.68203
 Alpha  occ. eigenvalues --   -0.67976  -0.67395  -0.66913  -0.66387  -0.65729
 Alpha  occ. eigenvalues --   -0.65092  -0.65024  -0.64784  -0.64677  -0.64054
 Alpha  occ. eigenvalues --   -0.64014  -0.63336  -0.61480  -0.60803  -0.60112
 Alpha  occ. eigenvalues --   -0.60054  -0.59365  -0.59019  -0.58920  -0.58674
 Alpha  occ. eigenvalues --   -0.58334  -0.57958  -0.57289  -0.57108  -0.56831
 Alpha  occ. eigenvalues --   -0.56539  -0.56110  -0.55790  -0.55650  -0.55582
 Alpha  occ. eigenvalues --   -0.55168  -0.54777  -0.54631  -0.54587  -0.53792
 Alpha  occ. eigenvalues --   -0.53535  -0.53414  -0.53333  -0.53235  -0.52924
 Alpha  occ. eigenvalues --   -0.52842  -0.52683  -0.52669  -0.52424  -0.52289
 Alpha  occ. eigenvalues --   -0.52235  -0.51865  -0.51772  -0.51506  -0.51358
 Alpha  occ. eigenvalues --   -0.51203  -0.50924  -0.50908  -0.50601  -0.50073
 Alpha  occ. eigenvalues --   -0.49912  -0.49894  -0.49591  -0.49402  -0.49297
 Alpha  occ. eigenvalues --   -0.49146  -0.49098  -0.49069  -0.48919  -0.48653
 Alpha  occ. eigenvalues --   -0.48651  -0.48480  -0.48426  -0.48232  -0.48067
 Alpha  occ. eigenvalues --   -0.47765  -0.47632  -0.47546  -0.47361  -0.47306
 Alpha  occ. eigenvalues --   -0.46996  -0.46824  -0.46712  -0.46566  -0.46370
 Alpha  occ. eigenvalues --   -0.46352  -0.46246  -0.46179  -0.45790  -0.45715
 Alpha  occ. eigenvalues --   -0.45343  -0.45165  -0.45123  -0.45091  -0.44874
 Alpha  occ. eigenvalues --   -0.44716  -0.44580  -0.44446  -0.44377  -0.44105
 Alpha  occ. eigenvalues --   -0.44043  -0.43963  -0.43893  -0.43618  -0.43353
 Alpha  occ. eigenvalues --   -0.43274  -0.43035  -0.43004  -0.42936  -0.42906
 Alpha  occ. eigenvalues --   -0.42675  -0.42538  -0.42327  -0.42298  -0.41820
 Alpha  occ. eigenvalues --   -0.41795  -0.41727  -0.41494  -0.41430  -0.41305
 Alpha  occ. eigenvalues --   -0.41058  -0.40819  -0.40613  -0.40446  -0.40176
 Alpha  occ. eigenvalues --   -0.39969  -0.39645  -0.39535  -0.39247  -0.39089
 Alpha  occ. eigenvalues --   -0.38704  -0.38579  -0.37901  -0.37661  -0.37661
 Alpha  occ. eigenvalues --   -0.37500  -0.37263  -0.36904  -0.36700  -0.36428
 Alpha  occ. eigenvalues --   -0.36192  -0.35797  -0.34949  -0.34158  -0.33876
 Alpha  occ. eigenvalues --   -0.33624  -0.33520  -0.32942  -0.31521  -0.31357
 Alpha  occ. eigenvalues --   -0.31009  -0.30674  -0.30619  -0.30424  -0.30199
 Alpha  occ. eigenvalues --   -0.30033  -0.29378  -0.29226  -0.24536  -0.24011
 Alpha  occ. eigenvalues --   -0.21602  -0.21271
 Alpha virt. eigenvalues --   -0.09413  -0.09134  -0.02281  -0.01298   0.00061
 Alpha virt. eigenvalues --    0.00256   0.01186   0.01469   0.02279   0.02401
 Alpha virt. eigenvalues --    0.04700   0.05360   0.05441   0.05540   0.06061

 Mulliken charges:
               1
     1  Mg   0.801215
     2  C    0.004466
     3  C   -0.071445
     4  C   -0.019838
     5  C   -0.048335
     6  N   -0.286907
     7  C   -0.055378
     8  C   -0.042446
     9  C   -0.052293
    10  C    0.058079
    11  C    0.080472
    12  C    0.048762
    13  C   -0.050946
    14  H    0.027353
    15  N   -0.365291
    16  C    0.114165
    17  C   -0.149563
    18  C   -0.022439
    19  C    0.091053
    20  C    0.140469
    21  C   -0.050206
    22  O   -0.214450
    23  C    0.079032
    24  N   -0.287403
    25  C    0.025762
    26  C   -0.009802
    27  C   -0.012915
    28  C    0.028396
    29  C    0.074431
    30  C    0.039581
    31  C   -0.004042
    32  N   -0.281344
    33  C    0.026119
    34  C   -0.155142
    35  C    0.014885
    36  C    0.076253
    37  C    0.107430
    38  C    0.020193
    39  O   -0.190433
    40  C    0.052791
    41  C    0.149148
    42  O   -0.180051
    43  O   -0.336519
    44  C    0.181919
    45  H   -0.017761
    46  H   -0.053357
    47  H   -0.027462
    48  H    0.012533
    49  H    0.010088
    50  H    0.010182
    51  H    0.025036
    52  H    0.017487
    53  H    0.017978
    54  H    0.012710
    55  H    0.042628
    56  H    0.031760
    57  H    0.047225
    58  H    0.016005
    59  H   -0.004819
    60  H    0.029956
    61  H    0.043448
    62  H    0.024798
    63  H    0.021235
    64  H    0.015144
    65  H    0.014997
    66  H    0.018890
    67  H    0.014583
    68  H    0.016871
    69  H    0.015886
    70  H    0.020492
    71  H    0.008596
    72  H    0.012748
    73  H    0.041053
    74  H    0.029799
    75  H    0.041758
    76  H    0.031440
    77  H    0.027472
    78  H    0.036132
    79  H    0.039683
    80  Mg   0.835431
    81  C    0.031280
    82  C   -0.057054
    83  C   -0.053647
    84  C   -0.059078
    85  N   -0.269267
    86  C   -0.044893
    87  C    0.001946
    88  C   -0.047142
    89  C   -0.014881
    90  C    0.074674
    91  C    0.034707
    92  C   -0.076670
    93  H    0.020971
    94  N   -0.405687
    95  C    0.178144
    96  C   -0.125195
    97  C   -0.000975
    98  C    0.109716
    99  C    0.101783
   100  C   -0.004327
   101  O   -0.244226
   102  C    0.051081
   103  N   -0.270221
   104  C    0.053216
   105  C   -0.078163
   106  C    0.027885
   107  C   -0.007752
   108  C    0.069632
   109  C    0.031305
   110  C    0.009341
   111  N   -0.344291
   112  C    0.135743
   113  C   -0.189231
   114  C    0.048332
   115  C    0.088825
   116  C    0.113966
   117  C    0.043016
   118  O   -0.170686
   119  C   -0.068759
   120  C    0.209065
   121  O   -0.207756
   122  O   -0.347172
   123  C    0.171840
   124  H   -0.027367
   125  H   -0.004253
   126  H   -0.028441
   127  H    0.008367
   128  H    0.007057
   129  H    0.009871
   130  H    0.012751
   131  H    0.036740
   132  H    0.005434
   133  H    0.014430
   134  H    0.032567
   135  H    0.047331
   136  H    0.015864
   137  H    0.027728
   138  H    0.023650
   139  H    0.009381
   140  H    0.052445
   141  H    0.022797
   142  H    0.010267
   143  H    0.009905
   144  H    0.021130
   145  H    0.019796
   146  H   -0.000459
   147  H    0.007123
   148  H    0.015318
   149  H    0.024412
   150  H    0.020019
   151  H    0.019700
   152  H    0.034874
   153  H   -0.002293
   154  H    0.035903
   155  H    0.036532
   156  H    0.043412
   157  H    0.036838
   158  H    0.046345
 Sum of Mulliken charges =  -0.00000

 Dipole moment (field-independent basis, Debye):
    X=             -5.2567    Y=             -5.1253    Z=             -5.3600  Tot=              9.0901
 Quadrupole moment (field-independent basis, Debye-Ang):
   XX=           -472.1296   YY=           -508.4058   ZZ=           -499.6642
   XY=             25.4400   XZ=            -23.3528   YZ=             22.4407

 Normal termination of Gaussian 16 at Wed Sep  1 01:40:38 2021.
