 Gaussian 16, Revision A.03,
 Gaussian 16:  ES64L-G16RevA.03 25-Dec-2016

 ----------------------------------------------------------
 #p cam-b3lyp/Def2SVP td=(nstates=5) density=(transition=1)
 ----------------------------------------------------------

 --------------------------------
 TDDFT excited states in gaussian
 --------------------------------
 Symbolic Z-matrix:
 Charge =  0 Multiplicity = 1

                         Standard orientation:
 ---------------------------------------------------------------------
 Center     Atomic      Atomic             Coordinates (Angstroms)
 Number     Number       Type             X           Y           Z
 ---------------------------------------------------------------------
      1         12           0      -26.709770   -0.410415   -0.203479
      2          6           0      -24.980382    2.642658   -0.521064
      3          6           0      -28.081348    0.719046    2.690271
      4          6           0      -28.253703   -3.403162    0.112244
      5          6           0      -24.919205   -1.632204   -2.916347
      6          7           0      -26.481015    1.392796    0.988336
      7          6           0      -25.810687    2.559036    0.609241
      8          6           0      -26.136869    3.656775    1.576788
      9          6           0      -26.695492    2.876312    2.790291
     10          6           0      -27.124079    1.552898    2.105544
     11          6           0      -25.712444    2.565764    3.962879
     12          6           0      -27.123576    4.766200    1.050915
     13          6           0      -26.678435    6.168472    1.319781
     14          1           0      -27.746967    7.138152    1.858246
     15          7           0      -28.036957   -1.150774    1.125880
     16          6           0      -28.578686   -0.493299    2.242931
     17          6           0      -29.526444   -1.320084    2.877070
     18          6           0      -29.619848   -2.584607    2.125684
     19          6           0      -28.647835   -2.417984    1.083104
     20          6           0      -30.212932   -1.029222    4.179552
     21          6           0      -30.451377   -3.919128    2.363385
     22          8           0      -30.381720   -4.840429    1.584892
     23          6           0      -31.434739   -4.034332    3.519368
     24          7           0      -26.513855   -2.292956   -1.195002
     25          6           0      -27.263712   -3.370672   -0.847524
     26          6           0      -26.883668   -4.627869   -1.766972
     27          6           0      -26.030006   -3.966979   -2.935989
     28          6           0      -25.787773   -2.522529   -2.322401
     29          6           0      -26.112958   -5.783080   -1.070115
     30          6           0      -26.763807   -3.919373   -4.323404
     31          6           0      -25.940129   -4.514927   -5.386683
     32          7           0      -25.215964    0.307900   -1.442493
     33          6           0      -24.657750   -0.270278   -2.581566
     34          6           0      -23.750501    0.654944   -3.204077
     35          6           0      -23.826300    1.787162   -2.418768
     36          6           0      -24.711886    1.566232   -1.411546
     37          6           0      -23.004403    0.331083   -4.524685
     38          6           0      -23.307081    3.129737   -2.233213
     39          8           0      -22.407292    3.671458   -2.836696
     40          6           0      -24.040792    3.748137   -0.941815
     41          6           0      -23.021988    4.099245    0.064477
     42          8           0      -22.200709    3.284957    0.562006
     43          8           0      -23.108348    5.437438    0.314675
     44          6           0      -21.921959    6.009313    1.004935
     45          1           0      -28.449002    1.132185    3.631826
     46          1           0      -28.694454   -4.401394    0.149570
     47          1           0      -24.314256   -2.053679   -3.721233
     48          1           0      -25.261392    4.163182    1.985026
     49          1           0      -27.539543    3.368847    3.273390
     50          1           0      -24.964034    3.341534    4.129838
     51          1           0      -25.241180    1.609354    3.734929
     52          1           0      -26.176254    2.340724    4.922924
     53          1           0      -28.080824    4.534072    1.517317
     54          1           0      -27.325682    4.650907   -0.014362
     55          1           0      -26.303207    6.458023    0.338092
     56          1           0      -25.919899    6.166918    2.102437
     57          1           0      -31.268124   -0.764359    4.108826
     58          1           0      -29.769462   -0.139586    4.624928
     59          1           0      -30.182575   -1.787589    4.961434
     60          1           0      -31.961329   -4.974806    3.361849
     61          1           0      -32.052624   -3.140740    3.612481
     62          1           0      -30.902565   -3.934290    4.465803
     63          1           0      -27.791568   -5.130503   -2.100802
     64          1           0      -25.085476   -4.507091   -3.016385
     65          1           0      -25.823077   -5.617177   -0.032027
     66          1           0      -25.184896   -6.045784   -1.578456
     67          1           0      -26.763006   -6.657624   -1.107763
     68          1           0      -26.914929   -2.875078   -4.599266
     69          1           0      -27.711693   -4.456231   -4.354595
     70          1           0      -26.288958   -5.532295   -5.565778
     71          1           0      -24.855328   -4.503744   -5.287027
     72          1           0      -26.039265   -3.920031   -6.294699
     73          1           0      -23.493143   -0.515458   -5.007563
     74          1           0      -21.929402    0.236610   -4.364541
     75          1           0      -23.197078    1.197953   -5.155658
     76          1           0      -24.628613    4.630106   -1.197434
     77          1           0      -21.998521    7.095539    1.050521
     78          1           0      -21.087849    5.821642    0.328464
     79          1           0      -21.835615    5.491451    1.960576
     80         12           0       25.976822   -0.827183    0.117653
     81          6           0       26.307366    2.430440   -0.950313
     82          6           0       25.378564    0.422090    3.411539
     83          6           0       26.003506   -3.894213    1.281823
     84          6           0       26.731984   -1.997336   -3.079848
     85          7           0       25.866331    1.214600    1.030071
     86          6           0       25.999319    2.384645    0.398496
     87          6           0       25.712188    3.541279    1.410635
     88          6           0       25.555044    2.818380    2.826252
     89          6           0       25.657665    1.339023    2.407454
     90          6           0       26.660429    3.041414    3.840412
     91          6           0       24.544904    4.461862    1.023814
     92          6           0       24.952216    5.924800    1.074821
     93          1           0       23.915830    7.027392    1.336191
     94          7           0       25.645077   -1.609242    2.067194
     95          6           0       25.373484   -0.981863    3.248796
     96          6           0       25.153048   -1.883091    4.289999
     97          6           0       25.445481   -3.183659    3.749314
     98          6           0       25.706306   -2.943726    2.287823
     99          6           0       24.754414   -1.476313    5.701202
    100          6           0       25.529921   -4.520939    4.466881
    101          8           0       25.967418   -5.504460    3.838684
    102          6           0       25.225530   -4.657900    5.902825
    103          7           0       26.285142   -2.621275   -0.789097
    104          6           0       26.189335   -3.823499   -0.118831
    105          6           0       26.469902   -5.092470   -1.006521
    106          6           0       26.416314   -4.415797   -2.442461
    107          6           0       26.502946   -2.917739   -2.097733
    108          6           0       27.776629   -5.959835   -0.817913
    109          6           0       25.273036   -4.872030   -3.458392
    110          6           0       23.906116   -4.296041   -3.198640
    111          7           0       26.557688   -0.041750   -1.617187
    112          6           0       26.842246   -0.588260   -2.854115
    113          6           0       27.143493    0.392755   -3.814760
    114          6           0       26.904400    1.575619   -3.105767
    115          6           0       26.541639    1.283059   -1.758733
    116          6           0       27.445273    0.055575   -5.212683
    117          6           0       27.034882    2.970106   -3.286958
    118          8           0       27.467530    3.564179   -4.276564
    119          6           0       26.621649    3.649595   -1.878942
    120          6           0       27.723885    4.468207   -1.405477
    121          8           0       28.760579    4.078245   -0.918865
    122          8           0       27.500494    5.747477   -1.680031
    123          6           0       28.525927    6.707806   -1.404231
    124          1           0       25.248160    0.811706    4.422872
    125          1           0       26.046038   -4.958796    1.519863
    126          1           0       26.966352   -2.406111   -4.065000
    127          1           0       26.671846    4.056551    1.385396
    128          1           0       24.666358    3.262702    3.275883
    129          1           0       27.413978    3.768901    3.537215
    130          1           0       27.215936    2.117713    4.000311
    131          1           0       26.227408    3.232635    4.822725
    132          1           0       23.638658    4.329593    1.615107
    133          1           0       24.238158    4.194943    0.012769
    134          1           0       25.302697    6.169780    0.071546
    135          1           0       25.730290    5.991387    1.835026
    136          1           0       24.454352   -0.429480    5.749275
    137          1           0       25.638810   -1.510943    6.337779
    138          1           0       24.041280   -2.181478    6.126512
    139          1           0       25.691226   -5.554180    6.314144
    140          1           0       24.147929   -4.803660    5.984025
    141          1           0       25.577950   -3.784018    6.450224
    142          1           0       25.616082   -5.769850   -1.042094
    143          1           0       27.294214   -4.732389   -3.004252
    144          1           0       28.348478   -5.522036   -0.000682
    145          1           0       28.448396   -5.768888   -1.655738
    146          1           0       27.668267   -7.035215   -0.673850
    147          1           0       25.158932   -5.946261   -3.315170
    148          1           0       25.537937   -4.752825   -4.508280
    149          1           0       23.415724   -4.202495   -4.166962
    150          1           0       23.783103   -3.367724   -2.642199
    151          1           0       23.383576   -5.019833   -2.573179
    152          1           0       26.985900   -0.831445   -5.648148
    153          1           0       28.492803    0.117778   -5.505014
    154          1           0       27.033857    0.925556   -5.723883
    155          1           0       25.749551    4.278043   -2.058462
    156          1           0       28.456011    7.110580   -0.393145
    157          1           0       28.358190    7.548776   -2.076835
    158          1           0       29.506623    6.247655   -1.525994
 ---------------------------------------------------------------------

 SCF Done:  E(RCAM-B3LYP) =  -4069.84774024     A.U. after   18 cycles

 Excitation energies and oscillator strengths:

 Excited State   1:      Singlet-A      1.7068 eV  726.43 nm  f=0.4134  <S**2>=0.000
     309 -> 315       -0.17263
     312 -> 313        0.68675
     309 <- 315       -0.10537
 This state for optimization and/or second-order correction.
 Total Energy, E(TD-HF/TD-DFT) =  -4069.78501804
 Copying the excited state density for this state as the 1-particle RhoCI density.

 Excited State   2:      Singlet-A      1.7438 eV  711.02 nm  f=0.3974  <S**2>=0.000
     310 -> 316        0.17837
     311 -> 314        0.68463
     310 <- 316        0.10695

 Excited State   3:      Singlet-A      2.2018 eV  563.09 nm  f=0.1580  <S**2>=0.000
     310 -> 314        0.65399
     311 -> 316       -0.24979

 Excited State   4:      Singlet-A      2.2215 eV  558.11 nm  f=0.1608  <S**2>=0.000
     309 -> 313        0.65327
     312 -> 315        0.25407

 Excited State   5:      Singlet-A      3.2098 eV  386.27 nm  f=0.0000  <S**2>=0.000
     312 -> 314        0.70711

 The electronic state is 1-A.
 Alpha  occ. eigenvalues --  -46.87675 -46.87196 -19.25679 -19.24817 -19.19902
 Alpha  occ. eigenvalues --  -19.19533 -19.19054 -19.18614 -19.18581 -19.18232
 Alpha  occ. eigenvalues --  -14.42288 -14.42155 -14.42078 -14.41518 -14.39703
 Alpha  occ. eigenvalues --  -14.39304 -14.38952 -14.38571 -10.39448 -10.38292
 Alpha  occ. eigenvalues --  -10.36356 -10.35055 -10.34859 -10.34500 -10.32198
 Alpha  occ. eigenvalues --  -10.31491 -10.31208 -10.31175 -10.31147 -10.31064
 Alpha  occ. eigenvalues --  -10.30727 -10.30644 -10.30636 -10.30635 -10.30453
 Alpha  occ. eigenvalues --  -10.30145 -10.29935 -10.29373 -10.29113 -10.29043
 Alpha  occ. eigenvalues --  -10.28977 -10.28956 -10.28684 -10.28543 -10.28513
 Alpha  occ. eigenvalues --  -10.28272 -10.28264 -10.28257 -10.28153 -10.28077
 Alpha  occ. eigenvalues --  -10.27951 -10.27917 -10.27879 -10.27782 -10.27774
 Alpha  occ. eigenvalues --  -10.27688 -10.27658 -10.27652 -10.27627 -10.27577
 Alpha  occ. eigenvalues --  -10.27488 -10.27425 -10.27284 -10.27234 -10.27179
 Alpha  occ. eigenvalues --  -10.26965 -10.26787 -10.26741 -10.26592 -10.26517
 Alpha  occ. eigenvalues --  -10.26368 -10.26297 -10.26265 -10.26175 -10.26156
 Alpha  occ. eigenvalues --  -10.26138 -10.26103 -10.25808 -10.25736 -10.25727
 Alpha  occ. eigenvalues --  -10.25550 -10.25352 -10.24968 -10.24670 -10.24628
 Alpha  occ. eigenvalues --  -10.24371  -3.16459  -3.15924  -1.91357  -1.90931
 Alpha  occ. eigenvalues --   -1.90829  -1.90764  -1.90368  -1.90249  -1.17923
 Alpha  occ. eigenvalues --   -1.15776  -1.11723  -1.10340  -1.08843  -1.08493
 Alpha  occ. eigenvalues --   -1.07787  -1.06353  -1.04958  -1.04583  -1.03691
 Alpha  occ. eigenvalues --   -1.03358  -1.03321  -1.02569  -1.02536  -1.01442
 Alpha  occ. eigenvalues --   -0.92597  -0.92078  -0.89354  -0.89224  -0.88762
 Alpha  occ. eigenvalues --   -0.88678  -0.88334  -0.88046  -0.87640  -0.87506
 Alpha  occ. eigenvalues --   -0.87045  -0.86775  -0.86431  -0.85843  -0.84583
 Alpha  occ. eigenvalues --   -0.84329  -0.83854  -0.83846  -0.82940  -0.82924
 Alpha  occ. eigenvalues --   -0.82389  -0.82126  -0.81209  -0.81171  -0.80681
 Alpha  occ. eigenvalues --   -0.80584  -0.78330  -0.78251  -0.77340  -0.77322
 Alpha  occ. eigenvalues --   -0.76884  -0.76793  -0.75970  -0.75751  -0.75273
 Alpha  occ. eigenvalues --   -0.74900  -0.73440  -0.72899  -0.71442  -0.70946
 Alpha  occ. eigenvalues --   -0.69641  -0.68828  -0.68626  -0.68132  -0.67785
 Alpha  occ. eigenvalues --   -0.67607  -0.67135  -0.66560  -0.65532  -0.65383
 Alpha  occ. eigenvalues --   -0.65196  -0.64909  -0.64595  -0.64587  -0.64374
 Alpha  occ. eigenvalues --   -0.64059  -0.62333  -0.61963  -0.60417  -0.60337
 Alpha  occ. eigenvalues --   -0.60134  -0.59992  -0.59266  -0.58984  -0.58502
 Alpha  occ. eigenvalues --   -0.58340  -0.58226  -0.57707  -0.57672  -0.57638
 Alpha  occ. eigenvalues --   -0.56516  -0.56194  -0.56176  -0.55699  -0.55524
 Alpha  occ. eigenvalues --   -0.55082  -0.55011  -0.54662  -0.54350  -0.53858
 Alpha  occ. eigenvalues --   -0.53573  -0.53524  -0.53451  -0.53156  -0.52764
 Alpha  occ. eigenvalues --   -0.52642  -0.52600  -0.52495  -0.52342  -0.52121
 Alpha  occ. eigenvalues --   -0.51902  -0.51839  -0.51712  -0.51572  -0.51318
 Alpha  occ. eigenvalues --   -0.51046  -0.50912  -0.50476  -0.50290  -0.50286
 Alpha  occ. eigenvalues --   -0.50125  -0.49951  -0.49819  -0.49656  -0.49470
 Alpha  occ. eigenvalues --   -0.49461  -0.49427  -0.49248  -0.49133  -0.49124
 Alpha  occ. eigenvalues --   -0.48953  -0.48734  -0.48385  -0.48135  -0.47967
 Alpha  occ. eigenvalues --   -0.47764  -0.47692  -0.47320  -0.47274  -0.46868
 Alpha  occ. eigenvalues --   -0.46803  -0.46662  -0.46491  -0.46474  -0.46367
 Alpha  occ. eigenvalues --   -0.46163  -0.46014  -0.45863  -0.45790  -0.45529
 Alpha  occ. eigenvalues --   -0.45422  -0.45414  -0.45140  -0.45100  -0.44917
 Alpha  occ. eigenvalues --   -0.44762  -0.44692  -0.44578  -0.44471  -0.44365
 Alpha  occ. eigenvalues --   -0.44351  -0.43887  -0.43623  -0.43483  -0.43415
 Alpha  occ. eigenvalues --   -0.43371  -0.43230  -0.42935  -0.42891  -0.42668
 Alpha  occ. eigenvalues --   -0.42630  -0.42517  -0.42295  -0.41985  -0.41956
 Alpha  occ. eigenvalues --   -0.41896  -0.41578  -0.41500  -0.41311  -0.41241
 Alpha  occ. eigenvalues --   -0.41102  -0.40978  -0.40965  -0.40497  -0.40474
 Alpha  occ. eigenvalues --   -0.40089  -0.39188  -0.39170  -0.38874  -0.38857
 Alpha  occ. eigenvalues --   -0.38371  -0.38188  -0.37863  -0.37845  -0.37728
 Alpha  occ. eigenvalues --   -0.37180  -0.36775  -0.36526  -0.36348  -0.36346
 Alpha  occ. eigenvalues --   -0.36173  -0.36005  -0.34261  -0.34224  -0.34158
 Alpha  occ. eigenvalues --   -0.33873  -0.33171  -0.33122  -0.31777  -0.31437
 Alpha  occ. eigenvalues --   -0.31288  -0.30874  -0.30774  -0.30524  -0.30051
 Alpha  occ. eigenvalues --   -0.30000  -0.29757  -0.29578  -0.24115  -0.23985
 Alpha  occ. eigenvalues --   -0.21544  -0.21471
 Alpha virt. eigenvalues --   -0.09090  -0.09027  -0.01418  -0.01285   0.00495
 Alpha virt. eigenvalues --    0.00723   0.02488   0.02778   0.03175   0.03432
 Alpha virt. eigenvalues --    0.04491   0.05390   0.05648   0.05678   0.06117

 Mulliken charges:
               1
     1  Mg  11.999998
     2  C    5.999963
     3  C    5.999929
     4  C    6.000105
     5  C    6.000030
     6  N    6.999977
     7  C    6.000079
     8  C    5.999956
     9  C    6.000029
    10  C    5.999941
    11  C    6.000023
    12  C    5.999984
    13  C    5.999999
    14  H    1.000036
    15  N    6.999981
    16  C    5.999931
    17  C    5.999911
    18  C    5.999931
    19  C    5.999880
    20  C    6.000044
    21  C    5.999939
    22  O    7.999905
    23  C    6.000011
    24  N    7.000011
    25  C    5.999920
    26  C    6.000022
    27  C    5.999989
    28  C    6.000057
    29  C    6.000004
    30  C    5.999975
    31  C    5.999987
    32  N    7.000027
    33  C    6.000099
    34  C    6.000118
    35  C    5.999962
    36  C    6.000109
    37  C    5.999988
    38  C    6.000095
    39  O    8.000110
    40  C    5.999989
    41  C    6.000015
    42  O    7.999992
    43  O    8.000011
    44  C    5.999995
    45  H    0.999945
    46  H    0.999973
    47  H    1.000047
    48  H    1.000005
    49  H    0.999994
    50  H    0.999931
    51  H    0.999975
    52  H    0.999989
    53  H    1.000054
    54  H    1.000002
    55  H    0.999996
    56  H    0.999991
    57  H    0.999913
    58  H    0.999927
    59  H    0.999903
    60  H    0.999946
    61  H    0.999988
    62  H    0.999959
    63  H    1.000016
    64  H    0.999999
    65  H    0.999991
    66  H    0.999957
    67  H    1.000001
    68  H    1.000001
    69  H    1.000054
    70  H    1.000027
    71  H    0.999991
    72  H    1.000026
    73  H    1.000075
    74  H    1.000086
    75  H    1.000099
    76  H    1.000047
    77  H    1.000029
    78  H    1.000008
    79  H    0.999997
    80  Mg  11.997348
    81  C    6.019653
    82  C    5.977900
    83  C    5.972970
    84  C    6.012526
    85  N    7.005964
    86  C    5.970721
    87  C    6.007778
    88  C    5.983022
    89  C    6.033702
    90  C    5.996693
    91  C    6.001123
    92  C    6.001481
    93  H    0.994807
    94  N    6.991129
    95  C    6.044967
    96  C    6.016956
    97  C    6.018511
    98  C    6.040758
    99  C    5.996171
   100  C    6.013750
   101  O    8.031847
   102  C    5.993688
   103  N    6.999321
   104  C    6.042313
   105  C    5.983087
   106  C    6.011026
   107  C    5.970412
   108  C    6.000623
   109  C    6.005552
   110  C    6.003208
   111  N    7.004291
   112  C    5.958725
   113  C    5.972578
   114  C    5.996647
   115  C    5.962303
   116  C    6.005821
   117  C    5.983567
   118  O    7.966733
   119  C    5.995892
   120  C    5.995706
   121  O    7.992738
   122  O    7.998857
   123  C    6.003256
   124  H    1.009428
   125  H    1.005626
   126  H    0.988671
   127  H    1.002320
   128  H    1.008519
   129  H    1.015240
   130  H    0.995988
   131  H    1.002076
   132  H    0.990651
   133  H    1.007335
   134  H    1.006435
   135  H    0.994756
   136  H    1.018606
   137  H    1.019905
   138  H    1.016441
   139  H    1.015798
   140  H    1.011403
   141  H    1.005570
   142  H    1.004313
   143  H    0.997804
   144  H    0.996261
   145  H    1.012374
   146  H    1.001427
   147  H    0.988703
   148  H    1.002362
   149  H    1.000488
   150  H    1.000386
   151  H    0.988622
   152  H    0.978633
   153  H    0.975866
   154  H    0.984823
   155  H    0.990390
   156  H    0.992027
   157  H    0.996374
   158  H    0.998257
 Sum of Mulliken charges = 624.00000

 Dipole moment (field-independent basis, Debye):
    X=             -2.0409    Y=             -4.8628    Z=              9.9961  Tot=             11.3020
 Quadrupole moment (field-independent basis, Debye-Ang):
   XX=           -110.5500   YY=              5.6153   ZZ=              5.6837
   XY=           -128.2218   XZ=            263.2833   YZ=             -9.7351

 Normal termination of Gaussian 16 at Tue Sep 21 22:26:47 2021.
