 Gaussian 16, Revision A.03,
 Gaussian 16:  ES64L-G16RevA.03 25-Dec-2016

 -----------------------------------
 #p cam-b3lyp/Def2SVP td=(nstates=5)
 -----------------------------------

 --------------------------------
 TDDFT excited states in gaussian
 --------------------------------
 Symbolic Z-matrix:
 Charge =  0 Multiplicity = 1

                         Standard orientation:
 ---------------------------------------------------------------------
 Center     Atomic      Atomic             Coordinates (Angstroms)
 Number     Number       Type             X           Y           Z
 ---------------------------------------------------------------------
      1         12           0       14.378098   -0.138602   -0.012667
      2          6           0       11.148873   -1.164269   -0.715267
      3          6           0       14.109421    2.293445   -2.457400
      4          6           0       17.183511    1.274206    1.223647
      5          6           0       14.313130   -2.450140    2.650079
      6          7           0       12.686080    0.673588   -1.235657
      7          6           0       11.581266   -0.043963   -1.457751
      8          6           0       10.653212    0.702017   -2.465679
      9          6           0       11.712055    1.639590   -3.216848
     10          6           0       12.979350    1.491861   -2.290679
     11          6           0       11.883500    1.278008   -4.711964
     12          6           0        9.639581    1.544621   -1.725420
     13          6           0        8.234953    1.542613   -2.308196
     14          1           0        7.318181    2.823320   -2.329356
     15          7           0       15.575711    1.489493   -0.700987
     16          6           0       15.290535    2.404447   -1.643482
     17          6           0       16.404102    3.292390   -1.731154
     18          6           0       17.405109    2.913955   -0.785821
     19          6           0       16.775046    1.819383   -0.037235
     20          6           0       16.515179    4.296057   -2.818643
     21          6           0       18.659258    3.677137   -0.546902
     22          8           0       18.936527    4.636100   -1.247926
     23          6           0       19.661629    3.252619    0.519689
     24          7           0       15.660983   -0.624799    1.726389
     25          6           0       16.711016    0.197364    2.005203
     26          6           0       17.268614   -0.099923    3.359201
     27          6           0       16.318993   -1.307852    3.811405
     28          6           0       15.382337   -1.569452    2.658138
     29          6           0       18.780343   -0.393345    3.385250
     30          6           0       15.551081   -1.111846    5.193010
     31          6           0       15.626010   -2.195168    6.294563
     32          7           0       13.072431   -1.523867    0.797896
     33          6           0       13.209259   -2.421074    1.810095
     34          6           0       12.209139   -3.391003    1.729284
     35          6           0       11.343087   -2.983205    0.724259
     36          6           0       11.868126   -1.810801    0.241373
     37          6           0       12.065488   -4.594501    2.706394
     38          6           0       10.186415   -3.277931    0.016652
     39          8           0        9.374237   -4.170201    0.234306
     40          6           0        9.900981   -2.068801   -0.998548
     41          6           0        9.970627   -2.485083   -2.352715
     42          8           0       10.940649   -2.737436   -3.071375
     43          8           0        8.654549   -2.558010   -2.798675
     44          6           0        8.351893   -2.961377   -4.161226
     45          1           0       14.093083    2.955860   -3.325117
     46          1           0       18.086899    1.616955    1.733343
     47          1           0       14.439980   -3.184313    3.448559
     48          1           0       10.155654   -0.048879   -3.078804
     49          1           0       11.505697    2.705356   -3.124068
     50          1           0       11.332029    0.375846   -4.975967
     51          1           0       12.942547    1.143548   -4.934357
     52          1           0       11.553573    2.137119   -5.295615
     53          1           0        9.890882    2.588675   -1.537506
     54          1           0        9.673743    1.169482   -0.702594
     55          1           0        7.708598    0.712437   -1.837484
     56          1           0        8.436875    1.242501   -3.336414
     57          1           0       17.158174    3.793713   -3.541112
     58          1           0       16.946523    5.230413   -2.458938
     59          1           0       15.556226    4.544704   -3.273397
     60          1           0       19.259425    3.621467    1.463359
     61          1           0       20.549111    3.860372    0.344992
     62          1           0       19.814641    2.173677    0.499528
     63          1           0       17.029909    0.833231    3.868415
     64          1           0       16.893941   -2.205110    4.040527
     65          1           0       19.246790    0.490643    3.821354
     66          1           0       19.186491   -0.620686    2.399081
     67          1           0       18.974714   -1.222389    4.065262
     68          1           0       14.489565   -0.990925    4.977473
     69          1           0       15.887924   -0.233369    5.743828
     70          1           0       14.766458   -2.800781    6.007620
     71          1           0       15.433702   -1.755312    7.272300
     72          1           0       16.424087   -2.937327    6.280508
     73          1           0       11.697040   -4.220381    3.660726
     74          1           0       12.988911   -5.108129    2.974632
     75          1           0       11.351374   -5.323901    2.323136
     76          1           0        8.936403   -1.656778   -0.701620
     77          1           0        7.388294   -3.469248   -4.134819
     78          1           0        9.138107   -3.524460   -4.664828
     79          1           0        8.152329   -2.055053   -4.733110
     80         12           0      -13.608992    0.962614    0.203697
     81          6           0      -13.742742   -2.527872   -0.133479
     82          6           0      -10.274950    0.900781    0.246776
     83          6           0      -13.689505    4.174300    0.593839
     84          6           0      -17.091080    0.745374    1.161061
     85          7           0      -12.215867   -0.680718    0.172861
     86          6           0      -12.428138   -1.967439   -0.130617
     87          6           0      -11.151077   -2.767339   -0.120251
     88          6           0      -10.097016   -1.716283    0.413603
     89          6           0      -10.879279   -0.426184    0.260939
     90          6           0       -9.516506   -1.908135    1.852267
     91          6           0      -10.758073   -3.224894   -1.616787
     92          6           0      -10.376508   -4.737667   -1.724836
     93          1           0      -10.294352   -5.223629   -3.271924
     94          7           0      -12.227324    2.328757    0.141787
     95          6           0      -10.856623    2.135995    0.113813
     96          6           0      -10.224890    3.397860   -0.157607
     97          6           0      -11.213420    4.463899   -0.102884
     98          6           0      -12.493854    3.686111    0.108979
     99          6           0       -8.674526    3.452372   -0.274822
    100          6           0      -11.192982    5.981903   -0.241307
    101          8           0      -12.182821    6.735797   -0.252441
    102          6           0       -9.825863    6.514011   -0.488623
    103          7           0      -15.162499    2.174979    0.944621
    104          6           0      -14.860223    3.513457    0.993074
    105          6           0      -16.015296    4.313635    1.596146
    106          6           0      -17.182751    3.299025    1.477749
    107          6           0      -16.458085    1.972410    1.241826
    108          6           0      -15.614237    4.845414    3.029153
    109          6           0      -18.259592    3.602525    0.351308
    110          6           0      -19.661320    3.005692    0.555151
    111          7           0      -15.158012   -0.545931    0.438372
    112          6           0      -16.462883   -0.451517    0.817053
    113          6           0      -17.136997   -1.724429    0.692291
    114          6           0      -16.085496   -2.545641    0.245771
    115          6           0      -14.894188   -1.810284    0.166743
    116          6           0      -18.599222   -2.153583    0.952895
    117          6           0      -15.791157   -3.889667   -0.166453
    118          8           0      -16.476044   -4.844690   -0.424229
    119          6           0      -14.179558   -3.951377   -0.269355
    120          6           0      -14.015205   -4.700185   -1.518094
    121          8           0      -14.050555   -4.281569   -2.702813
    122          8           0      -13.827289   -5.974927   -1.135244
    123          6           0      -13.667748   -6.993933   -2.173621
    124          1           0       -9.185520    0.898525    0.170071
    125          1           0      -13.737524    5.263841    0.652539
    126          1           0      -18.163533    0.754680    1.366514
    127          1           0      -11.180566   -3.681576    0.473191
    128          1           0       -9.215723   -1.563110   -0.209551
    129          1           0       -9.916674   -1.111357    2.479228
    130          1           0       -8.439055   -1.789168    1.739388
    131          1           0       -9.730333   -2.835214    2.382997
    132          1           0       -9.981234   -2.636188   -2.106116
    133          1           0      -11.606760   -2.957226   -2.246317
    134          1           0      -11.113869   -5.355554   -1.212792
    135          1           0       -9.388027   -4.995339   -1.345319
    136          1           0       -8.412895    3.295743   -1.320394
    137          1           0       -8.172735    2.578629    0.142779
    138          1           0       -8.164364    4.253395    0.259643
    139          1           0       -9.357208    6.154734   -1.404119
    140          1           0       -9.302200    6.219476    0.421661
    141          1           0       -9.776718    7.603055   -0.510235
    142          1           0      -16.143111    5.171356    0.935651
    143          1           0      -17.749242    3.294971    2.408924
    144          1           0      -16.144674    4.286938    3.800309
    145          1           0      -15.811677    5.888626    3.274421
    146          1           0      -14.581598    4.685707    3.340099
    147          1           0      -17.864808    3.057894   -0.506805
    148          1           0      -18.423327    4.644807    0.076711
    149          1           0      -19.899194    2.250197   -0.194802
    150          1           0      -20.525931    3.669695    0.563393
    151          1           0      -19.597885    2.437475    1.482102
    152          1           0      -18.991338   -1.438101    1.675691
    153          1           0      -18.646307   -3.170587    1.344479
    154          1           0      -19.122757   -2.044181    0.003194
    155          1           0      -13.784694   -4.559489    0.544707
    156          1           0      -12.636335   -7.345593   -2.155828
    157          1           0      -14.032921   -6.656264   -3.142949
    158          1           0      -14.249390   -7.868452   -1.882321
 ---------------------------------------------------------------------

 SCF Done:  E(RCAM-B3LYP) =  -4069.78106569     A.U. after   17 cycles

 Excitation energies and oscillator strengths:

 Excited State   1:      Singlet-A      1.6990 eV  729.76 nm  f=0.4164  <S**2>=0.000
     309 -> 315        0.18509
     311 -> 313        0.68477
     309 <- 315        0.10999
 This state for optimization and/or second-order correction.
 Total Energy, E(TD-HF/TD-DFT) =  -4069.71862973
 Copying the excited state density for this state as the 1-particle RhoCI density.

 Excited State   2:      Singlet-A      1.7271 eV  717.88 nm  f=0.3688  <S**2>=0.000
     310 -> 316       -0.19739
     312 -> 314        0.68087
     310 <- 316       -0.11060

 Excited State   3:      Singlet-A      2.2279 eV  556.51 nm  f=0.1014  <S**2>=0.000
     309 -> 313        0.63670
     311 -> 315       -0.29383

 Excited State   4:      Singlet-A      2.2496 eV  551.14 nm  f=0.0623  <S**2>=0.000
     310 -> 314        0.61702
     312 -> 316        0.33561

 Excited State   5:      Singlet-A      2.8791 eV  430.64 nm  f=0.0000  <S**2>=0.000
     312 -> 313        0.70707

 The electronic state is 1-A.
 Alpha  occ. eigenvalues --  -46.89780 -46.87555 -19.24845 -19.24746 -19.20293
 Alpha  occ. eigenvalues --  -19.19657 -19.19343 -19.19019 -19.18436 -19.18407
 Alpha  occ. eigenvalues --  -14.42579 -14.42443 -14.42110 -14.41713 -14.39896
 Alpha  occ. eigenvalues --  -14.39441 -14.39292 -14.38388 -10.39724 -10.38548
 Alpha  occ. eigenvalues --  -10.35982 -10.35329 -10.34703 -10.34642 -10.31693
 Alpha  occ. eigenvalues --  -10.31692 -10.31639 -10.31490 -10.31400 -10.31232
 Alpha  occ. eigenvalues --  -10.31173 -10.30992 -10.30982 -10.30772 -10.30589
 Alpha  occ. eigenvalues --  -10.30258 -10.30097 -10.30024 -10.29869 -10.29527
 Alpha  occ. eigenvalues --  -10.29439 -10.29213 -10.28958 -10.28821 -10.28698
 Alpha  occ. eigenvalues --  -10.28593 -10.28526 -10.28422 -10.28419 -10.28399
 Alpha  occ. eigenvalues --  -10.28344 -10.28278 -10.28274 -10.27902 -10.27890
 Alpha  occ. eigenvalues --  -10.27851 -10.27847 -10.27819 -10.27724 -10.27722
 Alpha  occ. eigenvalues --  -10.27699 -10.27662 -10.27590 -10.27463 -10.27281
 Alpha  occ. eigenvalues --  -10.27129 -10.26936 -10.26880 -10.26780 -10.26694
 Alpha  occ. eigenvalues --  -10.26634 -10.26622 -10.26474 -10.26420 -10.26242
 Alpha  occ. eigenvalues --  -10.26180 -10.26108 -10.26051 -10.25981 -10.25946
 Alpha  occ. eigenvalues --  -10.25861 -10.25805 -10.25352 -10.24991 -10.24942
 Alpha  occ. eigenvalues --  -10.24422  -3.18102  -3.16398  -1.93015  -1.92552
 Alpha  occ. eigenvalues --   -1.92395  -1.91283  -1.90865  -1.90713  -1.15914
 Alpha  occ. eigenvalues --   -1.15852  -1.10755  -1.10131  -1.10070  -1.09378
 Alpha  occ. eigenvalues --   -1.07627  -1.05603  -1.05528  -1.05173  -1.04286
 Alpha  occ. eigenvalues --   -1.04178  -1.03952  -1.03576  -1.02703  -1.02395
 Alpha  occ. eigenvalues --   -0.93995  -0.92696  -0.89569  -0.89261  -0.89094
 Alpha  occ. eigenvalues --   -0.88491  -0.88238  -0.88034  -0.87989  -0.87430
 Alpha  occ. eigenvalues --   -0.86971  -0.86956  -0.86284  -0.86247  -0.85525
 Alpha  occ. eigenvalues --   -0.84735  -0.84514  -0.83810  -0.83147  -0.82465
 Alpha  occ. eigenvalues --   -0.82351  -0.82251  -0.81576  -0.81249  -0.80892
 Alpha  occ. eigenvalues --   -0.80284  -0.78274  -0.78203  -0.77709  -0.77305
 Alpha  occ. eigenvalues --   -0.76897  -0.76666  -0.76611  -0.75899  -0.75386
 Alpha  occ. eigenvalues --   -0.75273  -0.73609  -0.72771  -0.72486  -0.72114
 Alpha  occ. eigenvalues --   -0.69920  -0.69350  -0.69231  -0.68784  -0.68226
 Alpha  occ. eigenvalues --   -0.67893  -0.67527  -0.67200  -0.66277  -0.66031
 Alpha  occ. eigenvalues --   -0.66015  -0.65582  -0.65532  -0.64959  -0.64845
 Alpha  occ. eigenvalues --   -0.64428  -0.62811  -0.61749  -0.60600  -0.60221
 Alpha  occ. eigenvalues --   -0.59988  -0.59821  -0.59229  -0.59199  -0.59132
 Alpha  occ. eigenvalues --   -0.58621  -0.58282  -0.58091  -0.57960  -0.57136
 Alpha  occ. eigenvalues --   -0.56451  -0.56307  -0.56254  -0.55909  -0.55556
 Alpha  occ. eigenvalues --   -0.55424  -0.54971  -0.54477  -0.54347  -0.53905
 Alpha  occ. eigenvalues --   -0.53643  -0.53501  -0.53417  -0.53197  -0.52758
 Alpha  occ. eigenvalues --   -0.52747  -0.52540  -0.52428  -0.52204  -0.52185
 Alpha  occ. eigenvalues --   -0.52175  -0.51930  -0.51606  -0.51588  -0.51426
 Alpha  occ. eigenvalues --   -0.51412  -0.51010  -0.50714  -0.50469  -0.50372
 Alpha  occ. eigenvalues --   -0.50235  -0.50154  -0.50116  -0.50010  -0.49689
 Alpha  occ. eigenvalues --   -0.49538  -0.49404  -0.49122  -0.49081  -0.49034
 Alpha  occ. eigenvalues --   -0.48907  -0.48484  -0.48464  -0.48391  -0.48096
 Alpha  occ. eigenvalues --   -0.48000  -0.47623  -0.47406  -0.47245  -0.46977
 Alpha  occ. eigenvalues --   -0.46858  -0.46849  -0.46802  -0.46705  -0.46489
 Alpha  occ. eigenvalues --   -0.46325  -0.46222  -0.46065  -0.45914  -0.45892
 Alpha  occ. eigenvalues --   -0.45701  -0.45580  -0.45507  -0.45393  -0.45181
 Alpha  occ. eigenvalues --   -0.45134  -0.44866  -0.44806  -0.44619  -0.44019
 Alpha  occ. eigenvalues --   -0.43998  -0.43715  -0.43712  -0.43544  -0.43488
 Alpha  occ. eigenvalues --   -0.43463  -0.43269  -0.43080  -0.42964  -0.42860
 Alpha  occ. eigenvalues --   -0.42841  -0.42636  -0.42289  -0.42190  -0.42155
 Alpha  occ. eigenvalues --   -0.42058  -0.42022  -0.41930  -0.41894  -0.41533
 Alpha  occ. eigenvalues --   -0.41329  -0.41179  -0.41166  -0.40800  -0.40569
 Alpha  occ. eigenvalues --   -0.40336  -0.40302  -0.39834  -0.39580  -0.38767
 Alpha  occ. eigenvalues --   -0.38402  -0.38314  -0.38062  -0.37828  -0.37478
 Alpha  occ. eigenvalues --   -0.37374  -0.37365  -0.36981  -0.36383  -0.35772
 Alpha  occ. eigenvalues --   -0.35480  -0.35196  -0.35023  -0.34459  -0.33966
 Alpha  occ. eigenvalues --   -0.33918  -0.33713  -0.32953  -0.31925  -0.31714
 Alpha  occ. eigenvalues --   -0.31304  -0.31302  -0.30801  -0.30593  -0.30527
 Alpha  occ. eigenvalues --   -0.30317  -0.29592  -0.29537  -0.24646  -0.24169
 Alpha  occ. eigenvalues --   -0.21640  -0.21100
 Alpha virt. eigenvalues --   -0.09278  -0.08424  -0.02366  -0.02283  -0.00278
 Alpha virt. eigenvalues --   -0.00275   0.02244   0.02420   0.02427   0.03162
 Alpha virt. eigenvalues --    0.03949   0.04517   0.04815   0.05157   0.05402

 Mulliken charges:
               1
     1  Mg   0.803453
     2  C   -0.053566
     3  C   -0.077668
     4  C   -0.031464
     5  C   -0.113813
     6  N   -0.266449
     7  C   -0.028551
     8  C   -0.078024
     9  C   -0.056812
    10  C    0.065597
    11  C    0.083047
    12  C    0.065222
    13  C   -0.060321
    14  H    0.028425
    15  N   -0.375707
    16  C    0.137280
    17  C   -0.161451
    18  C   -0.018885
    19  C    0.178114
    20  C    0.123830
    21  C   -0.042863
    22  O   -0.204913
    23  C    0.068005
    24  N   -0.281933
    25  C   -0.040053
    26  C   -0.032435
    27  C   -0.000398
    28  C    0.029904
    29  C    0.073818
    30  C   -0.008480
    31  C   -0.012532
    32  N   -0.343792
    33  C    0.184194
    34  C   -0.180461
    35  C    0.103111
    36  C    0.131942
    37  C    0.117881
    38  C   -0.022225
    39  O   -0.171408
    40  C   -0.002573
    41  C    0.227995
    42  O   -0.227666
    43  O   -0.357716
    44  C    0.177884
    45  H   -0.025089
    46  H   -0.050541
    47  H   -0.029478
    48  H    0.016073
    49  H    0.020219
    50  H    0.026938
    51  H    0.013033
    52  H    0.013842
    53  H    0.013073
    54  H    0.002726
    55  H    0.032498
    56  H    0.023691
    57  H    0.036774
    58  H    0.042206
    59  H    0.002272
    60  H    0.036920
    61  H    0.025134
    62  H    0.043482
    63  H    0.026548
    64  H   -0.001183
    65  H    0.020759
    66  H    0.031822
    67  H    0.017730
    68  H    0.019462
    69  H    0.006297
    70  H    0.003007
    71  H    0.024548
    72  H    0.019174
    73  H    0.024419
    74  H    0.016754
    75  H    0.037752
    76  H    0.052081
    77  H    0.038434
    78  H    0.051998
    79  H    0.019084
    80  Mg   0.852758
    81  C    0.059597
    82  C   -0.070781
    83  C   -0.057506
    84  C   -0.106760
    85  N   -0.271002
    86  C    0.000305
    87  C   -0.067212
    88  C   -0.030291
    89  C    0.007035
    90  C    0.073736
    91  C    0.057187
    92  C   -0.089416
    93  H    0.003769
    94  N   -0.473298
    95  C    0.175974
    96  C   -0.108105
    97  C   -0.095551
    98  C    0.154264
    99  C    0.089068
   100  C    0.047414
   101  O   -0.209051
   102  C    0.040339
   103  N   -0.291849
   104  C    0.056790
   105  C   -0.031476
   106  C   -0.009915
   107  C    0.037023
   108  C    0.062916
   109  C    0.033929
   110  C   -0.009093
   111  N   -0.270814
   112  C    0.124396
   113  C   -0.199741
   114  C    0.032766
   115  C    0.059079
   116  C    0.139564
   117  C    0.025838
   118  O   -0.148472
   119  C   -0.069256
   120  C    0.203360
   121  O   -0.256637
   122  O   -0.319704
   123  C    0.175289
   124  H   -0.039390
   125  H    0.000532
   126  H   -0.042906
   127  H    0.012001
   128  H    0.003499
   129  H    0.020732
   130  H    0.016015
   131  H    0.020625
   132  H    0.007601
   133  H    0.035271
   134  H    0.036293
   135  H    0.033770
   136  H    0.029938
   137  H    0.006318
   138  H    0.032712
   139  H    0.052555
   140  H    0.030753
   141  H    0.020673
   142  H    0.015864
   143  H    0.001381
   144  H   -0.000336
   145  H    0.021513
   146  H    0.019826
   147  H    0.012306
   148  H    0.017892
   149  H    0.013129
   150  H    0.020613
   151  H    0.010258
   152  H    0.013408
   153  H    0.043211
   154  H    0.041323
   155  H    0.043603
   156  H    0.032096
   157  H    0.059332
   158  H    0.031122
 Sum of Mulliken charges =  -0.00000

 Dipole moment (field-independent basis, Debye):
    X=              4.8707    Y=              1.1694    Z=              4.9109  Tot=              7.0148
 Quadrupole moment (field-independent basis, Debye-Ang):
   XX=           -564.1854   YY=           -550.1168   ZZ=           -493.4049
   XY=            -54.6741   XZ=             14.6384   YZ=             -3.4782

 Normal termination of Gaussian 16 at Wed Sep 15 05:04:06 2021.
