 Gaussian 16, Revision A.03,
 Gaussian 16:  ES64L-G16RevA.03 25-Dec-2016

 ----------------------------------------------------------
 #p cam-b3lyp/Def2SVP td=(nstates=5) density=(transition=1)
 ----------------------------------------------------------

 --------------------------------
 TDDFT excited states in gaussian
 --------------------------------
 Symbolic Z-matrix:
 Charge =  0 Multiplicity = 1

                         Standard orientation:
 ---------------------------------------------------------------------
 Center     Atomic      Atomic             Coordinates (Angstroms)
 Number     Number       Type             X           Y           Z
 ---------------------------------------------------------------------
      1         12           0        8.953123    0.370654   -0.082268
      2          6           0        6.989742   -2.430418    1.040825
      3          6           0       10.704240   -1.839966   -2.005961
      4          6           0       10.966119    2.930312   -0.886918
      5          6           0        7.395850    2.277056    2.261168
      6          7           0        8.794649   -1.969891   -0.475195
      7          6           0        7.880116   -2.812234    0.087407
      8          6           0        8.014682   -4.121099   -0.593844
      9          6           0        9.288838   -3.996152   -1.474347
     10          6           0        9.718922   -2.511570   -1.320987
     11          6           0       10.424920   -4.954141   -0.993691
     12          6           0        6.806289   -4.589563   -1.365260
     13          6           0        6.770010   -6.014550   -1.893499
     14          1           0        5.557932   -6.797825   -1.608409
     15          7           0       10.513140    0.541880   -1.348506
     16          6           0       11.176912   -0.533814   -2.000483
     17          6           0       12.197831    0.073069   -2.875145
     18          6           0       12.306766    1.400842   -2.470110
     19          6           0       11.260482    1.664497   -1.465655
     20          6           0       13.016279   -0.771223   -3.829509
     21          6           0       13.247815    2.512639   -2.982222
     22          8           0       13.421841    3.601414   -2.403425
     23          6           0       13.950741    2.257039   -4.252619
     24          7           0        9.219849    2.347930    0.630859
     25          6           0       10.073627    3.240461    0.173081
     26          6           0        9.992906    4.606493    0.908273
     27          6           0        8.699189    4.422715    1.704654
     28          6           0        8.393600    2.957918    1.490867
     29          6           0       11.242781    4.843840    1.821426
     30          6           0        7.534464    5.311915    1.331667
     31          6           0        6.726978    5.915674    2.494447
     32          7           0        7.445323    0.023920    1.274930
     33          6           0        6.911100    0.931282    2.163505
     34          6           0        5.791629    0.328802    2.948401
     35          6           0        5.872790   -0.973858    2.499216
     36          6           0        6.888818   -1.141719    1.550636
     37          6           0        4.794619    1.012196    3.828141
     38          6           0        5.250284   -2.277274    2.678282
     39          8           0        4.291751   -2.556876    3.389438
     40          6           0        5.939013   -3.294730    1.740047
     41          6           0        6.293020   -4.428613    2.555224
     42          8           0        7.247940   -4.506560    3.365271
     43          8           0        5.539535   -5.509668    2.211646
     44          6           0        5.921530   -6.810882    2.715256
     45          1           0       11.217485   -2.518135   -2.690509
     46          1           0       11.714277    3.714365   -1.019833
     47          1           0        7.132414    2.895244    3.121702
     48          1           0        8.208614   -4.801987    0.233904
     49          1           0        9.095562   -4.230674   -2.521269
     50          1           0       10.955800   -5.638185   -1.656525
     51          1           0        9.943091   -5.576251   -0.239588
     52          1           0       11.203067   -4.483126   -0.392482
     53          1           0        6.679319   -4.017545   -2.284531
     54          1           0        5.875245   -4.278134   -0.892499
     55          1           0        7.592541   -6.598122   -1.482714
     56          1           0        6.674281   -5.914296   -2.974338
     57          1           0       14.086282   -0.565983   -3.804272
     58          1           0       12.700049   -0.697633   -4.869835
     59          1           0       13.007946   -1.840853   -3.618486
     60          1           0       13.216558    1.942903   -4.994640
     61          1           0       14.608403    1.429509   -3.988869
     62          1           0       14.341343    3.218265   -4.584613
     63          1           0        9.898890    5.363110    0.128554
     64          1           0        8.783055    4.526363    2.786093
     65          1           0       10.976904    4.826357    2.877944
     66          1           0       11.676332    5.829248    1.650737
     67          1           0       11.921638    4.020802    1.597607
     68          1           0        6.836720    4.806580    0.664674
     69          1           0        7.954361    5.995501    0.594478
     70          1           0        6.306506    6.852015    2.128902
     71          1           0        7.296196    5.981042    3.422224
     72          1           0        5.973033    5.143385    2.645421
     73          1           0        3.829103    1.192961    3.355328
     74          1           0        5.317496    1.878826    4.231676
     75          1           0        4.692761    0.448458    4.756294
     76          1           0        5.131459   -3.668099    1.110387
     77          1           0        6.870107   -6.830185    3.252507
     78          1           0        5.883782   -7.556371    1.921420
     79          1           0        5.195887   -7.201586    3.429105
     80         12           0       -8.279796    0.985670   -0.370538
     81          6           0      -10.558287   -1.586389   -0.545463
     82          6           0       -5.726740   -1.410148   -0.393873
     83          6           0       -5.980102    3.442387   -0.105327
     84          6           0      -10.801682    3.222033    0.024464
     85          7           0       -8.199900   -1.287289   -0.193821
     86          6           0       -9.289421   -2.100680   -0.529379
     87          6           0       -8.854795   -3.540494   -0.867385
     88          6           0       -7.296474   -3.422994   -0.687162
     89          6           0       -6.999428   -1.957155   -0.454642
     90          6           0       -6.755622   -4.306804    0.429665
     91          6           0       -9.246051   -4.162504   -2.254499
     92          6           0      -10.299345   -5.398652   -2.240677
     93          1           0       -9.687325   -6.656066   -2.865848
     94          7           0       -6.200337    1.025202   -0.162633
     95          6           0       -5.329063   -0.063313   -0.329842
     96          6           0       -3.937263    0.381397   -0.456753
     97          6           0       -3.937544    1.870517   -0.292533
     98          6           0       -5.414721    2.213504   -0.240089
     99          6           0       -2.780003   -0.570823   -0.663127
    100          6           0       -2.849133    2.835946   -0.243523
    101          8           0       -3.093524    4.026464    0.001865
    102          6           0       -1.390247    2.449478   -0.412658
    103          7           0       -8.410924    2.953700   -0.007566
    104          6           0       -7.324268    3.845825   -0.066580
    105          6           0       -7.714547    5.378599   -0.030073
    106          6           0       -9.320942    5.228857    0.044756
    107          6           0       -9.520385    3.696989   -0.000519
    108          6           0       -7.088722    6.198340    1.203464
    109          6           0      -10.029122    5.981306   -1.133874
    110          6           0      -11.319978    6.681323   -0.844686
    111          7           0      -10.310009    0.818021   -0.174385
    112          6           0      -11.242006    1.854522   -0.069612
    113          6           0      -12.570153    1.358849   -0.193493
    114          6           0      -12.337669   -0.035566   -0.487689
    115          6           0      -10.962744   -0.279446   -0.378751
    116          6           0      -13.869664    2.048154   -0.181506
    117          6           0      -13.002147   -1.287162   -0.675493
    118          8           0      -14.179234   -1.642281   -0.801821
    119          6           0      -11.843351   -2.379619   -0.572027
    120          6           0      -12.097963   -3.235217    0.617110
    121          8           0      -11.612932   -3.172132    1.677709
    122          8           0      -12.956773   -4.279661    0.282715
    123          6           0      -12.834424   -5.462493    1.109199
    124          1           0       -4.936069   -2.157074   -0.491125
    125          1           0       -5.343073    4.328929   -0.081630
    126          1           0      -11.614045    3.951307   -0.000099
    127          1           0       -9.231037   -4.206680   -0.091770
    128          1           0       -6.759843   -3.797184   -1.559448
    129          1           0       -6.365352   -3.668737    1.222096
    130          1           0       -5.940129   -4.836553   -0.061233
    131          1           0       -7.440892   -5.063530    0.811010
    132          1           0       -8.328942   -4.499045   -2.738624
    133          1           0       -9.725748   -3.424523   -2.897594
    134          1           0      -11.077770   -5.039925   -2.914312
    135          1           0      -10.637391   -5.599141   -1.224245
    136          1           0       -2.621905   -1.078053    0.289426
    137          1           0       -1.901591    0.019602   -0.919112
    138          1           0       -2.999735   -1.376534   -1.363921
    139          1           0       -0.820125    3.286932   -0.009976
    140          1           0       -1.109130    2.229912   -1.443171
    141          1           0       -1.006648    1.652918    0.224566
    142          1           0       -7.496072    5.837653   -0.993705
    143          1           0       -9.782651    5.666680    0.930056
    144          1           0       -7.840965    6.899173    1.566094
    145          1           0       -6.265586    6.874407    0.975426
    146          1           0       -6.757202    5.554978    2.018741
    147          1           0      -10.183863    5.367303   -2.020941
    148          1           0       -9.442562    6.822161   -1.503526
    149          1           0      -12.067010    6.116275   -1.401920
    150          1           0      -11.516111    7.672111   -1.254542
    151          1           0      -11.528818    6.642161    0.224904
    152          1           0      -13.717609    3.071880   -0.524611
    153          1           0      -14.148383    2.064939    0.872054
    154          1           0      -14.601121    1.420630   -0.691062
    155          1           0      -11.843610   -3.009238   -1.461439
    156          1           0      -13.349159   -5.190129    2.029964
    157          1           0      -11.766705   -5.581185    1.292870
    158          1           0      -13.324935   -6.323179    0.653634
 ---------------------------------------------------------------------

 SCF Done:  E(RCAM-B3LYP) =  -4069.80833039     A.U. after   18 cycles

 Excitation energies and oscillator strengths:

 Excited State   1:      Singlet-A      1.6712 eV  741.90 nm  f=0.5108  <S**2>=0.000
     309 -> 315        0.15525
     311 -> 313        0.68279
 This state for optimization and/or second-order correction.
 Total Energy, E(TD-HF/TD-DFT) =  -4069.74691598
 Copying the excited state density for this state as the 1-particle RhoCI density.

 Excited State   2:      Singlet-A      1.7548 eV  706.54 nm  f=0.3094  <S**2>=0.000
     310 -> 316        0.19742
     312 -> 314        0.67546
     310 <- 316        0.11181

 Excited State   3:      Singlet-A      2.1916 eV  565.73 nm  f=0.1190  <S**2>=0.000
     309 -> 313        0.64527
     311 -> 315       -0.25769

 Excited State   4:      Singlet-A      2.3188 eV  534.68 nm  f=0.0709  <S**2>=0.000
     310 -> 314        0.61717
     312 -> 316       -0.33850

 Excited State   5:      Singlet-A      2.6620 eV  465.75 nm  f=0.0000  <S**2>=0.000
     312 -> 313        0.70665

 The electronic state is 1-A.
 Alpha  occ. eigenvalues --  -46.88700 -46.87852 -19.25392 -19.22102 -19.19513
 Alpha  occ. eigenvalues --  -19.19199 -19.19056 -19.18845 -19.18788 -19.17881
 Alpha  occ. eigenvalues --  -14.42486 -14.42095 -14.41919 -14.41306 -14.40193
 Alpha  occ. eigenvalues --  -14.39959 -14.39805 -14.38508 -10.39361 -10.38036
 Alpha  occ. eigenvalues --  -10.35417 -10.35264 -10.34688 -10.34133 -10.31766
 Alpha  occ. eigenvalues --  -10.31435 -10.31207 -10.30979 -10.30960 -10.30953
 Alpha  occ. eigenvalues --  -10.30787 -10.30749 -10.30679 -10.30679 -10.30602
 Alpha  occ. eigenvalues --  -10.30586 -10.30552 -10.30389 -10.30288 -10.30207
 Alpha  occ. eigenvalues --  -10.29472 -10.29227 -10.29208 -10.29188 -10.28857
 Alpha  occ. eigenvalues --  -10.28607 -10.28475 -10.28330 -10.28215 -10.28197
 Alpha  occ. eigenvalues --  -10.28191 -10.28175 -10.28149 -10.27813 -10.27718
 Alpha  occ. eigenvalues --  -10.27710 -10.27673 -10.27634 -10.27520 -10.27517
 Alpha  occ. eigenvalues --  -10.27444 -10.27405 -10.27233 -10.27226 -10.27152
 Alpha  occ. eigenvalues --  -10.27115 -10.27092 -10.26540 -10.26463 -10.26438
 Alpha  occ. eigenvalues --  -10.26427 -10.26416 -10.26385 -10.26250 -10.26146
 Alpha  occ. eigenvalues --  -10.26127 -10.26060 -10.26050 -10.25953 -10.25919
 Alpha  occ. eigenvalues --  -10.25888 -10.25761 -10.25752 -10.25289 -10.24816
 Alpha  occ. eigenvalues --  -10.24411  -3.17305  -3.16614  -1.92214  -1.91752
 Alpha  occ. eigenvalues --   -1.91618  -1.91483  -1.91079  -1.90931  -1.16706
 Alpha  occ. eigenvalues --   -1.16337  -1.09714  -1.09495  -1.09229  -1.08047
 Alpha  occ. eigenvalues --   -1.07649  -1.06177  -1.05952  -1.04783  -1.04558
 Alpha  occ. eigenvalues --   -1.03364  -1.03281  -1.02379  -1.01986  -1.00550
 Alpha  occ. eigenvalues --   -0.93382  -0.92516  -0.90248  -0.89542  -0.89121
 Alpha  occ. eigenvalues --   -0.88672  -0.88550  -0.88426  -0.87783  -0.87275
 Alpha  occ. eigenvalues --   -0.87261  -0.87127  -0.86828  -0.86590  -0.84884
 Alpha  occ. eigenvalues --   -0.84244  -0.84154  -0.83408  -0.83121  -0.82782
 Alpha  occ. eigenvalues --   -0.82336  -0.81813  -0.81443  -0.81078  -0.80798
 Alpha  occ. eigenvalues --   -0.80153  -0.78855  -0.78691  -0.77899  -0.77652
 Alpha  occ. eigenvalues --   -0.77340  -0.76765  -0.76625  -0.75435  -0.75178
 Alpha  occ. eigenvalues --   -0.75169  -0.73190  -0.72992  -0.72145  -0.71616
 Alpha  occ. eigenvalues --   -0.69691  -0.69469  -0.69249  -0.68643  -0.68305
 Alpha  occ. eigenvalues --   -0.67879  -0.67486  -0.66725  -0.66589  -0.65616
 Alpha  occ. eigenvalues --   -0.65616  -0.65315  -0.65228  -0.64918  -0.64757
 Alpha  occ. eigenvalues --   -0.63815  -0.62755  -0.60790  -0.60586  -0.60113
 Alpha  occ. eigenvalues --   -0.60108  -0.59695  -0.59328  -0.58962  -0.58926
 Alpha  occ. eigenvalues --   -0.58619  -0.58391  -0.58224  -0.57817  -0.57626
 Alpha  occ. eigenvalues --   -0.56654  -0.56422  -0.55965  -0.55713  -0.55505
 Alpha  occ. eigenvalues --   -0.55209  -0.54655  -0.54234  -0.54064  -0.53868
 Alpha  occ. eigenvalues --   -0.53654  -0.53554  -0.53349  -0.53185  -0.53177
 Alpha  occ. eigenvalues --   -0.52925  -0.52601  -0.52204  -0.52167  -0.52084
 Alpha  occ. eigenvalues --   -0.52037  -0.51903  -0.51545  -0.51418  -0.51303
 Alpha  occ. eigenvalues --   -0.51129  -0.50971  -0.50687  -0.50658  -0.50469
 Alpha  occ. eigenvalues --   -0.50466  -0.50142  -0.50021  -0.49932  -0.49865
 Alpha  occ. eigenvalues --   -0.49720  -0.49550  -0.49261  -0.48887  -0.48841
 Alpha  occ. eigenvalues --   -0.48587  -0.48514  -0.48512  -0.48467  -0.48132
 Alpha  occ. eigenvalues --   -0.48004  -0.47986  -0.47956  -0.47536  -0.47438
 Alpha  occ. eigenvalues --   -0.47220  -0.47196  -0.46868  -0.46765  -0.46713
 Alpha  occ. eigenvalues --   -0.46441  -0.46403  -0.46242  -0.46074  -0.45921
 Alpha  occ. eigenvalues --   -0.45757  -0.45347  -0.45327  -0.45234  -0.45206
 Alpha  occ. eigenvalues --   -0.44904  -0.44721  -0.44568  -0.44154  -0.44083
 Alpha  occ. eigenvalues --   -0.44083  -0.43878  -0.43597  -0.43596  -0.43456
 Alpha  occ. eigenvalues --   -0.43333  -0.43264  -0.42984  -0.42838  -0.42706
 Alpha  occ. eigenvalues --   -0.42625  -0.42435  -0.42247  -0.41958  -0.41912
 Alpha  occ. eigenvalues --   -0.41898  -0.41740  -0.41587  -0.41417  -0.41358
 Alpha  occ. eigenvalues --   -0.41266  -0.41121  -0.41033  -0.40957  -0.40568
 Alpha  occ. eigenvalues --   -0.40328  -0.40092  -0.40082  -0.39814  -0.38997
 Alpha  occ. eigenvalues --   -0.38983  -0.38631  -0.38106  -0.37759  -0.37610
 Alpha  occ. eigenvalues --   -0.37237  -0.36999  -0.36311  -0.36178  -0.36064
 Alpha  occ. eigenvalues --   -0.35867  -0.34852  -0.34383  -0.34021  -0.34012
 Alpha  occ. eigenvalues --   -0.33741  -0.33209  -0.33110  -0.31757  -0.31480
 Alpha  occ. eigenvalues --   -0.31357  -0.31213  -0.30804  -0.30764  -0.30459
 Alpha  occ. eigenvalues --   -0.29954  -0.29702  -0.29202  -0.24304  -0.24270
 Alpha  occ. eigenvalues --   -0.21390  -0.21107
 Alpha virt. eigenvalues --   -0.09205  -0.08346  -0.02102  -0.01984  -0.00157
 Alpha virt. eigenvalues --    0.00548   0.02004   0.02319   0.02482   0.02798
 Alpha virt. eigenvalues --    0.04338   0.05181   0.05331   0.05423   0.05900

 Mulliken charges:
               1
     1  Mg  12.000256
     2  C    5.996490
     3  C    6.001454
     4  C    6.003448
     5  C    5.999879
     6  N    6.998602
     7  C    6.004131
     8  C    5.998877
     9  C    6.001156
    10  C    5.996425
    11  C    6.001312
    12  C    5.999082
    13  C    6.000345
    14  H    0.999743
    15  N    7.001917
    16  C    5.993384
    17  C    5.997785
    18  C    5.997449
    19  C    5.994789
    20  C    6.001135
    21  C    5.998041
    22  O    7.995754
    23  C    6.000446
    24  N    7.001130
    25  C    5.995208
    26  C    6.001090
    27  C    5.999036
    28  C    6.004308
    29  C    6.000224
    30  C    5.998269
    31  C    6.000024
    32  N    6.999134
    33  C    6.005262
    34  C    6.004758
    35  C    6.000290
    36  C    6.005150
    37  C    5.999739
    38  C    6.003234
    39  O    8.005065
    40  C    6.000145
    41  C    6.000214
    42  O    7.999844
    43  O    8.000644
    44  C    6.000139
    45  H    0.997707
    46  H    0.998982
    47  H    1.001437
    48  H    0.999149
    49  H    0.999291
    50  H    0.998863
    51  H    0.997810
    52  H    0.999586
    53  H    1.001498
    54  H    1.000317
    55  H    0.999641
    56  H    1.000321
    57  H    0.996978
    58  H    0.997048
    59  H    0.997476
    60  H    0.999115
    61  H    0.998993
    62  H    0.997473
    63  H    1.000089
    64  H    0.999669
    65  H    0.998208
    66  H    0.999157
    67  H    1.000526
    68  H    1.001781
    69  H    1.001424
    70  H    1.000808
    71  H    0.999515
    72  H    1.000531
    73  H    1.006589
    74  H    1.001135
    75  H    1.001644
    76  H    1.002275
    77  H    0.999784
    78  H    1.000363
    79  H    1.000010
    80  Mg  12.003241
    81  C    5.986078
    82  C    6.017297
    83  C    6.021882
    84  C    5.988251
    85  N    6.995362
    86  C    6.027323
    87  C    5.986961
    88  C    6.009408
    89  C    5.971507
    90  C    6.001553
    91  C    5.998600
    92  C    5.996233
    93  H    1.009069
    94  N    7.005445
    95  C    5.958510
    96  C    5.971846
    97  C    5.986250
    98  C    5.964137
    99  C    6.004020
   100  C    5.989214
   101  O    7.970378
   102  C    6.007528
   103  N    7.002235
   104  C    5.960583
   105  C    6.015775
   106  C    5.986492
   107  C    6.032287
   108  C    6.002887
   109  C    5.993544
   110  C    6.000548
   111  N    6.998036
   112  C    6.041796
   113  C    6.028042
   114  C    6.006528
   115  C    6.028488
   116  C    5.997841
   117  C    6.015772
   118  O    8.034491
   119  C    5.999805
   120  C    6.000854
   121  O    8.007991
   122  O    7.999459
   123  C    5.997421
   124  H    0.991706
   125  H    0.993370
   126  H    1.010305
   127  H    1.002987
   128  H    0.999778
   129  H    1.002805
   130  H    0.999632
   131  H    0.986394
   132  H    1.010071
   133  H    0.997095
   134  H    0.996985
   135  H    0.997854
   136  H    0.978532
   137  H    0.984119
   138  H    0.979109
   139  H    0.985343
   140  H    0.989834
   141  H    0.991401
   142  H    0.996070
   143  H    1.003291
   144  H    0.988078
   145  H    1.001088
   146  H    1.001074
   147  H    1.000506
   148  H    1.012250
   149  H    0.994476
   150  H    1.005401
   151  H    1.000069
   152  H    1.019599
   153  H    1.019930
   154  H    1.014584
   155  H    1.011602
   156  H    1.002284
   157  H    1.006387
   158  H    1.005021
 Sum of Mulliken charges = 624.00000

 Dipole moment (field-independent basis, Debye):
    X=            -12.6269    Y=             -0.9355    Z=              0.9379  Tot=             12.6962
 Quadrupole moment (field-independent basis, Debye-Ang):
   XX=            160.1216   YY=              0.5432   ZZ=              0.3378
   XY=             -2.6597   XZ=             12.4991   YZ=              0.4336

 Normal termination of Gaussian 16 at Thu Sep 23 01:49:55 2021.
