 Gaussian 16, Revision A.03,
 Gaussian 16:  ES64L-G16RevA.03 25-Dec-2016

 ----------------------------------------------------------
 #p cam-b3lyp/Def2SVP td=(nstates=5) density=(transition=1)
 ----------------------------------------------------------

 --------------------------------
 TDDFT excited states in gaussian
 --------------------------------
 Symbolic Z-matrix:
 Charge =  0 Multiplicity = 1

                         Standard orientation:
 ---------------------------------------------------------------------
 Center     Atomic      Atomic             Coordinates (Angstroms)
 Number     Number       Type             X           Y           Z
 ---------------------------------------------------------------------
      1         12           0       27.205079   -0.599875   -0.028819
      2          6           0       25.252805    1.886560    1.403187
      3          6           0       28.928505    1.727067   -1.757769
      4          6           0       28.900513   -3.096833   -1.476433
      5          6           0       25.253639   -2.949173    1.684265
      6          7           0       27.061093    1.582158   -0.087816
      7          6           0       26.294445    2.383363    0.612594
      8          6           0       26.693023    3.883700    0.233657
      9          6           0       27.187616    3.623690   -1.173549
     10          6           0       27.824502    2.206565   -1.013989
     11          6           0       26.022829    3.738878   -2.180382
     12          6           0       27.639036    4.510543    1.346036
     13          6           0       27.694776    6.041315    1.347059
     14          1           0       27.068922    6.797388    0.187816
     15          7           0       28.802069   -0.668551   -1.269164
     16          6           0       29.431321    0.442477   -1.825756
     17          6           0       30.682514   -0.034429   -2.487747
     18          6           0       30.658482   -1.493763   -2.470738
     19          6           0       29.369232   -1.765124   -1.781082
     20          6           0       31.693859    0.905669   -3.099814
     21          6           0       31.718923   -2.573651   -2.984134
     22          8           0       31.586773   -3.792338   -2.828496
     23          6           0       32.950677   -2.031859   -3.679010
     24          7           0       27.029084   -2.661512   -0.005706
     25          6           0       27.823352   -3.482459   -0.687561
     26          6           0       27.402558   -4.978769   -0.556036
     27          6           0       26.426157   -4.879564    0.624784
     28          6           0       26.244758   -3.410804    0.846426
     29          6           0       26.793785   -5.597844   -1.845156
     30          6           0       26.713663   -5.758006    1.922671
     31          6           0       27.277823   -5.059165    3.115812
     32          7           0       25.456523   -0.607118    1.116435
     33          6           0       24.825624   -1.599271    1.788379
     34          6           0       23.704137   -1.146204    2.531302
     35          6           0       23.825159    0.274570    2.417923
     36          6           0       24.889539    0.484381    1.571167
     37          6           0       22.603829   -1.836130    3.295201
     38          6           0       23.308869    1.556313    2.796057
     39          8           0       22.374946    1.879682    3.497844
     40          6           0       24.282951    2.671129    2.297843
     41          6           0       23.523380    3.707201    1.591638
     42          8           0       22.881872    3.473231    0.578670
     43          8           0       23.454876    4.942110    2.285963
     44          6           0       22.606324    5.978674    1.677432
     45          1           0       29.416943    2.503417   -2.348476
     46          1           0       29.443803   -3.886779   -1.997726
     47          1           0       24.636743   -3.712239    2.162735
     48          1           0       25.808221    4.518146    0.263500
     49          1           0       28.011779    4.264438   -1.486075
     50          1           0       26.300410    4.627052   -2.749005
     51          1           0       25.054927    3.880829   -1.697837
     52          1           0       26.116581    2.879169   -2.843500
     53          1           0       28.660801    4.153952    1.212855
     54          1           0       27.184936    4.220242    2.293751
     55          1           0       28.747298    6.312677    1.422656
     56          1           0       27.226918    6.371125    2.274332
     57          1           0       31.753777    1.842678   -2.544989
     58          1           0       31.566158    1.156201   -4.152418
     59          1           0       32.682943    0.460263   -2.993970
     60          1           0       32.539726   -1.372597   -4.443232
     61          1           0       33.543073   -2.781131   -4.203339
     62          1           0       33.601535   -1.546431   -2.951608
     63          1           0       28.253724   -5.609784   -0.300693
     64          1           0       25.450295   -5.132665    0.211988
     65          1           0       25.939237   -6.180962   -1.501047
     66          1           0       27.452157   -6.213142   -2.456430
     67          1           0       26.515095   -4.777681   -2.506849
     68          1           0       27.310073   -6.621244    1.627123
     69          1           0       25.766370   -6.130283    2.312064
     70          1           0       26.508781   -5.064336    3.888605
     71          1           0       27.424823   -3.982800    3.018595
     72          1           0       28.154385   -5.540031    3.550126
     73          1           0       22.643702   -2.921172    3.193023
     74          1           0       21.647992   -1.390986    3.017413
     75          1           0       22.653031   -1.773023    4.382473
     76          1           0       24.818296    3.139475    3.123348
     77          1           0       22.699178    6.969610    2.121185
     78          1           0       21.599261    5.586736    1.822518
     79          1           0       22.833593    5.946974    0.612509
     80         12           0      -27.402090   -0.539912   -0.183770
     81          6           0      -25.660186    2.234518   -1.404611
     82          6           0      -28.252798    1.347800    2.576587
     83          6           0      -28.501860   -3.372858    1.370574
     84          6           0      -25.928372   -2.460573   -2.660097
     85          7           0      -27.055937    1.539861    0.400652
     86          6           0      -26.517315    2.513589   -0.344369
     87          6           0      -26.757059    3.934611    0.186297
     88          6           0      -27.435742    3.635802    1.577882
     89          6           0      -27.709510    2.030602    1.518640
     90          6           0      -26.656445    4.044258    2.846564
     91          6           0      -27.585253    4.828713   -0.736743
     92          6           0      -27.293055    6.329043   -0.553145
     93          1           0      -26.269986    6.771302    0.502618
     94          7           0      -28.355566   -0.961828    1.646797
     95          6           0      -28.687004   -0.019284    2.647362
     96          6           0      -29.392695   -0.710620    3.707587
     97          6           0      -29.420132   -2.122614    3.402894
     98          6           0      -28.782147   -2.209305    2.090224
     99          6           0      -30.029566    0.049468    4.838311
    100          6           0      -30.125155   -3.332638    4.165214
    101          8           0      -30.191934   -4.455127    3.726291
    102          6           0      -30.717434   -3.016229    5.521366
    103          7           0      -27.159833   -2.603540   -0.531644
    104          6           0      -27.732569   -3.592098    0.213887
    105          6           0      -27.473722   -5.021167   -0.390639
    106          6           0      -26.728778   -4.668880   -1.677155
    107          6           0      -26.597039   -3.159039   -1.609056
    108          6           0      -26.819942   -6.176762    0.469233
    109          6           0      -27.515051   -5.134077   -2.925226
    110          6           0      -28.658771   -4.244745   -3.461320
    111          7           0      -26.171222   -0.234896   -1.851032
    112          6           0      -25.649346   -1.104402   -2.773406
    113          6           0      -24.849954   -0.420323   -3.733789
    114          6           0      -24.806661    0.956541   -3.229237
    115          6           0      -25.572927    0.977262   -2.129560
    116          6           0      -24.157632   -0.889278   -4.936127
    117          6           0      -24.190415    2.267084   -3.383189
    118          8           0      -23.475820    2.707084   -4.290143
    119          6           0      -24.705291    3.172928   -2.226057
    120          6           0      -23.602824    3.708829   -1.434222
    121          8           0      -22.966507    3.102447   -0.578860
    122          8           0      -23.230832    4.926009   -1.947457
    123          6           0      -21.905995    5.485588   -1.616164
    124          1           0      -28.452693    2.012175    3.420102
    125          1           0      -29.006911   -4.257047    1.764943
    126          1           0      -25.540889   -3.044859   -3.497262
    127          1           0      -25.821921    4.425566    0.454753
    128          1           0      -28.458321    4.004793    1.648615
    129          1           0      -27.414875    4.638352    3.356095
    130          1           0      -25.791179    4.654069    2.587764
    131          1           0      -26.329415    3.160938    3.395241
    132          1           0      -28.654734    4.655730   -0.623032
    133          1           0      -27.377568    4.586474   -1.779339
    134          1           0      -28.290747    6.696797   -0.312531
    135          1           0      -27.065857    6.818409   -1.501326
    136          1           0      -29.660599    1.070931    4.744980
    137          1           0      -29.733503   -0.405921    5.783573
    138          1           0      -31.119922    0.031091    4.804568
    139          1           0      -30.020950   -2.891685    6.351160
    140          1           0      -31.459162   -3.783040    5.744820
    141          1           0      -31.237413   -2.079196    5.322442
    142          1           0      -28.496323   -5.347934   -0.577969
    143          1           0      -25.763228   -5.169916   -1.618209
    144          1           0      -25.999803   -6.700402   -0.020545
    145          1           0      -27.580344   -6.937213    0.644151
    146          1           0      -26.541485   -5.752198    1.434217
    147          1           0      -27.893335   -6.123759   -2.672117
    148          1           0      -26.753684   -5.270233   -3.693826
    149          1           0      -29.448346   -4.948286   -3.724098
    150          1           0      -28.397643   -3.708249   -4.373218
    151          1           0      -28.979241   -3.461885   -2.774815
    152          1           0      -24.307223   -0.141912   -5.714555
    153          1           0      -24.469529   -1.864686   -5.309617
    154          1           0      -23.078996   -0.838607   -4.786447
    155          1           0      -25.273818    3.950826   -2.735497
    156          1           0      -21.358365    4.858472   -0.911794
    157          1           0      -22.066085    6.451905   -1.137302
    158          1           0      -21.447470    5.522011   -2.603731
 ---------------------------------------------------------------------

 SCF Done:  E(RCAM-B3LYP) =  -4069.83358055     A.U. after   19 cycles

 Excitation energies and oscillator strengths:

 Excited State   1:      Singlet-A      1.7177 eV  721.80 nm  f=0.4145  <S**2>=0.000
     310 -> 315        0.18152
     312 -> 313        0.68398
     310 <- 315        0.10677
 This state for optimization and/or second-order correction.
 Total Energy, E(TD-HF/TD-DFT) =  -4069.77045575
 Copying the excited state density for this state as the 1-particle RhoCI density.

 Excited State   2:      Singlet-A      1.7355 eV  714.39 nm  f=0.3899  <S**2>=0.000
     309 -> 316        0.17783
     311 -> 314        0.68647
     309 <- 316        0.10692

 Excited State   3:      Singlet-A      2.1354 eV  580.60 nm  f=0.1571  <S**2>=0.000
     310 -> 313        0.65932
     312 -> 315       -0.23564

 Excited State   4:      Singlet-A      2.2152 eV  559.70 nm  f=0.1505  <S**2>=0.000
     309 -> 314        0.65503
     311 -> 316       -0.25743

 Excited State   5:      Singlet-A      3.2208 eV  384.95 nm  f=0.0000  <S**2>=0.000
     312 -> 314        0.70710

 The electronic state is 1-A.
 Alpha  occ. eigenvalues --  -46.88219 -46.87756 -19.23904 -19.23848 -19.20471
 Alpha  occ. eigenvalues --  -19.19920 -19.19479 -19.18960 -19.18680 -19.17894
 Alpha  occ. eigenvalues --  -14.42255 -14.42004 -14.41867 -14.41452 -14.40102
 Alpha  occ. eigenvalues --  -14.39406 -14.38624 -14.38139 -10.38865 -10.38657
 Alpha  occ. eigenvalues --  -10.37228 -10.36163 -10.35060 -10.34098 -10.31322
 Alpha  occ. eigenvalues --  -10.31141 -10.31130 -10.31055 -10.30990 -10.30861
 Alpha  occ. eigenvalues --  -10.30854 -10.30685 -10.30648 -10.30584 -10.30448
 Alpha  occ. eigenvalues --  -10.30300 -10.30293 -10.29846 -10.29843 -10.29007
 Alpha  occ. eigenvalues --  -10.28850 -10.28828 -10.28813 -10.28663 -10.28551
 Alpha  occ. eigenvalues --  -10.28247 -10.28129 -10.28112 -10.28088 -10.28086
 Alpha  occ. eigenvalues --  -10.27949 -10.27942 -10.27751 -10.27637 -10.27620
 Alpha  occ. eigenvalues --  -10.27584 -10.27550 -10.27545 -10.27541 -10.27398
 Alpha  occ. eigenvalues --  -10.27285 -10.27234 -10.27156 -10.27100 -10.27055
 Alpha  occ. eigenvalues --  -10.26978 -10.26924 -10.26889 -10.26754 -10.26567
 Alpha  occ. eigenvalues --  -10.26323 -10.26322 -10.26299 -10.25959 -10.25894
 Alpha  occ. eigenvalues --  -10.25886 -10.25823 -10.25773 -10.25754 -10.25734
 Alpha  occ. eigenvalues --  -10.25662 -10.25571 -10.25448 -10.24734 -10.24514
 Alpha  occ. eigenvalues --  -10.24174  -3.16744  -3.16521  -1.91645  -1.91433
 Alpha  occ. eigenvalues --   -1.91197  -1.91050  -1.90941  -1.90869  -1.15064
 Alpha  occ. eigenvalues --   -1.14489  -1.11558  -1.10477  -1.09567  -1.08841
 Alpha  occ. eigenvalues --   -1.06735  -1.06618  -1.05576  -1.04719  -1.04426
 Alpha  occ. eigenvalues --   -1.04140  -1.03304  -1.03154  -1.02423  -1.00997
 Alpha  occ. eigenvalues --   -0.92123  -0.92050  -0.89200  -0.89158  -0.88784
 Alpha  occ. eigenvalues --   -0.88573  -0.88277  -0.88115  -0.87288  -0.87112
 Alpha  occ. eigenvalues --   -0.87071  -0.86435  -0.86253  -0.86063  -0.84325
 Alpha  occ. eigenvalues --   -0.84177  -0.83657  -0.83414  -0.82754  -0.82559
 Alpha  occ. eigenvalues --   -0.82315  -0.81942  -0.80976  -0.80946  -0.80147
 Alpha  occ. eigenvalues --   -0.80061  -0.78580  -0.78104  -0.77235  -0.77116
 Alpha  occ. eigenvalues --   -0.76815  -0.76655  -0.75877  -0.75851  -0.75063
 Alpha  occ. eigenvalues --   -0.74990  -0.72810  -0.72408  -0.71169  -0.71070
 Alpha  occ. eigenvalues --   -0.69796  -0.69244  -0.68744  -0.68425  -0.67924
 Alpha  occ. eigenvalues --   -0.67663  -0.66609  -0.66055  -0.65046  -0.64743
 Alpha  occ. eigenvalues --   -0.64678  -0.64657  -0.64419  -0.64183  -0.63995
 Alpha  occ. eigenvalues --   -0.63702  -0.61376  -0.61241  -0.60628  -0.59748
 Alpha  occ. eigenvalues --   -0.59580  -0.59121  -0.59068  -0.59059  -0.58293
 Alpha  occ. eigenvalues --   -0.58009  -0.57972  -0.57644  -0.57612  -0.57387
 Alpha  occ. eigenvalues --   -0.55833  -0.55793  -0.55664  -0.55432  -0.55413
 Alpha  occ. eigenvalues --   -0.55147  -0.54780  -0.54639  -0.53983  -0.53681
 Alpha  occ. eigenvalues --   -0.53680  -0.53351  -0.53326  -0.52988  -0.52845
 Alpha  occ. eigenvalues --   -0.52656  -0.52652  -0.52328  -0.52303  -0.52128
 Alpha  occ. eigenvalues --   -0.52111  -0.51954  -0.51790  -0.51588  -0.51202
 Alpha  occ. eigenvalues --   -0.50780  -0.50717  -0.50687  -0.50613  -0.50337
 Alpha  occ. eigenvalues --   -0.50201  -0.49882  -0.49647  -0.49559  -0.49496
 Alpha  occ. eigenvalues --   -0.49343  -0.49226  -0.49037  -0.48999  -0.48979
 Alpha  occ. eigenvalues --   -0.48800  -0.48537  -0.48518  -0.48490  -0.48207
 Alpha  occ. eigenvalues --   -0.48106  -0.47748  -0.47599  -0.47370  -0.47089
 Alpha  occ. eigenvalues --   -0.46868  -0.46723  -0.46447  -0.46282  -0.46233
 Alpha  occ. eigenvalues --   -0.46102  -0.46013  -0.45802  -0.45778  -0.45623
 Alpha  occ. eigenvalues --   -0.45563  -0.45223  -0.45005  -0.44936  -0.44636
 Alpha  occ. eigenvalues --   -0.44619  -0.44317  -0.44244  -0.44001  -0.43944
 Alpha  occ. eigenvalues --   -0.43938  -0.43618  -0.43436  -0.43383  -0.43313
 Alpha  occ. eigenvalues --   -0.43215  -0.43163  -0.43033  -0.42969  -0.42765
 Alpha  occ. eigenvalues --   -0.42650  -0.42470  -0.42339  -0.42058  -0.41904
 Alpha  occ. eigenvalues --   -0.41785  -0.41475  -0.41399  -0.41073  -0.41018
 Alpha  occ. eigenvalues --   -0.40963  -0.40861  -0.40591  -0.40517  -0.40209
 Alpha  occ. eigenvalues --   -0.40207  -0.39966  -0.39891  -0.39177  -0.38491
 Alpha  occ. eigenvalues --   -0.38368  -0.38185  -0.38048  -0.37817  -0.37665
 Alpha  occ. eigenvalues --   -0.37558  -0.36614  -0.36604  -0.36141  -0.36098
 Alpha  occ. eigenvalues --   -0.35647  -0.35615  -0.34430  -0.34295  -0.33927
 Alpha  occ. eigenvalues --   -0.33775  -0.33251  -0.33243  -0.32186  -0.31580
 Alpha  occ. eigenvalues --   -0.31144  -0.30859  -0.30792  -0.30497  -0.30172
 Alpha  occ. eigenvalues --   -0.29580  -0.29551  -0.28630  -0.23887  -0.23489
 Alpha  occ. eigenvalues --   -0.21382  -0.21293
 Alpha virt. eigenvalues --   -0.08889  -0.08827  -0.01287  -0.01246  -0.00008
 Alpha virt. eigenvalues --    0.00627   0.02483   0.02516   0.02634   0.03514
 Alpha virt. eigenvalues --    0.04805   0.05166   0.05335   0.05357   0.06033

 Mulliken charges:
               1
     1  Mg  11.999987
     2  C    6.000053
     3  C    5.999919
     4  C    5.999919
     5  C    6.000072
     6  N    7.000057
     7  C    5.999909
     8  C    6.000000
     9  C    5.999993
    10  C    6.000122
    11  C    6.000003
    12  C    6.000015
    13  C    5.999997
    14  H    0.999959
    15  N    7.000022
    16  C    6.000207
    17  C    6.000070
    18  C    6.000109
    19  C    6.000108
    20  C    5.999958
    21  C    6.000065
    22  O    8.000122
    23  C    5.999962
    24  N    6.999930
    25  C    6.000129
    26  C    5.999966
    27  C    6.000018
    28  C    5.999929
    29  C    6.000001
    30  C    6.000011
    31  C    6.000003
    32  N    6.999953
    33  C    5.999827
    34  C    5.999885
    35  C    5.999946
    36  C    5.999863
    37  C    6.000046
    38  C    5.999964
    39  O    7.999861
    40  C    6.000012
    41  C    5.999965
    42  O    7.999957
    43  O    8.000008
    44  C    6.000021
    45  H    1.000053
    46  H    1.000017
    47  H    0.999946
    48  H    0.999998
    49  H    1.000007
    50  H    1.000002
    51  H    1.000045
    52  H    0.999974
    53  H    0.999964
    54  H    1.000043
    55  H    1.000003
    56  H    1.000022
    57  H    1.000080
    58  H    1.000080
    59  H    1.000080
    60  H    1.000007
    61  H    1.000072
    62  H    1.000054
    63  H    1.000018
    64  H    0.999977
    65  H    1.000038
    66  H    0.999996
    67  H    0.999971
    68  H    0.999969
    69  H    1.000000
    70  H    1.000016
    71  H    1.000009
    72  H    0.999987
    73  H    0.999918
    74  H    0.999893
    75  H    0.999926
    76  H    0.999990
    77  H    0.999988
    78  H    0.999976
    79  H    0.999958
    80  Mg  12.003039
    81  C    5.978747
    82  C    6.020915
    83  C    6.023422
    84  C    5.993670
    85  N    6.993762
    86  C    6.035425
    87  C    5.985266
    88  C    6.002715
    89  C    5.971130
    90  C    6.002969
    91  C    5.997673
    92  C    5.998721
    93  H    1.004724
    94  N    7.005479
    95  C    5.953773
    96  C    5.981568
    97  C    5.978980
    98  C    5.964582
    99  C    6.006232
   100  C    5.985878
   101  O    7.973728
   102  C    6.004592
   103  N    7.007835
   104  C    5.960235
   105  C    6.009916
   106  C    5.988321
   107  C    6.031946
   108  C    5.998492
   109  C    5.994999
   110  C    5.993234
   111  N    6.999227
   112  C    6.030091
   113  C    6.039071
   114  C    6.002200
   115  C    6.025393
   116  C    5.992417
   117  C    6.013410
   118  O    8.026578
   119  C    6.002410
   120  C    6.005239
   121  O    8.006723
   122  O    8.000456
   123  C    5.998188
   124  H    0.989655
   125  H    0.994036
   126  H    1.011033
   127  H    1.001798
   128  H    1.000944
   129  H    0.998677
   130  H    0.987099
   131  H    1.003113
   132  H    1.008910
   133  H    0.992006
   134  H    1.004691
   135  H    0.997675
   136  H    0.981145
   137  H    0.980003
   138  H    0.977812
   139  H    0.989486
   140  H    0.984655
   141  H    0.997953
   142  H    1.001323
   143  H    1.004076
   144  H    0.989516
   145  H    0.999984
   146  H    1.004046
   147  H    1.012463
   148  H    0.996838
   149  H    1.008838
   150  H    0.994393
   151  H    1.007572
   152  H    1.021720
   153  H    1.021592
   154  H    1.026185
   155  H    1.007362
   156  H    1.003513
   157  H    1.006363
   158  H    1.000155
 Sum of Mulliken charges = 624.00000

 Dipole moment (field-independent basis, Debye):
    X=              6.0365    Y=              1.8612    Z=             -9.3468  Tot=             11.2813
 Quadrupole moment (field-independent basis, Debye-Ang):
   XX=           -322.0233   YY=             -1.0456   ZZ=             -0.6489
   XY=            -53.1124   XZ=            252.7184   YZ=              7.0133

 Normal termination of Gaussian 16 at Thu Sep 23 14:42:14 2021.
