 Gaussian 16, Revision A.03,
 Gaussian 16:  ES64L-G16RevA.03 25-Dec-2016

 ----------------------------------------------------------
 #p cam-b3lyp/Def2SVP td=(nstates=5) density=(transition=1)
 ----------------------------------------------------------

 --------------------------------
 TDDFT excited states in gaussian
 --------------------------------
 Symbolic Z-matrix:
 Charge =  0 Multiplicity = 1

                         Standard orientation:
 ---------------------------------------------------------------------
 Center     Atomic      Atomic             Coordinates (Angstroms)
 Number     Number       Type             X           Y           Z
 ---------------------------------------------------------------------
      1         12           0       27.885907    0.521611    0.057111
      2          6           0       24.797304   -0.643192   -0.922710
      3          6           0       26.459994    1.672059    2.939391
      4          6           0       30.899233    0.440614    1.408415
      5          6           0       29.191423   -0.760536   -2.939422
      6          7           0       25.921100    0.063804    1.054609
      7          6           0       24.774233   -0.201854    0.377753
      8          6           0       23.546704   -0.012988    1.219132
      9          6           0       24.065496    1.082270    2.206204
     10          6           0       25.572510    0.999499    2.013453
     11          6           0       23.437156    2.481896    1.948828
     12          6           0       23.129004   -1.359187    1.998374
     13          6           0       21.556839   -1.587843    2.178668
     14          1           0       21.262999   -1.648051    3.657205
     15          7           0       28.592561    1.184451    1.861143
     16          6           0       27.900084    1.543424    2.964398
     17          6           0       28.806164    1.853361    4.063100
     18          6           0       30.104371    1.530135    3.617668
     19          6           0       29.894652    1.019090    2.233931
     20          6           0       28.271075    2.358322    5.425072
     21          6           0       31.300218    1.517449    4.528535
     22          8           0       31.178664    1.873507    5.671640
     23          6           0       32.703506    1.025971    4.125019
     24          7           0       29.853318    0.046500   -0.683384
     25          6           0       30.872058    0.080896    0.054721
     26          6           0       32.089589   -0.468686   -0.591718
     27          6           0       31.564214   -0.858703   -2.029014
     28          6           0       30.142077   -0.521118   -1.905297
     29          6           0       33.287701    0.537563   -0.522373
     30          6           0       31.802974   -2.405022   -2.356984
     31          6           0       31.756806   -2.841009   -3.864666
     32          7           0       27.194947   -0.418161   -1.645469
     33          6           0       27.832770   -0.779606   -2.818264
     34          6           0       26.878164   -1.216024   -3.799196
     35          6           0       25.623678   -1.131299   -3.099609
     36          6           0       25.891039   -0.753206   -1.798006
     37          6           0       27.140474   -1.648987   -5.205640
     38          6           0       24.220350   -1.304856   -3.251953
     39          8           0       23.477780   -1.669263   -4.172740
     40          6           0       23.646668   -1.184924   -1.801255
     41          6           0       22.423298   -0.335437   -1.895682
     42          8           0       21.269172   -0.768438   -2.021041
     43          8           0       22.775434    0.985958   -1.880673
     44          6           0       21.546537    1.816009   -2.024524
     45          1           0       26.092685    2.195707    3.824877
     46          1           0       31.870797    0.369940    1.900765
     47          1           0       29.610918   -1.277008   -3.806170
     48          1           0       22.816303    0.402579    0.526077
     49          1           0       23.756841    0.821985    3.218803
     50          1           0       22.843076    2.773939    2.814303
     51          1           0       22.732175    2.368817    1.124577
     52          1           0       24.248018    3.161128    1.687545
     53          1           0       23.619259   -1.534113    2.955935
     54          1           0       23.482675   -2.234660    1.454748
     55          1           0       21.386274   -2.582910    1.767482
     56          1           0       20.851947   -0.944694    1.651678
     57          1           0       28.528200    1.733136    6.280052
     58          1           0       27.195687    2.538941    5.440979
     59          1           0       28.679855    3.357729    5.570253
     60          1           0       33.165293    1.633498    3.347397
     61          1           0       32.732751   -0.023481    3.830861
     62          1           0       33.259412    0.992781    5.062514
     63          1           0       32.291212   -1.370694   -0.014090
     64          1           0       31.895742   -0.265981   -2.881243
     65          1           0       34.094015    0.030373    0.007001
     66          1           0       33.011613    1.465711   -0.021634
     67          1           0       33.786752    0.703338   -1.477007
     68          1           0       31.067485   -3.015532   -1.832694
     69          1           0       32.781811   -2.636101   -1.939323
     70          1           0       32.620107   -3.301314   -4.344437
     71          1           0       31.580602   -1.978500   -4.505963
     72          1           0       30.934982   -3.537837   -4.029487
     73          1           0       28.148693   -1.488272   -5.586930
     74          1           0       26.391307   -1.044077   -5.714867
     75          1           0       26.788106   -2.679065   -5.150482
     76          1           0       23.410492   -2.140404   -1.331658
     77          1           0       21.152092    1.704169   -3.033975
     78          1           0       21.756269    2.885567   -2.010184
     79          1           0       20.858169    1.524257   -1.231072
     80         12           0      -26.853343   -0.614929    0.472236
     81          6           0      -28.025579    2.638865   -0.247880
     82          6           0      -24.458459   -0.276554   -1.769299
     83          6           0      -26.422081   -4.001064    0.616917
     84          6           0      -30.129017   -1.170769    2.095871
     85          7           0      -26.373355    1.015172   -0.888928
     86          6           0      -26.810148    2.290347   -0.839679
     87          6           0      -25.860559    3.181531   -1.664085
     88          6           0      -24.749672    2.285558   -2.109623
     89          6           0      -25.211941    0.885872   -1.602825
     90          6           0      -24.394840    2.457764   -3.643154
     91          6           0      -25.364090    4.526055   -1.034692
     92          6           0      -23.906848    5.102665   -1.295417
     93          1           0      -23.757025    6.597856   -1.612237
     94          7           0      -25.437850   -1.893407   -0.278048
     95          6           0      -24.498695   -1.538550   -1.219922
     96          6           0      -23.665675   -2.683134   -1.456775
     97          6           0      -24.223439   -3.848166   -0.799446
     98          6           0      -25.433816   -3.286047   -0.160599
     99          6           0      -22.544367   -2.540961   -2.404510
    100          6           0      -23.696213   -5.300549   -0.694301
    101          8           0      -24.336132   -6.129322   -0.135609
    102          6           0      -22.284638   -5.620440   -1.064816
    103          7           0      -28.160751   -2.335163    1.212629
    104          6           0      -27.611381   -3.570281    1.234708
    105          6           0      -28.542712   -4.614601    1.929330
    106          6           0      -29.715352   -3.725446    2.444911
    107          6           0      -29.361036   -2.322218    1.893352
    108          6           0      -29.023943   -5.741901    1.055003
    109          6           0      -29.976937   -3.668836    3.990667
    110          6           0      -29.091333   -2.830306    4.848952
    111          7           0      -28.734770    0.410555    0.914575
    112          6           0      -29.869119    0.069454    1.593826
    113          6           0      -30.711413    1.232579    1.730723
    114          6           0      -30.063984    2.286107    1.033147
    115          6           0      -28.883885    1.714571    0.515525
    116          6           0      -32.083010    1.302735    2.303414
    117          6           0      -30.145390    3.655447    0.611620
    118          8           0      -30.956892    4.551624    0.813113
    119          6           0      -28.806013    3.964544   -0.196396
    120          6           0      -29.061926    4.635727   -1.535254
    121          8           0      -29.639470    4.108826   -2.450872
    122          8           0      -28.491103    5.898495   -1.528499
    123          6           0      -28.716421    6.641044   -2.769148
    124          1           0      -23.526396   -0.190806   -2.332447
    125          1           0      -26.186383   -5.066187    0.660266
    126          1           0      -31.050382   -1.302748    2.666778
    127          1           0      -26.558073    3.460186   -2.453989
    128          1           0      -23.842363    2.614080   -1.601959
    129          1           0      -24.945689    3.306360   -4.048473
    130          1           0      -24.539026    1.490482   -4.124405
    131          1           0      -23.363044    2.783655   -3.775955
    132          1           0      -25.448517    4.411060    0.046211
    133          1           0      -26.035333    5.353996   -1.264328
    134          1           0      -23.528006    4.507106   -2.126253
    135          1           0      -23.278936    4.879737   -0.432704
    136          1           0      -22.487483   -3.492374   -2.932876
    137          1           0      -21.637155   -2.437236   -1.810450
    138          1           0      -22.514077   -1.744868   -3.148617
    139          1           0      -22.380667   -5.902757   -2.112417
    140          1           0      -21.893849   -6.362957   -0.368406
    141          1           0      -21.605873   -4.767446   -1.081161
    142          1           0      -28.096414   -5.013916    2.840302
    143          1           0      -30.712111   -3.850534    2.023080
    144          1           0      -28.486447   -5.768317    0.106221
    145          1           0      -30.076020   -5.637231    0.788582
    146          1           0      -28.837704   -6.651890    1.624845
    147          1           0      -29.943538   -4.676784    4.404361
    148          1           0      -31.031442   -3.433680    4.136727
    149          1           0      -28.133377   -2.678488    4.351213
    150          1           0      -28.768634   -3.174522    5.831795
    151          1           0      -29.664766   -1.922288    5.038127
    152          1           0      -32.818064    0.666492    1.811315
    153          1           0      -32.477194    2.267736    1.983858
    154          1           0      -32.078799    1.161486    3.384570
    155          1           0      -28.218757    4.618388    0.448680
    156          1           0      -27.655311    6.572317   -3.006772
    157          1           0      -29.027319    7.624534   -2.417535
    158          1           0      -29.403834    6.140397   -3.451337
 ---------------------------------------------------------------------

 SCF Done:  E(RCAM-B3LYP) =  -4069.78325274     A.U. after   19 cycles

 Excitation energies and oscillator strengths:

 Excited State   1:      Singlet-A      1.6891 eV  734.05 nm  f=0.3566  <S**2>=0.000
     309 -> 315       -0.16435
     311 -> 313        0.68783
     309 <- 315       -0.10171
 This state for optimization and/or second-order correction.
 Total Energy, E(TD-HF/TD-DFT) =  -4069.72118118
 Copying the excited state density for this state as the 1-particle RhoCI density.

 Excited State   2:      Singlet-A      1.7018 eV  728.57 nm  f=0.3891  <S**2>=0.000
     310 -> 316        0.18699
     312 -> 314        0.68374
     310 <- 316        0.11024

 Excited State   3:      Singlet-A      2.1898 eV  566.18 nm  f=0.1094  <S**2>=0.000
     310 -> 314        0.64227
     312 -> 316       -0.28262

 Excited State   4:      Singlet-A      2.2122 eV  560.47 nm  f=0.1067  <S**2>=0.000
     309 -> 313        0.64121
     311 -> 315        0.27964

 Excited State   5:      Singlet-A      3.1559 eV  392.87 nm  f=0.0000  <S**2>=0.000
     312 -> 313        0.70711

 The electronic state is 1-A.
 Alpha  occ. eigenvalues --  -46.89977 -46.89245 -19.25585 -19.24720 -19.20010
 Alpha  occ. eigenvalues --  -19.19560 -19.19544 -19.19067 -19.18615 -19.17922
 Alpha  occ. eigenvalues --  -14.42198 -14.42134 -14.41929 -14.41764 -14.40332
 Alpha  occ. eigenvalues --  -14.39478 -14.38791 -14.38611 -10.39102 -10.38686
 Alpha  occ. eigenvalues --  -10.35777 -10.35709 -10.34782 -10.34094 -10.32338
 Alpha  occ. eigenvalues --  -10.31739 -10.31731 -10.31610 -10.31242 -10.31108
 Alpha  occ. eigenvalues --  -10.31005 -10.30868 -10.30703 -10.30694 -10.30346
 Alpha  occ. eigenvalues --  -10.30274 -10.29991 -10.29570 -10.29429 -10.29394
 Alpha  occ. eigenvalues --  -10.28997 -10.28810 -10.28656 -10.28572 -10.28412
 Alpha  occ. eigenvalues --  -10.28410 -10.28234 -10.28181 -10.28165 -10.28060
 Alpha  occ. eigenvalues --  -10.28023 -10.27909 -10.27871 -10.27815 -10.27802
 Alpha  occ. eigenvalues --  -10.27712 -10.27638 -10.27604 -10.27594 -10.27541
 Alpha  occ. eigenvalues --  -10.27459 -10.27348 -10.27284 -10.27279 -10.27190
 Alpha  occ. eigenvalues --  -10.27015 -10.27006 -10.26763 -10.26704 -10.26691
 Alpha  occ. eigenvalues --  -10.26675 -10.26636 -10.26605 -10.26542 -10.26518
 Alpha  occ. eigenvalues --  -10.26333 -10.26298 -10.26242 -10.26241 -10.26241
 Alpha  occ. eigenvalues --  -10.26113 -10.25377 -10.25088 -10.24954 -10.24862
 Alpha  occ. eigenvalues --  -10.24455  -3.18286  -3.17818  -1.93159  -1.92750
 Alpha  occ. eigenvalues --   -1.92705  -1.92576  -1.92287  -1.92109  -1.16274
 Alpha  occ. eigenvalues --   -1.15973  -1.12879  -1.11978  -1.09194  -1.08522
 Alpha  occ. eigenvalues --   -1.08129  -1.07073  -1.06452  -1.04613  -1.04203
 Alpha  occ. eigenvalues --   -1.03959  -1.03123  -1.02850  -1.02465  -1.01818
 Alpha  occ. eigenvalues --   -0.92520  -0.91596  -0.89752  -0.89287  -0.88862
 Alpha  occ. eigenvalues --   -0.88710  -0.88283  -0.88240  -0.87353  -0.87322
 Alpha  occ. eigenvalues --   -0.87156  -0.86900  -0.86650  -0.86077  -0.84322
 Alpha  occ. eigenvalues --   -0.83986  -0.83826  -0.83641  -0.82509  -0.82298
 Alpha  occ. eigenvalues --   -0.81980  -0.81851  -0.80937  -0.80822  -0.80384
 Alpha  occ. eigenvalues --   -0.80369  -0.78446  -0.78267  -0.77863  -0.77140
 Alpha  occ. eigenvalues --   -0.77082  -0.76831  -0.75996  -0.75837  -0.75514
 Alpha  occ. eigenvalues --   -0.74634  -0.72713  -0.72310  -0.72245  -0.71451
 Alpha  occ. eigenvalues --   -0.70508  -0.69797  -0.69336  -0.69258  -0.68186
 Alpha  occ. eigenvalues --   -0.68174  -0.67772  -0.66888  -0.66844  -0.65382
 Alpha  occ. eigenvalues --   -0.64901  -0.64874  -0.64483  -0.64287  -0.64121
 Alpha  occ. eigenvalues --   -0.63994  -0.62444  -0.61689  -0.60538  -0.60008
 Alpha  occ. eigenvalues --   -0.59645  -0.59534  -0.59206  -0.58824  -0.58786
 Alpha  occ. eigenvalues --   -0.58331  -0.57998  -0.57980  -0.57368  -0.57019
 Alpha  occ. eigenvalues --   -0.56715  -0.56232  -0.56131  -0.55862  -0.55693
 Alpha  occ. eigenvalues --   -0.55371  -0.55064  -0.55036  -0.54567  -0.54164
 Alpha  occ. eigenvalues --   -0.54042  -0.53704  -0.53613  -0.53326  -0.52969
 Alpha  occ. eigenvalues --   -0.52750  -0.52684  -0.52414  -0.52359  -0.51997
 Alpha  occ. eigenvalues --   -0.51723  -0.51711  -0.51255  -0.51205  -0.51177
 Alpha  occ. eigenvalues --   -0.50913  -0.50810  -0.50673  -0.50599  -0.50431
 Alpha  occ. eigenvalues --   -0.50279  -0.50235  -0.50015  -0.49940  -0.49712
 Alpha  occ. eigenvalues --   -0.49503  -0.49185  -0.49163  -0.48964  -0.48961
 Alpha  occ. eigenvalues --   -0.48752  -0.48646  -0.48579  -0.48360  -0.48321
 Alpha  occ. eigenvalues --   -0.47793  -0.47703  -0.47677  -0.47429  -0.47189
 Alpha  occ. eigenvalues --   -0.47120  -0.46945  -0.46835  -0.46747  -0.46307
 Alpha  occ. eigenvalues --   -0.46245  -0.46011  -0.45850  -0.45833  -0.45764
 Alpha  occ. eigenvalues --   -0.45536  -0.45410  -0.45399  -0.45126  -0.44689
 Alpha  occ. eigenvalues --   -0.44613  -0.44543  -0.44439  -0.44318  -0.44313
 Alpha  occ. eigenvalues --   -0.44231  -0.44071  -0.44005  -0.43699  -0.43625
 Alpha  occ. eigenvalues --   -0.43399  -0.43230  -0.43184  -0.42981  -0.42938
 Alpha  occ. eigenvalues --   -0.42912  -0.42628  -0.42592  -0.42324  -0.42209
 Alpha  occ. eigenvalues --   -0.42018  -0.41982  -0.41920  -0.41810  -0.41475
 Alpha  occ. eigenvalues --   -0.41444  -0.41184  -0.40857  -0.40785  -0.40578
 Alpha  occ. eigenvalues --   -0.40111  -0.40093  -0.39639  -0.39175  -0.38946
 Alpha  occ. eigenvalues --   -0.38645  -0.38306  -0.38100  -0.37889  -0.37730
 Alpha  occ. eigenvalues --   -0.37368  -0.36884  -0.36837  -0.36728  -0.36510
 Alpha  occ. eigenvalues --   -0.35893  -0.35700  -0.34987  -0.34607  -0.33618
 Alpha  occ. eigenvalues --   -0.33540  -0.33407  -0.33135  -0.31928  -0.31773
 Alpha  occ. eigenvalues --   -0.31400  -0.30821  -0.30618  -0.30592  -0.30073
 Alpha  occ. eigenvalues --   -0.29812  -0.29326  -0.28979  -0.24204  -0.23807
 Alpha  occ. eigenvalues --   -0.21183  -0.21037
 Alpha virt. eigenvalues --   -0.08819  -0.08625  -0.01820  -0.01607   0.00185
 Alpha virt. eigenvalues --    0.00332   0.01173   0.01644   0.02340   0.02532
 Alpha virt. eigenvalues --    0.04527   0.04602   0.05706   0.05783   0.05968

 Mulliken charges:
               1
     1  Mg  12.000342
     2  C    6.017682
     3  C    5.985286
     4  C    5.976309
     5  C    6.006421
     6  N    7.008288
     7  C    5.963439
     8  C    6.011154
     9  C    5.985041
    10  C    6.034393
    11  C    5.996636
    12  C    5.999199
    13  C    6.002122
    14  H    0.990742
    15  N    6.990099
    16  C    6.043854
    17  C    6.021683
    18  C    6.014031
    19  C    6.039254
    20  C    5.994435
    21  C    6.008112
    22  O    8.018591
    23  C    5.997771
    24  N    6.999049
    25  C    6.034586
    26  C    5.989933
    27  C    6.010878
    28  C    5.966272
    29  C    5.997006
    30  C    6.007510
    31  C    6.001238
    32  N    7.001540
    33  C    5.967457
    34  C    5.967041
    35  C    5.999893
    36  C    5.971446
    37  C    6.001376
    38  C    5.985018
    39  O    7.969757
    40  C    6.000900
    41  C    5.995718
    42  O    7.993165
    43  O    8.001260
    44  C    6.001332
    45  H    1.010330
    46  H    1.005854
    47  H    0.991018
    48  H    1.002901
    49  H    1.006126
    50  H    1.003935
    51  H    1.016346
    52  H    0.999617
    53  H    0.988315
    54  H    1.005412
    55  H    1.002296
    56  H    1.000522
    57  H    1.019303
    58  H    1.019238
    59  H    1.018841
    60  H    1.010793
    61  H    1.011353
    62  H    1.011355
    63  H    0.999169
    64  H    0.998788
    65  H    1.000766
    66  H    0.994305
    67  H    1.010104
    68  H    0.997171
    69  H    0.987103
    70  H    0.993798
    71  H    1.001773
    72  H    1.004089
    73  H    0.980265
    74  H    0.982665
    75  H    0.980486
    76  H    0.991374
    77  H    1.000219
    78  H    0.993315
    79  H    0.993798
    80  Mg  12.000012
    81  C    6.000688
    82  C    5.999766
    83  C    5.999514
    84  C    6.000086
    85  N    7.000286
    86  C    5.999214
    87  C    6.000148
    88  C    5.999767
    89  C    6.000569
    90  C    5.999991
    91  C    6.000012
    92  C    5.999968
    93  H    1.000035
    94  N    6.999823
    95  C    6.000748
    96  C    6.000334
    97  C    6.000300
    98  C    6.000632
    99  C    5.999819
   100  C    6.000273
   101  O    8.000437
   102  C    5.999899
   103  N    6.999995
   104  C    6.000588
   105  C    5.999758
   106  C    6.000062
   107  C    5.999535
   108  C    5.999993
   109  C    6.000108
   110  C    6.000157
   111  N    7.000051
   112  C    5.999410
   113  C    5.999314
   114  C    6.000056
   115  C    5.999249
   116  C    6.000112
   117  C    5.999718
   118  O    7.999482
   119  C    5.999915
   120  C    5.999937
   121  O    7.999935
   122  O    7.999970
   123  C    6.000028
   124  H    1.000188
   125  H    1.000105
   126  H    0.999758
   127  H    1.000040
   128  H    1.000103
   129  H    1.000218
   130  H    0.999951
   131  H    1.000076
   132  H    1.000031
   133  H    1.000068
   134  H    0.999887
   135  H    0.999956
   136  H    1.000362
   137  H    1.000415
   138  H    1.000394
   139  H    1.000186
   140  H    1.000262
   141  H    1.000078
   142  H    1.000033
   143  H    1.000019
   144  H    0.999881
   145  H    1.000161
   146  H    1.000025
   147  H    0.999778
   148  H    1.000011
   149  H    0.999818
   150  H    0.999836
   151  H    1.000107
   152  H    0.999554
   153  H    0.999720
   154  H    0.999586
   155  H    0.999881
   156  H    0.999903
   157  H    0.999951
   158  H    0.999965
 Sum of Mulliken charges = 624.00000

 Dipole moment (field-independent basis, Debye):
    X=              3.7088    Y=              3.7931    Z=              9.1220  Tot=             10.5524
 Quadrupole moment (field-independent basis, Debye-Ang):
   XX=            186.6845   YY=              1.8079   ZZ=              2.6030
   XY=            110.9423   XZ=            259.2419   YZ=              3.4378

 Normal termination of Gaussian 16 at Thu Sep 23 03:06:52 2021.
