 Gaussian 16, Revision A.03,
 Gaussian 16:  ES64L-G16RevA.03 25-Dec-2016

 -----------------------------------
 #p cam-b3lyp/Def2SVP td=(nstates=5)
 -----------------------------------

 --------------------------------
 TDDFT excited states in gaussian
 --------------------------------
 Symbolic Z-matrix:
 Charge =  0 Multiplicity = 1

                         Standard orientation:
 ---------------------------------------------------------------------
 Center     Atomic      Atomic             Coordinates (Angstroms)
 Number     Number       Type             X           Y           Z
 ---------------------------------------------------------------------
      1         12           0       18.368821   -0.131544    0.020781
      2          6           0       15.058366   -0.982119   -0.857734
      3          6           0       18.431411    2.129734   -2.634475
      4          6           0       21.063890    1.342089    1.497057
      5          6           0       17.877768   -2.112760    2.964165
      6          7           0       16.938530    0.444462   -1.539027
      7          6           0       15.671722    0.000928   -1.683238
      8          6           0       14.931726    0.774906   -2.822337
      9          6           0       16.176516    1.452246   -3.560183
     10          6           0       17.331260    1.321239   -2.514957
     11          6           0       16.715196    0.881560   -4.891669
     12          6           0       13.924514    1.797463   -2.172623
     13          6           0       12.602178    1.976778   -2.968832
     14          1           0       12.054965    3.459349   -3.059349
     15          7           0       19.742783    1.419016   -0.602896
     16          6           0       19.576145    2.156406   -1.745041
     17          6           0       20.693847    3.016868   -1.837496
     18          6           0       21.469005    2.899718   -0.645633
     19          6           0       20.810309    1.810870    0.150898
     20          6           0       20.957762    3.974083   -2.975712
     21          6           0       22.590483    3.783507   -0.217332
     22          8           0       22.915082    4.770630   -0.857620
     23          6           0       23.349172    3.621527    0.995508
     24          7           0       19.257171   -0.311159    2.047209
     25          6           0       20.485078    0.318063    2.300101
     26          6           0       21.074440   -0.175178    3.584492
     27          6           0       20.042708   -1.238070    4.115270
     28          6           0       18.996394   -1.243729    3.014169
     29          6           0       22.475421   -0.735611    3.308035
     30          6           0       19.616034   -1.014026    5.614869
     31          6           0       19.846378   -2.152348    6.562053
     32          7           0       16.803335   -1.372086    0.918044
     33          6           0       16.807477   -2.126506    2.065552
     34          6           0       15.589879   -2.963807    2.137087
     35          6           0       14.874784   -2.460313    1.018162
     36          6           0       15.672390   -1.593743    0.294561
     37          6           0       15.138241   -3.924931    3.225499
     38          6           0       13.577836   -2.487657    0.395788
     39          8           0       12.546014   -3.089576    0.731786
     40          6           0       13.599911   -1.583192   -0.836130
     41          6           0       13.207935   -2.323195   -2.050155
     42          8           0       12.285846   -2.010489   -2.712387
     43          8           0       14.117659   -3.265167   -2.434956
     44          6           0       13.799335   -3.779755   -3.784541
     45          1           0       18.515569    2.790253   -3.500505
     46          1           0       21.986272    1.793345    1.866040
     47          1           0       17.535742   -2.730293    3.797987
     48          1           0       14.404739    0.046144   -3.438450
     49          1           0       16.170318    2.541971   -3.577366
     50          1           0       16.480530   -0.180470   -4.971832
     51          1           0       17.779476    1.019072   -5.082981
     52          1           0       16.155778    1.390731   -5.675736
     53          1           0       14.405492    2.761716   -2.005933
     54          1           0       13.705755    1.376731   -1.191132
     55          1           0       11.897663    1.344133   -2.428621
     56          1           0       12.833924    1.504676   -3.923821
     57          1           0       21.991155    4.294730   -3.108186
     58          1           0       20.323218    4.827668   -2.738817
     59          1           0       20.504024    3.727725   -3.935696
     60          1           0       23.835243    2.647029    0.933626
     61          1           0       22.713111    3.723586    1.875244
     62          1           0       24.100433    4.410104    1.039565
     63          1           0       21.053308    0.608134    4.341793
     64          1           0       20.292445   -2.291720    3.988630
     65          1           0       22.871955   -0.444043    2.335184
     66          1           0       22.481823   -1.825591    3.310056
     67          1           0       23.199809   -0.234062    3.949073
     68          1           0       18.555005   -0.770197    5.561206
     69          1           0       20.189997   -0.242905    6.127419
     70          1           0       18.890461   -2.371183    7.037143
     71          1           0       20.533701   -1.881010    7.363558
     72          1           0       20.335057   -3.007677    6.095364
     73          1           0       14.653367   -3.418135    4.060106
     74          1           0       15.934504   -4.582463    3.576642
     75          1           0       14.339249   -4.456465    2.708748
     76          1           0       12.812768   -0.834725   -0.754572
     77          1           0       14.553735   -4.524156   -4.040525
     78          1           0       13.792648   -2.970096   -4.514141
     79          1           0       12.880251   -4.362288   -3.837932
     80         12           0      -18.118905    0.400872    0.448096
     81          6           0      -15.091816   -0.760151   -0.868493
     82          6           0      -19.399934   -2.762875    0.274092
     83          6           0      -21.047375    1.631890    1.369970
     84          6           0      -16.716770    3.688375    0.395493
     85          7           0      -17.315166   -1.532555   -0.278294
     86          6           0      -16.042620   -1.828840   -0.713653
     87          6           0      -15.841852   -3.331297   -0.786262
     88          6           0      -17.315816   -3.891391   -0.688255
     89          6           0      -18.031920   -2.628218   -0.099749
     90          6           0      -17.898819   -4.315095   -2.030381
     91          6           0      -14.765353   -3.780844    0.267746
     92          6           0      -14.649638   -5.323652    0.412915
     93          1           0      -14.964601   -6.147945   -0.818054
     94          7           0      -19.900060   -0.424411    0.781098
     95          6           0      -20.290328   -1.739081    0.559377
     96          6           0      -21.723241   -1.937489    0.839699
     97          6           0      -22.179673   -0.632387    1.200342
     98          6           0      -21.021920    0.253871    1.114850
     99          6           0      -22.388284   -3.261262    0.775902
    100          6           0      -23.590017   -0.257731    1.576545
    101          8           0      -23.898837    0.914879    1.927144
    102          6           0      -24.684763   -1.288684    1.628903
    103          7           0      -18.768865    2.398407    0.885145
    104          6           0      -20.039537    2.585719    1.242687
    105          6           0      -20.353398    4.140574    1.377006
    106          6           0      -18.923579    4.831744    1.012527
    107          6           0      -18.087293    3.582227    0.733141
    108          6           0      -21.533910    4.502523    0.385400
    109          6           0      -18.270138    5.657295    2.201910
    110          6           0      -18.728664    7.138328    2.330517
    111          7           0      -16.361015    1.332378   -0.154111
    112          6           0      -15.859919    2.654142   -0.019665
    113          6           0      -14.407443    2.700061   -0.492387
    114          6           0      -14.083495    1.410623   -0.902159
    115          6           0      -15.289669    0.599674   -0.596582
    116          6           0      -13.475975    3.871451   -0.481490
    117          6           0      -13.050814    0.537377   -1.408810
    118          8           0      -11.884896    0.747900   -1.757679
    119          6           0      -13.602708   -0.964201   -1.239051
    120          6           0      -13.402159   -1.804928   -2.479125
    121          8           0      -14.175401   -1.844089   -3.397733
    122          8           0      -12.326350   -2.706555   -2.315098
    123          6           0      -12.281848   -3.872212   -3.210634
    124          1           0      -19.674240   -3.807874    0.113110
    125          1           0      -22.020623    2.034378    1.659031
    126          1           0      -16.262522    4.671493    0.254824
    127          1           0      -15.419232   -3.556840   -1.764528
    128          1           0      -17.465419   -4.700838    0.026979
    129          1           0      -18.189411   -5.358277   -1.907089
    130          1           0      -17.162957   -4.106920   -2.806746
    131          1           0      -18.870531   -3.863958   -2.229840
    132          1           0      -15.005695   -3.129108    1.107155
    133          1           0      -13.819331   -3.391623   -0.107119
    134          1           0      -15.341006   -5.545046    1.226042
    135          1           0      -13.627317   -5.557371    0.709784
    136          1           0      -23.099422   -3.124820   -0.038636
    137          1           0      -22.845918   -3.559148    1.718888
    138          1           0      -21.809530   -4.139128    0.485838
    139          1           0      -24.448128   -2.015554    2.404714
    140          1           0      -24.618564   -1.641206    0.598855
    141          1           0      -25.698995   -0.913372    1.762353
    142          1           0      -20.583089    4.193020    2.441952
    143          1           0      -18.833605    5.321535    0.042003
    144          1           0      -21.895515    3.665892   -0.212176
    145          1           0      -21.205268    5.269851   -0.316043
    146          1           0      -22.370214    4.786861    1.023347
    147          1           0      -17.190934    5.518049    2.258612
    148          1           0      -18.618772    5.177346    3.115777
    149          1           0      -19.105064    7.260770    3.345496
    150          1           0      -19.450111    7.346252    1.540232
    151          1           0      -17.899788    7.835615    2.206328
    152          1           0      -12.764726    3.683995    0.323220
    153          1           0      -14.033501    4.795750   -0.325279
    154          1           0      -12.853773    4.035093   -1.361122
    155          1           0      -13.072417   -1.382632   -0.384084
    156          1           0      -11.890322   -3.484212   -4.150611
    157          1           0      -13.248834   -4.374795   -3.239892
    158          1           0      -11.602006   -4.584902   -2.744510
 ---------------------------------------------------------------------

 SCF Done:  E(RCAM-B3LYP) =  -4069.79834249     A.U. after   19 cycles

 Excitation energies and oscillator strengths:

 Excited State   1:      Singlet-A      1.6805 eV  737.80 nm  f=0.4236  <S**2>=0.000
     309 -> 315        0.17283
     311 -> 313        0.68688
     309 <- 315        0.10654
 This state for optimization and/or second-order correction.
 Total Energy, E(TD-HF/TD-DFT) =  -4069.73658704
 Copying the excited state density for this state as the 1-particle RhoCI density.

 Excited State   2:      Singlet-A      1.7141 eV  723.32 nm  f=0.3714  <S**2>=0.000
     310 -> 316        0.19943
     312 -> 314        0.68024
     310 <- 316        0.11162

 Excited State   3:      Singlet-A      2.2016 eV  563.16 nm  f=0.1138  <S**2>=0.000
     309 -> 313        0.64204
     311 -> 315       -0.28112

 Excited State   4:      Singlet-A      2.2903 eV  541.35 nm  f=0.0345  <S**2>=0.000
     310 -> 314        0.58796
     312 -> 316       -0.38619

 Excited State   5:      Singlet-A      2.7294 eV  454.26 nm  f=0.0000  <S**2>=0.000
     312 -> 313        0.70710

 The electronic state is 1-A.
 Alpha  occ. eigenvalues --  -46.90827 -46.88016 -19.25098 -19.23909 -19.20236
 Alpha  occ. eigenvalues --  -19.19901 -19.19121 -19.18832 -19.18342 -19.17313
 Alpha  occ. eigenvalues --  -14.42966 -14.42692 -14.42095 -14.41505 -14.39897
 Alpha  occ. eigenvalues --  -14.39896 -14.39823 -14.39290 -10.39356 -10.38715
 Alpha  occ. eigenvalues --  -10.35472 -10.35197 -10.34760 -10.33497 -10.32232
 Alpha  occ. eigenvalues --  -10.31976 -10.31851 -10.31807 -10.31689 -10.31054
 Alpha  occ. eigenvalues --  -10.30977 -10.30860 -10.30702 -10.30557 -10.30312
 Alpha  occ. eigenvalues --  -10.30300 -10.30260 -10.30174 -10.30058 -10.29848
 Alpha  occ. eigenvalues --  -10.29559 -10.29421 -10.29298 -10.29172 -10.29073
 Alpha  occ. eigenvalues --  -10.29049 -10.29017 -10.28898 -10.28747 -10.28491
 Alpha  occ. eigenvalues --  -10.28480 -10.28454 -10.28418 -10.28247 -10.28161
 Alpha  occ. eigenvalues --  -10.28140 -10.28135 -10.28083 -10.27739 -10.27680
 Alpha  occ. eigenvalues --  -10.27651 -10.27562 -10.27530 -10.27522 -10.27470
 Alpha  occ. eigenvalues --  -10.27101 -10.27032 -10.26963 -10.26849 -10.26789
 Alpha  occ. eigenvalues --  -10.26651 -10.26565 -10.26512 -10.26391 -10.26389
 Alpha  occ. eigenvalues --  -10.26378 -10.26160 -10.25929 -10.25746 -10.25710
 Alpha  occ. eigenvalues --  -10.25520 -10.25440 -10.25350 -10.25283 -10.25250
 Alpha  occ. eigenvalues --  -10.25097  -3.18974  -3.16698  -1.93888  -1.93410
 Alpha  occ. eigenvalues --   -1.93270  -1.91603  -1.91139  -1.91029  -1.17957
 Alpha  occ. eigenvalues --   -1.15410  -1.09545  -1.09053  -1.09025  -1.08943
 Alpha  occ. eigenvalues --   -1.07757  -1.07709  -1.05105  -1.04273  -1.03739
 Alpha  occ. eigenvalues --   -1.03427  -1.03413  -1.02744  -1.02526  -1.01320
 Alpha  occ. eigenvalues --   -0.92618  -0.91548  -0.89418  -0.89011  -0.88860
 Alpha  occ. eigenvalues --   -0.88519  -0.88224  -0.88049  -0.87776  -0.87509
 Alpha  occ. eigenvalues --   -0.87006  -0.86672  -0.86267  -0.85815  -0.84874
 Alpha  occ. eigenvalues --   -0.84647  -0.84191  -0.82883  -0.82702  -0.82506
 Alpha  occ. eigenvalues --   -0.82141  -0.81877  -0.80918  -0.80697  -0.80541
 Alpha  occ. eigenvalues --   -0.79944  -0.78910  -0.78652  -0.77603  -0.77364
 Alpha  occ. eigenvalues --   -0.76918  -0.76860  -0.76484  -0.75702  -0.75423
 Alpha  occ. eigenvalues --   -0.74490  -0.73137  -0.72511  -0.72011  -0.71415
 Alpha  occ. eigenvalues --   -0.69366  -0.69354  -0.69258  -0.68564  -0.68219
 Alpha  occ. eigenvalues --   -0.67947  -0.67011  -0.66887  -0.66345  -0.65701
 Alpha  occ. eigenvalues --   -0.65459  -0.65072  -0.64987  -0.64641  -0.63886
 Alpha  occ. eigenvalues --   -0.63707  -0.63295  -0.61203  -0.60584  -0.60072
 Alpha  occ. eigenvalues --   -0.60015  -0.59437  -0.58983  -0.58881  -0.58639
 Alpha  occ. eigenvalues --   -0.58299  -0.57733  -0.57455  -0.57069  -0.56719
 Alpha  occ. eigenvalues --   -0.56500  -0.56096  -0.56071  -0.55885  -0.55548
 Alpha  occ. eigenvalues --   -0.55127  -0.54544  -0.54467  -0.54179  -0.53896
 Alpha  occ. eigenvalues --   -0.53629  -0.53495  -0.53375  -0.53192  -0.53182
 Alpha  occ. eigenvalues --   -0.52813  -0.52650  -0.52457  -0.52257  -0.52154
 Alpha  occ. eigenvalues --   -0.51844  -0.51744  -0.51695  -0.51463  -0.51382
 Alpha  occ. eigenvalues --   -0.51321  -0.51097  -0.50884  -0.50778  -0.50425
 Alpha  occ. eigenvalues --   -0.50039  -0.50012  -0.49852  -0.49554  -0.49476
 Alpha  occ. eigenvalues --   -0.49367  -0.49262  -0.49261  -0.49028  -0.48950
 Alpha  occ. eigenvalues --   -0.48829  -0.48611  -0.48447  -0.48390  -0.48192
 Alpha  occ. eigenvalues --   -0.48051  -0.47998  -0.47516  -0.47332  -0.47323
 Alpha  occ. eigenvalues --   -0.46954  -0.46820  -0.46787  -0.46676  -0.46342
 Alpha  occ. eigenvalues --   -0.46320  -0.46122  -0.46020  -0.45751  -0.45673
 Alpha  occ. eigenvalues --   -0.45539  -0.45145  -0.45129  -0.45101  -0.45080
 Alpha  occ. eigenvalues --   -0.44844  -0.44802  -0.44676  -0.44589  -0.44340
 Alpha  occ. eigenvalues --   -0.44119  -0.44006  -0.43935  -0.43586  -0.43409
 Alpha  occ. eigenvalues --   -0.43319  -0.43067  -0.43014  -0.42995  -0.42868
 Alpha  occ. eigenvalues --   -0.42835  -0.42639  -0.42492  -0.42289  -0.42285
 Alpha  occ. eigenvalues --   -0.42042  -0.41768  -0.41452  -0.41272  -0.41225
 Alpha  occ. eigenvalues --   -0.41019  -0.40854  -0.40783  -0.40278  -0.40130
 Alpha  occ. eigenvalues --   -0.40129  -0.39619  -0.39221  -0.39164  -0.39021
 Alpha  occ. eigenvalues --   -0.38667  -0.38437  -0.38168  -0.37929  -0.37882
 Alpha  occ. eigenvalues --   -0.37623  -0.37226  -0.36875  -0.36594  -0.36393
 Alpha  occ. eigenvalues --   -0.36207  -0.35834  -0.34907  -0.34470  -0.34124
 Alpha  occ. eigenvalues --   -0.34088  -0.33483  -0.33118  -0.31483  -0.31254
 Alpha  occ. eigenvalues --   -0.30962  -0.30873  -0.30461  -0.30428  -0.30381
 Alpha  occ. eigenvalues --   -0.30001  -0.29972  -0.29191  -0.24499  -0.23927
 Alpha  occ. eigenvalues --   -0.21565  -0.20370
 Alpha virt. eigenvalues --   -0.09374  -0.07829  -0.02244  -0.02081  -0.00152
 Alpha virt. eigenvalues --    0.00297   0.01221   0.02227   0.02438   0.03319
 Alpha virt. eigenvalues --    0.04556   0.04709   0.05019   0.05459   0.05936

 Mulliken charges:
               1
     1  Mg   0.801146
     2  C    0.004455
     3  C   -0.071533
     4  C   -0.019782
     5  C   -0.048284
     6  N   -0.286881
     7  C   -0.055427
     8  C   -0.042438
     9  C   -0.052328
    10  C    0.058050
    11  C    0.080532
    12  C    0.048730
    13  C   -0.050700
    14  H    0.026377
    15  N   -0.365236
    16  C    0.114125
    17  C   -0.149643
    18  C   -0.022463
    19  C    0.090957
    20  C    0.140517
    21  C   -0.050243
    22  O   -0.214577
    23  C    0.079042
    24  N   -0.287380
    25  C    0.025707
    26  C   -0.009786
    27  C   -0.012925
    28  C    0.028447
    29  C    0.074447
    30  C    0.039555
    31  C   -0.004076
    32  N   -0.281387
    33  C    0.026179
    34  C   -0.155039
    35  C    0.014949
    36  C    0.076300
    37  C    0.107439
    38  C    0.020288
    39  O   -0.190011
    40  C    0.052729
    41  C    0.149202
    42  O   -0.180027
    43  O   -0.336530
    44  C    0.181929
    45  H   -0.017959
    46  H   -0.053381
    47  H   -0.027287
    48  H    0.012551
    49  H    0.009903
    50  H    0.010226
    51  H    0.025025
    52  H    0.017272
    53  H    0.017866
    54  H    0.012946
    55  H    0.042945
    56  H    0.031784
    57  H    0.047150
    58  H    0.015852
    59  H   -0.004950
    60  H    0.029949
    61  H    0.043489
    62  H    0.024734
    63  H    0.021274
    64  H    0.015130
    65  H    0.014936
    66  H    0.018876
    67  H    0.014569
    68  H    0.017004
    69  H    0.015923
    70  H    0.020655
    71  H    0.008604
    72  H    0.012686
    73  H    0.041380
    74  H    0.029789
    75  H    0.041882
    76  H    0.031537
    77  H    0.027424
    78  H    0.036003
    79  H    0.039809
    80  Mg   0.842065
    81  C   -0.020550
    82  C   -0.090107
    83  C   -0.079651
    84  C   -0.078346
    85  N   -0.250690
    86  C   -0.044684
    87  C   -0.013002
    88  C   -0.082123
    89  C   -0.014523
    90  C    0.091572
    91  C    0.015912
    92  C   -0.044478
    93  H    0.032137
    94  N   -0.411417
    95  C    0.200941
    96  C   -0.144051
    97  C   -0.033995
    98  C    0.153101
    99  C    0.122208
   100  C   -0.007246
   101  O   -0.241987
   102  C    0.080590
   103  N   -0.275388
   104  C    0.019534
   105  C   -0.035732
   106  C    0.002832
   107  C    0.012044
   108  C    0.060839
   109  C    0.002628
   110  C    0.023780
   111  N   -0.368255
   112  C    0.111854
   113  C   -0.177346
   114  C    0.032759
   115  C    0.112082
   116  C    0.110951
   117  C    0.072057
   118  O   -0.179227
   119  C   -0.071628
   120  C    0.225356
   121  O   -0.190735
   122  O   -0.375567
   123  C    0.183806
   124  H   -0.034897
   125  H   -0.005950
   126  H   -0.023956
   127  H    0.008565
   128  H    0.003657
   129  H    0.006404
   130  H    0.036727
   131  H    0.014594
   132  H    0.016669
   133  H    0.015131
   134  H    0.036626
   135  H    0.036022
   136  H    0.032110
   137  H    0.035637
   138  H    0.012007
   139  H    0.044567
   140  H    0.019917
   141  H    0.028026
   142  H    0.024660
   143  H    0.018526
   144  H    0.031714
   145  H    0.016230
   146  H    0.027614
   147  H    0.011404
   148  H   -0.004953
   149  H    0.019937
   150  H    0.018601
   151  H    0.014676
   152  H    0.037979
   153  H    0.005593
   154  H    0.037546
   155  H    0.063095
   156  H    0.049932
   157  H    0.033195
   158  H    0.034076
 Sum of Mulliken charges =  -0.00000

 Dipole moment (field-independent basis, Debye):
    X=              1.8642    Y=             -5.7323    Z=              3.7020  Tot=              7.0738
 Quadrupole moment (field-independent basis, Debye-Ang):
   XX=           -360.1995   YY=           -489.5743   ZZ=           -490.1830
   XY=             -4.5638   XZ=             22.4999   YZ=              7.1943

 Normal termination of Gaussian 16 at Wed Sep  1 02:07:16 2021.
