 Gaussian 16, Revision A.03,
 Gaussian 16:  ES64L-G16RevA.03 25-Dec-2016

 -----------------------------------
 #p cam-b3lyp/Def2SVP td=(nstates=5)
 -----------------------------------

 --------------------------------
 TDDFT excited states in gaussian
 --------------------------------
 Symbolic Z-matrix:
 Charge =  0 Multiplicity = 1

                         Standard orientation:
 ---------------------------------------------------------------------
 Center     Atomic      Atomic             Coordinates (Angstroms)
 Number     Number       Type             X           Y           Z
 ---------------------------------------------------------------------
      1         12           0       23.712799    0.698070   -0.137982
      2          6           0       22.683716   -2.582814   -1.027363
      3          6           0       23.735385   -0.477530    3.198104
      4          6           0       24.307092    3.746014    0.862614
      5          6           0       23.326412    1.661499   -3.457485
      6          7           0       23.242403   -1.342297    0.984150
      7          6           0       22.948273   -2.515848    0.334258
      8          6           0       22.894231   -3.716747    1.263369
      9          6           0       23.114127   -2.965483    2.645936
     10          6           0       23.423068   -1.508122    2.269999
     11          6           0       21.945778   -3.214182    3.595316
     12          6           0       24.016045   -4.722521    0.923546
     13          6           0       23.718118   -6.263082    1.073322
     14          1           0       22.538080   -6.692503    1.976604
     15          7           0       24.063685    1.523716    1.764377
     16          6           0       23.945189    0.885622    2.999408
     17          6           0       24.260235    1.865526    4.051001
     18          6           0       24.528797    3.091776    3.359709
     19          6           0       24.337547    2.776576    1.931041
     20          6           0       24.192149    1.566909    5.452672
     21          6           0       24.908809    4.448281    3.944723
     22          8           0       25.015568    5.450343    3.220000
     23          6           0       25.330921    4.571132    5.356121
     24          7           0       23.702344    2.478758   -1.142158
     25          6           0       24.082060    3.597168   -0.518564
     26          6           0       24.038823    4.823268   -1.487422
     27          6           0       23.919856    4.116264   -2.874839
     28          6           0       23.617045    2.694022   -2.520949
     29          6           0       22.922636    5.876062   -1.149470
     30          6           0       25.347116    4.252055   -3.530356
     31          6           0       26.407295    3.109724   -3.361624
     32          7           0       23.234885   -0.236236   -1.916234
     33          6           0       23.104198    0.313372   -3.204472
     34          6           0       22.642200   -0.757916   -4.121682
     35          6           0       22.423342   -1.851654   -3.292310
     36          6           0       22.801460   -1.561688   -1.998423
     37          6           0       22.227418   -0.435757   -5.476153
     38          6           0       21.841603   -3.191518   -3.312015
     39          8           0       21.337404   -3.779958   -4.261869
     40          6           0       21.958727   -3.736552   -1.811668
     41          6           0       20.627550   -4.096994   -1.265978
     42          8           0       19.899174   -3.372282   -0.594129
     43          8           0       20.329627   -5.425133   -1.625100
     44          6           0       19.065705   -6.035998   -1.280620
     45          1           0       24.005319   -0.805371    4.204535
     46          1           0       24.521376    4.784114    1.126509
     47          1           0       23.284604    2.072666   -4.467961
     48          1           0       21.932657   -4.229714    1.231598
     49          1           0       23.940624   -3.480510    3.134815
     50          1           0       22.221443   -3.626032    4.565501
     51          1           0       21.145268   -3.849560    3.216320
     52          1           0       21.537032   -2.233325    3.841720
     53          1           0       24.912176   -4.515577    1.508422
     54          1           0       24.219334   -4.445614   -0.111491
     55          1           0       24.561234   -6.766968    1.544744
     56          1           0       23.764708   -6.658664    0.058717
     57          1           0       25.151282    1.868242    5.874313
     58          1           0       23.799330    0.564394    5.619489
     59          1           0       23.354906    2.203063    5.741513
     60          1           0       24.510242    4.469084    6.066815
     61          1           0       25.743788    5.565693    5.523832
     62          1           0       25.979486    3.724704    5.580158
     63          1           0       25.017652    5.239058   -1.248326
     64          1           0       23.200801    4.615296   -3.524964
     65          1           0       23.344293    6.690285   -0.559961
     66          1           0       22.107357    5.326236   -0.680353
     67          1           0       22.574542    6.257562   -2.109215
     68          1           0       25.733576    5.254209   -3.343697
     69          1           0       25.141496    4.093562   -4.589405
     70          1           0       27.326762    3.653533   -3.146887
     71          1           0       26.561982    2.532533   -4.274141
     72          1           0       26.243985    2.420948   -2.533465
     73          1           0       21.552962    0.418683   -5.437187
     74          1           0       21.663966   -1.296337   -5.838166
     75          1           0       23.084855   -0.386022   -6.146745
     76          1           0       22.558113   -4.640717   -1.922501
     77          1           0       18.330600   -5.991949   -2.083856
     78          1           0       18.747973   -5.753576   -0.276820
     79          1           0       19.384510   -7.061739   -1.093173
     80         12           0      -23.624345    0.729655   -0.040565
     81          6           0      -21.628020   -2.049713    1.099443
     82          6           0      -25.868579   -1.642080   -1.319475
     83          6           0      -25.515820    3.242949   -0.981613
     84          6           0      -21.112951    2.913552    1.029305
     85          7           0      -23.670571   -1.630822   -0.094499
     86          6           0      -22.892100   -2.502720    0.599063
     87          6           0      -23.495757   -3.897144    0.639390
     88          6           0      -24.702663   -3.834136   -0.453559
     89          6           0      -24.745994   -2.292877   -0.663273
     90          6           0      -24.485435   -4.700791   -1.719227
     91          6           0      -23.973413   -4.308221    2.073071
     92          6           0      -23.332658   -5.618642    2.599286
     93          1           0      -24.408668   -6.827318    2.839703
     94          7           0      -25.388581    0.788026   -0.980411
     95          6           0      -26.209675   -0.273889   -1.490604
     96          6           0      -27.458896    0.202899   -2.129855
     97          6           0      -27.345011    1.621522   -1.959395
     98          6           0      -26.067632    1.925339   -1.292776
     99          6           0      -28.508426   -0.696425   -2.786115
    100          6           0      -28.258772    2.682988   -2.441642
    101          8           0      -28.248078    3.854148   -2.078288
    102          6           0      -29.413343    2.270173   -3.375590
    103          7           0      -23.415126    2.741636    0.178986
    104          6           0      -24.329167    3.602182   -0.324522
    105          6           0      -23.850567    5.027369   -0.334971
    106          6           0      -22.460790    4.970569    0.345693
    107          6           0      -22.309259    3.454096    0.601478
    108          6           0      -23.890343    5.699718   -1.691253
    109          6           0      -22.473127    5.807655    1.756438
    110          6           0      -21.322138    6.943175    1.911641
    111          7           0      -21.622050    0.506723    0.639356
    112          6           0      -20.764256    1.530410    1.108931
    113          6           0      -19.578100    0.887639    1.686011
    114          6           0      -19.969526   -0.471570    1.808557
    115          6           0      -21.134747   -0.661806    1.064216
    116          6           0      -18.254208    1.498217    2.135833
    117          6           0      -19.410770   -1.802869    2.177618
    118          8           0      -18.316546   -2.219608    2.649263
    119          6           0      -20.552928   -2.833330    1.827596
    120          6           0      -19.965844   -3.922900    0.979652
    121          8           0      -19.219668   -3.735943    0.060600
    122          8           0      -20.317686   -5.140637    1.492260
    123          6           0      -19.510647   -6.250574    0.925443
    124          1           0      -26.461580   -2.413908   -1.814122
    125          1           0      -26.096469    4.121169   -1.272513
    126          1           0      -20.332025    3.577481    1.405245
    127          1           0      -22.728330   -4.566820    0.251116
    128          1           0      -25.669492   -4.097157   -0.023579
    129          1           0      -24.383689   -4.074528   -2.606021
    130          1           0      -25.314069   -5.397874   -1.850506
    131          1           0      -23.639695   -5.387662   -1.686222
    132          1           0      -25.052314   -4.460981    2.110637
    133          1           0      -23.729268   -3.544812    2.812267
    134          1           0      -22.950406   -5.529736    3.616517
    135          1           0      -22.474612   -5.976955    2.031410
    136          1           0      -28.487507   -1.755095   -2.525580
    137          1           0      -28.565076   -0.635713   -3.872902
    138          1           0      -29.464470   -0.314943   -2.426156
    139          1           0      -29.020729    1.844703   -4.299091
    140          1           0      -30.096391    3.095199   -3.580579
    141          1           0      -29.997908    1.506073   -2.863234
    142          1           0      -24.562936    5.623538    0.236906
    143          1           0      -21.674985    5.305896   -0.330547
    144          1           0      -24.680733    6.445046   -1.784117
    145          1           0      -24.108156    5.037857   -2.529386
    146          1           0      -22.911496    6.144238   -1.872333
    147          1           0      -22.382140    5.181716    2.643546
    148          1           0      -23.407359    6.346147    1.913414
    149          1           0      -21.007552    7.177209    0.894413
    150          1           0      -20.483711    6.591999    2.514561
    151          1           0      -21.738459    7.884245    2.270087
    152          1           0      -17.813978    0.956024    2.972461
    153          1           0      -18.478415    2.474828    2.566436
    154          1           0      -17.699379    1.610377    1.204226
    155          1           0      -20.817623   -3.307438    2.772380
    156          1           0      -19.593195   -6.189711   -0.159552
    157          1           0      -20.059073   -7.141571    1.230752
    158          1           0      -18.443351   -6.297671    1.141515
 ---------------------------------------------------------------------

 SCF Done:  E(RCAM-B3LYP) =  -4069.80138864     A.U. after   17 cycles

 Excitation energies and oscillator strengths:

 Excited State   1:      Singlet-A      1.6722 eV  741.46 nm  f=0.3720  <S**2>=0.000
     309 -> 315        0.18802
     311 -> 313        0.68427
     309 <- 315        0.11183
 This state for optimization and/or second-order correction.
 Total Energy, E(TD-HF/TD-DFT) =  -4069.73993807
 Copying the excited state density for this state as the 1-particle RhoCI density.

 Excited State   2:      Singlet-A      1.7491 eV  708.83 nm  f=0.3735  <S**2>=0.000
     310 -> 316        0.18984
     312 -> 314        0.68132
     310 <- 316        0.10804

 Excited State   3:      Singlet-A      2.1741 eV  570.29 nm  f=0.1338  <S**2>=0.000
     309 -> 313        0.64729
     311 -> 315       -0.27760

 Excited State   4:      Singlet-A      2.2729 eV  545.50 nm  f=0.0723  <S**2>=0.000
     310 -> 314        0.62313
     312 -> 316       -0.32196

 Excited State   5:      Singlet-A      3.0073 eV  412.28 nm  f=0.0000  <S**2>=0.000
     312 -> 313        0.70710

 The electronic state is 1-A.
 Alpha  occ. eigenvalues --  -46.88520 -46.88477 -19.25634 -19.23950 -19.19852
 Alpha  occ. eigenvalues --  -19.19733 -19.19290 -19.18942 -19.18709 -19.18673
 Alpha  occ. eigenvalues --  -14.42596 -14.42096 -14.41924 -14.41256 -14.40705
 Alpha  occ. eigenvalues --  -14.39656 -14.39239 -14.38890 -10.39452 -10.38807
 Alpha  occ. eigenvalues --  -10.35346 -10.35258 -10.35130 -10.35113 -10.31913
 Alpha  occ. eigenvalues --  -10.31817 -10.31566 -10.31477 -10.31278 -10.31153
 Alpha  occ. eigenvalues --  -10.30980 -10.30856 -10.30788 -10.30741 -10.30657
 Alpha  occ. eigenvalues --  -10.30423 -10.30360 -10.30287 -10.30187 -10.29968
 Alpha  occ. eigenvalues --  -10.29206 -10.29159 -10.29088 -10.29029 -10.29000
 Alpha  occ. eigenvalues --  -10.28983 -10.28896 -10.28842 -10.28618 -10.28520
 Alpha  occ. eigenvalues --  -10.28440 -10.28228 -10.28207 -10.28072 -10.28012
 Alpha  occ. eigenvalues --  -10.27950 -10.27819 -10.27554 -10.27527 -10.27417
 Alpha  occ. eigenvalues --  -10.27364 -10.27318 -10.27253 -10.27229 -10.27211
 Alpha  occ. eigenvalues --  -10.27133 -10.27113 -10.27014 -10.26782 -10.26746
 Alpha  occ. eigenvalues --  -10.26583 -10.26479 -10.26402 -10.26344 -10.26114
 Alpha  occ. eigenvalues --  -10.26099 -10.26045 -10.25903 -10.25724 -10.25480
 Alpha  occ. eigenvalues --  -10.25309 -10.25282 -10.25253 -10.25177 -10.25066
 Alpha  occ. eigenvalues --  -10.24668  -3.17163  -3.17020  -1.92060  -1.91927
 Alpha  occ. eigenvalues --   -1.91618  -1.91488  -1.91484  -1.91308  -1.16950
 Alpha  occ. eigenvalues --   -1.14624  -1.09958  -1.09629  -1.09176  -1.08673
 Alpha  occ. eigenvalues --   -1.07215  -1.07053  -1.04730  -1.04012  -1.03988
 Alpha  occ. eigenvalues --   -1.03256  -1.03064  -1.02572  -1.02004  -1.01345
 Alpha  occ. eigenvalues --   -0.91950  -0.91564  -0.89853  -0.88631  -0.88629
 Alpha  occ. eigenvalues --   -0.88486  -0.88357  -0.88117  -0.87402  -0.87304
 Alpha  occ. eigenvalues --   -0.86983  -0.86706  -0.86154  -0.85624  -0.84102
 Alpha  occ. eigenvalues --   -0.84011  -0.83269  -0.83159  -0.82614  -0.81963
 Alpha  occ. eigenvalues --   -0.81805  -0.81383  -0.80802  -0.80664  -0.80409
 Alpha  occ. eigenvalues --   -0.79749  -0.79085  -0.78915  -0.77087  -0.77075
 Alpha  occ. eigenvalues --   -0.76824  -0.76774  -0.76024  -0.75755  -0.75215
 Alpha  occ. eigenvalues --   -0.74749  -0.72545  -0.72096  -0.71408  -0.71271
 Alpha  occ. eigenvalues --   -0.69206  -0.69165  -0.68879  -0.68736  -0.67808
 Alpha  occ. eigenvalues --   -0.67583  -0.67079  -0.66675  -0.65909  -0.65623
 Alpha  occ. eigenvalues --   -0.64971  -0.64648  -0.64428  -0.64375  -0.64152
 Alpha  occ. eigenvalues --   -0.63985  -0.62355  -0.61500  -0.60790  -0.60298
 Alpha  occ. eigenvalues --   -0.59331  -0.59251  -0.59011  -0.58726  -0.58336
 Alpha  occ. eigenvalues --   -0.58029  -0.57946  -0.57841  -0.57133  -0.57127
 Alpha  occ. eigenvalues --   -0.56245  -0.56127  -0.55458  -0.55296  -0.55265
 Alpha  occ. eigenvalues --   -0.55051  -0.54486  -0.54245  -0.53924  -0.53816
 Alpha  occ. eigenvalues --   -0.53767  -0.53383  -0.53291  -0.53119  -0.52733
 Alpha  occ. eigenvalues --   -0.52656  -0.52551  -0.52295  -0.52144  -0.51776
 Alpha  occ. eigenvalues --   -0.51643  -0.51465  -0.51440  -0.51364  -0.51272
 Alpha  occ. eigenvalues --   -0.50837  -0.50730  -0.50574  -0.50449  -0.50053
 Alpha  occ. eigenvalues --   -0.49957  -0.49871  -0.49791  -0.49750  -0.49525
 Alpha  occ. eigenvalues --   -0.49417  -0.49199  -0.48992  -0.48873  -0.48773
 Alpha  occ. eigenvalues --   -0.48490  -0.48352  -0.48233  -0.48103  -0.48046
 Alpha  occ. eigenvalues --   -0.47995  -0.47560  -0.47553  -0.47456  -0.47327
 Alpha  occ. eigenvalues --   -0.47035  -0.46915  -0.46830  -0.46644  -0.46556
 Alpha  occ. eigenvalues --   -0.46190  -0.46070  -0.45959  -0.45934  -0.45562
 Alpha  occ. eigenvalues --   -0.45358  -0.44983  -0.44975  -0.44802  -0.44763
 Alpha  occ. eigenvalues --   -0.44580  -0.44364  -0.44219  -0.44199  -0.44087
 Alpha  occ. eigenvalues --   -0.44014  -0.43896  -0.43871  -0.43776  -0.43630
 Alpha  occ. eigenvalues --   -0.43384  -0.43307  -0.43281  -0.42922  -0.42850
 Alpha  occ. eigenvalues --   -0.42597  -0.42519  -0.42205  -0.42024  -0.41916
 Alpha  occ. eigenvalues --   -0.41660  -0.41532  -0.41300  -0.41269  -0.40987
 Alpha  occ. eigenvalues --   -0.40782  -0.40684  -0.40627  -0.40423  -0.40310
 Alpha  occ. eigenvalues --   -0.40167  -0.39820  -0.39367  -0.39336  -0.38588
 Alpha  occ. eigenvalues --   -0.38543  -0.38221  -0.37714  -0.37478  -0.37389
 Alpha  occ. eigenvalues --   -0.37328  -0.37077  -0.36601  -0.36368  -0.36084
 Alpha  occ. eigenvalues --   -0.35648  -0.35491  -0.34628  -0.34409  -0.34140
 Alpha  occ. eigenvalues --   -0.34001  -0.33260  -0.33007  -0.31622  -0.31162
 Alpha  occ. eigenvalues --   -0.30981  -0.30926  -0.30788  -0.30584  -0.30260
 Alpha  occ. eigenvalues --   -0.30120  -0.29372  -0.29308  -0.23895  -0.23845
 Alpha  occ. eigenvalues --   -0.21294  -0.20748
 Alpha virt. eigenvalues --   -0.08969  -0.08109  -0.01823  -0.01671   0.00142
 Alpha virt. eigenvalues --    0.00272   0.02068   0.02219   0.03363   0.03567
 Alpha virt. eigenvalues --    0.04238   0.04865   0.05124   0.05227   0.05710

 Mulliken charges:
               1
     1  Mg   0.821064
     2  C    0.030463
     3  C   -0.107803
     4  C   -0.061729
     5  C   -0.079817
     6  N   -0.200715
     7  C   -0.088583
     8  C   -0.039382
     9  C   -0.030685
    10  C    0.038594
    11  C    0.062987
    12  C    0.035490
    13  C   -0.045785
    14  H    0.028006
    15  N   -0.333893
    16  C    0.142468
    17  C   -0.171137
    18  C   -0.048886
    19  C    0.118347
    20  C    0.141185
    21  C    0.013196
    22  O   -0.220273
    23  C    0.057276
    24  N   -0.336862
    25  C    0.016406
    26  C   -0.060074
    27  C    0.004170
    28  C    0.025612
    29  C    0.091680
    30  C   -0.015108
    31  C    0.015179
    32  N   -0.395348
    33  C    0.152189
    34  C   -0.185236
    35  C    0.030586
    36  C    0.122634
    37  C    0.129682
    38  C    0.041183
    39  O   -0.160942
    40  C   -0.039291
    41  C    0.232543
    42  O   -0.216937
    43  O   -0.361715
    44  C    0.186980
    45  H   -0.014576
    46  H   -0.010704
    47  H   -0.032476
    48  H    0.024595
    49  H    0.002099
    50  H    0.003005
    51  H    0.024030
    52  H    0.005997
    53  H    0.006700
    54  H    0.011610
    55  H    0.020908
    56  H    0.030072
    57  H    0.040042
    58  H    0.014440
    59  H    0.038074
    60  H    0.028256
    61  H    0.036986
    62  H    0.029771
    63  H    0.014450
    64  H    0.008526
    65  H    0.034307
    66  H    0.027527
    67  H    0.007521
    68  H    0.020636
    69  H    0.002238
    70  H    0.010436
    71  H    0.021407
    72  H    0.027526
    73  H    0.036519
    74  H    0.019144
    75  H    0.021680
    76  H    0.045230
    77  H    0.053706
    78  H    0.030246
    79  H    0.022358
    80  Mg   0.847865
    81  C   -0.001722
    82  C   -0.070333
    83  C   -0.074610
    84  C   -0.071508
    85  N   -0.234941
    86  C   -0.059654
    87  C   -0.007889
    88  C   -0.060922
    89  C   -0.011725
    90  C    0.063501
    91  C    0.083084
    92  C   -0.087386
    93  H   -0.024428
    94  N   -0.426833
    95  C    0.167400
    96  C   -0.118200
    97  C   -0.023615
    98  C    0.155978
    99  C    0.116654
   100  C   -0.017493
   101  O   -0.205552
   102  C    0.043897
   103  N   -0.341323
   104  C    0.066803
   105  C   -0.028591
   106  C   -0.019889
   107  C    0.079947
   108  C    0.060065
   109  C    0.009273
   110  C   -0.025248
   111  N   -0.337601
   112  C    0.099391
   113  C   -0.169945
   114  C   -0.076887
   115  C    0.107729
   116  C    0.138085
   117  C    0.126518
   118  O   -0.213849
   119  C   -0.017326
   120  C    0.167623
   121  O   -0.184900
   122  O   -0.341793
   123  C    0.175202
   124  H   -0.029244
   125  H   -0.005852
   126  H   -0.030408
   127  H    0.018826
   128  H    0.016858
   129  H    0.026975
   130  H    0.012695
   131  H    0.019581
   132  H    0.025437
   133  H    0.021766
   134  H    0.031684
   135  H    0.040547
   136  H    0.023774
   137  H    0.039973
   138  H    0.023447
   139  H    0.031151
   140  H    0.026913
   141  H    0.018567
   142  H    0.019934
   143  H    0.024865
   144  H    0.017934
   145  H    0.020725
   146  H    0.007150
   147  H    0.019115
   148  H    0.011306
   149  H    0.007553
   150  H    0.031109
   151  H    0.018733
   152  H    0.040480
   153  H    0.005566
   154  H    0.045696
   155  H    0.036795
   156  H    0.033050
   157  H    0.034353
   158  H    0.058098
 Sum of Mulliken charges =  -0.00000

 Dipole moment (field-independent basis, Debye):
    X=             -1.8908    Y=             -1.0307    Z=              2.1331  Tot=              3.0311
 Quadrupole moment (field-independent basis, Debye-Ang):
   XX=           -224.2517   YY=           -488.1093   ZZ=           -495.0035
   XY=             31.2753   XZ=            124.7414   YZ=            -12.2483

 Normal termination of Gaussian 16 at Wed Sep 15 06:58:44 2021.
