 Gaussian 16, Revision A.03,
 Gaussian 16:  ES64L-G16RevA.03 25-Dec-2016

 -----------------------------------
 #p cam-b3lyp/Def2SVP td=(nstates=5)
 -----------------------------------

 --------------------------------
 TDDFT excited states in gaussian
 --------------------------------
 Symbolic Z-matrix:
 Charge =  0 Multiplicity = 1

                         Standard orientation:
 ---------------------------------------------------------------------
 Center     Atomic      Atomic             Coordinates (Angstroms)
 Number     Number       Type             X           Y           Z
 ---------------------------------------------------------------------
      1         12           0      -29.631811    0.242336    0.538859
      2          6           0      -27.061161   -1.467252   -0.995751
      3          6           0      -29.746795    2.288067   -2.398769
      4          6           0      -31.835402    2.157993    1.997492
      5          6           0      -29.184075   -1.590775    3.437901
      6          7           0      -28.332318    0.489588   -1.414256
      7          6           0      -27.530764   -0.464360   -1.857420
      8          6           0      -27.319633   -0.345742   -3.393307
      9          6           0      -27.734259    1.152500   -3.603790
     10          6           0      -28.680095    1.383405   -2.414381
     11          6           0      -26.500617    2.123569   -3.584090
     12          6           0      -28.283253   -1.366839   -4.037982
     13          6           0      -28.166647   -1.554710   -5.556711
     14          1           0      -27.333593   -0.594585   -6.381929
     15          7           0      -30.751877    1.889551   -0.056169
     16          6           0      -30.663189    2.550754   -1.329310
     17          6           0      -31.764928    3.502872   -1.362371
     18          6           0      -32.450285    3.388553   -0.112584
     19          6           0      -31.666995    2.468440    0.710749
     20          6           0      -32.125250    4.417295   -2.592078
     21          6           0      -33.791387    4.083709    0.294543
     22          8           0      -34.163495    3.969940    1.430243
     23          6           0      -34.558684    4.895811   -0.697676
     24          7           0      -30.474176    0.217155    2.443228
     25          6           0      -31.393960    1.124959    2.840902
     26          6           0      -31.801608    0.969177    4.305500
     27          6           0      -31.048259   -0.319161    4.710089
     28          6           0      -30.160965   -0.589085    3.427560
     29          6           0      -31.473263    2.192774    5.237676
     30          6           0      -31.872302   -1.471674    5.224894
     31          6           0      -33.153735   -1.935412    4.491105
     32          7           0      -28.404407   -1.221781    1.188398
     33          6           0      -28.325418   -1.890880    2.376152
     34          6           0      -27.348597   -2.945880    2.206898
     35          6           0      -26.810740   -2.874702    0.875896
     36          6           0      -27.504799   -1.770675    0.309405
     37          6           0      -26.979115   -3.924626    3.277493
     38          6           0      -25.863217   -3.392704   -0.052854
     39          8           0      -25.012603   -4.306295    0.018804
     40          6           0      -25.840884   -2.265189   -1.222596
     41          6           0      -25.665542   -3.015615   -2.543849
     42          8           0      -26.335705   -3.899571   -2.920373
     43          8           0      -24.569000   -2.502208   -3.176011
     44          6           0      -24.402544   -2.785390   -4.586732
     45          1           0      -29.730524    2.947590   -3.268430
     46          1           0      -32.528832    2.795668    2.549773
     47          1           0      -28.980779   -2.192362    4.325435
     48          1           0      -26.272569   -0.454298   -3.675724
     49          1           0      -28.269198    1.134364   -4.553629
     50          1           0      -26.272326    2.437696   -4.601829
     51          1           0      -25.665016    1.590261   -3.130413
     52          1           0      -26.686598    3.052350   -3.044685
     53          1           0      -29.296480   -0.997859   -3.880967
     54          1           0      -28.287027   -2.318462   -3.507359
     55          1           0      -29.112169   -1.820641   -6.029860
     56          1           0      -27.693409   -2.530579   -5.667071
     57          1           0      -32.240140    5.464536   -2.310888
     58          1           0      -33.027833    3.983759   -3.022464
     59          1           0      -31.367713    4.297887   -3.367602
     60          1           0      -35.579207    4.789176   -0.329221
     61          1           0      -34.570533    4.446319   -1.689952
     62          1           0      -34.205528    5.881872   -0.999320
     63          1           0      -32.880100    0.814772    4.280684
     64          1           0      -30.272095   -0.142109    5.454584
     65          1           0      -31.213190    1.760459    6.203522
     66          1           0      -32.429185    2.715556    5.275695
     67          1           0      -30.739286    2.845703    4.765484
     68          1           0      -32.309138   -1.007604    6.108516
     69          1           0      -31.347863   -2.391682    5.485228
     70          1           0      -34.102991   -1.873000    5.021543
     71          1           0      -33.133548   -3.007621    4.296153
     72          1           0      -33.274881   -1.350248    3.579392
     73          1           0      -26.183614   -4.535430    2.851599
     74          1           0      -27.817832   -4.592799    3.477494
     75          1           0      -26.756162   -3.489123    4.251076
     76          1           0      -25.011446   -1.608858   -0.958418
     77          1           0      -23.393859   -3.162392   -4.417234
     78          1           0      -24.565678   -1.921433   -5.231340
     79          1           0      -25.017823   -3.605482   -4.957757
     80         12           0       30.025597    0.240617   -0.138297
     81          6           0       26.789277   -1.086246   -0.537185
     82          6           0       28.528227    3.379094   -0.097615
     83          6           0       32.958473    1.588682    0.681780
     84          6           0       31.108953   -2.947893    0.700239
     85          7           0       27.842041    0.983195   -0.141321
     86          6           0       26.675262    0.306055   -0.437967
     87          6           0       25.504910    1.176274   -0.845434
     88          6           0       26.072209    2.610940   -0.726540
     89          6           0       27.551103    2.357080   -0.285907
     90          6           0       25.966385    3.466758   -2.053542
     91          6           0       24.169776    1.019997    0.010801
     92          6           0       24.305720    0.654667    1.497965
     93          1           0       24.086334    1.775255    2.557082
     94          7           0       30.637549    2.170286    0.221687
     95          6           0       29.901483    3.317455    0.132590
     96          6           0       30.770828    4.486673    0.325326
     97          6           0       32.086670    3.979642    0.553781
     98          6           0       31.921138    2.494641    0.499617
     99          6           0       30.277133    5.926760    0.253332
    100          6           0       33.246866    4.986191    0.898635
    101          8           0       32.966189    6.172918    0.993247
    102          6           0       34.708081    4.448210    1.202725
    103          7           0       31.704861   -0.546592    0.692820
    104          6           0       32.883811    0.187393    0.801380
    105          6           0       34.127089   -0.780215    1.226145
    106          6           0       33.358694   -2.205022    1.351516
    107          6           0       31.981635   -1.866947    0.878284
    108          6           0       35.279833   -0.770723    0.179413
    109          6           0       33.338089   -2.839130    2.808131
    110          6           0       33.797870   -4.293535    2.993367
    111          7           0       29.191858   -1.697899   -0.059942
    112          6           0       29.718305   -2.911095    0.302910
    113          6           0       28.649220   -3.928860    0.224409
    114          6           0       27.499788   -3.226894   -0.227781
    115          6           0       27.900619   -1.865439   -0.329838
    116          6           0       28.742845   -5.389762    0.567670
    117          6           0       26.063737   -3.408596   -0.511646
    118          8           0       25.342745   -4.413317   -0.598631
    119          6           0       25.609906   -2.015209   -0.920685
    120          6           0       25.190493   -1.944946   -2.279862
    121          8           0       26.013475   -1.876340   -3.229231
    122          8           0       23.785660   -1.926715   -2.386909
    123          6           0       23.195741   -1.693275   -3.701167
    124          1           0       28.144608    4.390083   -0.247756
    125          1           0       33.965647    1.993620    0.796840
    126          1           0       31.542739   -3.925333    0.919335
    127          1           0       25.326101    0.863127   -1.873361
    128          1           0       25.600496    3.037450    0.157976
    129          1           0       25.238943    4.266049   -1.912172
    130          1           0       25.644202    2.773393   -2.830885
    131          1           0       26.921883    3.926413   -2.308390
    132          1           0       23.698652    0.173488   -0.490372
    133          1           0       23.550403    1.905961   -0.130867
    134          1           0       25.282800    0.213147    1.696917
    135          1           0       23.615912   -0.161421    1.708973
    136          1           0       30.155224    6.416868    1.219294
    137          1           0       29.434024    6.018349   -0.431530
    138          1           0       30.981558    6.548730   -0.298693
    139          1           0       34.954325    3.741975    0.409458
    140          1           0       34.678884    3.963865    2.178404
    141          1           0       35.434941    5.233091    1.411859
    142          1           0       34.561000   -0.330604    2.118774
    143          1           0       33.813934   -2.874379    0.621221
    144          1           0       35.118396   -1.615463   -0.489928
    145          1           0       36.268405   -0.754686    0.638435
    146          1           0       35.329798    0.138125   -0.420026
    147          1           0       32.327449   -2.698170    3.192667
    148          1           0       34.041507   -2.191551    3.331513
    149          1           0       33.425873   -4.725633    3.922758
    150          1           0       34.882561   -4.190419    3.013494
    151          1           0       33.400818   -4.810313    2.119392
    152          1           0       29.551878   -5.437277    1.296079
    153          1           0       29.094351   -5.823875   -0.368309
    154          1           0       27.801250   -5.865280    0.843803
    155          1           0       24.778641   -1.852432   -0.235035
    156          1           0       23.364279   -2.449355   -4.468049
    157          1           0       23.539556   -0.737827   -4.098500
    158          1           0       22.141677   -1.475246   -3.528595
 ---------------------------------------------------------------------

 SCF Done:  E(RCAM-B3LYP) =  -4069.79678824     A.U. after   18 cycles

 Excitation energies and oscillator strengths:

 Excited State   1:      Singlet-A      1.7179 eV  721.70 nm  f=0.3709  <S**2>=0.000
     309 -> 316        0.18147
     312 -> 314        0.68501
     309 <- 316        0.10790
 This state for optimization and/or second-order correction.
 Total Energy, E(TD-HF/TD-DFT) =  -4069.73365475
 Copying the excited state density for this state as the 1-particle RhoCI density.

 Excited State   2:      Singlet-A      1.7338 eV  715.10 nm  f=0.3792  <S**2>=0.000
     310 -> 315       -0.19608
     311 -> 313        0.68084
     310 <- 315       -0.11066

 Excited State   3:      Singlet-A      2.2193 eV  558.65 nm  f=0.0920  <S**2>=0.000
     310 -> 313        0.63500
     311 -> 315        0.29927

 Excited State   4:      Singlet-A      2.3104 eV  536.64 nm  f=0.0713  <S**2>=0.000
     309 -> 314        0.61633
     312 -> 316       -0.33581

 Excited State   5:      Singlet-A      3.2115 eV  386.07 nm  f=0.0000  <S**2>=0.000
     312 -> 313        0.70710

 The electronic state is 1-A.
 Alpha  occ. eigenvalues --  -46.88927 -46.88266 -19.25791 -19.24383 -19.20259
 Alpha  occ. eigenvalues --  -19.20235 -19.19615 -19.19192 -19.19094 -19.19014
 Alpha  occ. eigenvalues --  -14.42638 -14.42083 -14.41731 -14.41728 -14.39958
 Alpha  occ. eigenvalues --  -14.39315 -14.39304 -14.39272 -10.40023 -10.38913
 Alpha  occ. eigenvalues --  -10.36494 -10.35350 -10.35273 -10.35055 -10.32114
 Alpha  occ. eigenvalues --  -10.31879 -10.31460 -10.31349 -10.30936 -10.30709
 Alpha  occ. eigenvalues --  -10.30638 -10.30618 -10.30589 -10.30585 -10.30426
 Alpha  occ. eigenvalues --  -10.30281 -10.30088 -10.29840 -10.29622 -10.29311
 Alpha  occ. eigenvalues --  -10.29299 -10.29006 -10.29000 -10.28769 -10.28598
 Alpha  occ. eigenvalues --  -10.28464 -10.28455 -10.28370 -10.28307 -10.28306
 Alpha  occ. eigenvalues --  -10.28305 -10.28074 -10.28031 -10.27799 -10.27780
 Alpha  occ. eigenvalues --  -10.27760 -10.27742 -10.27694 -10.27653 -10.27619
 Alpha  occ. eigenvalues --  -10.27581 -10.27580 -10.27469 -10.27390 -10.27154
 Alpha  occ. eigenvalues --  -10.27140 -10.26796 -10.26739 -10.26731 -10.26659
 Alpha  occ. eigenvalues --  -10.26584 -10.26570 -10.26556 -10.26464 -10.26461
 Alpha  occ. eigenvalues --  -10.26275 -10.26264 -10.26206 -10.26055 -10.25858
 Alpha  occ. eigenvalues --  -10.25789 -10.25743 -10.25458 -10.25269 -10.25173
 Alpha  occ. eigenvalues --  -10.24944  -3.17553  -3.16903  -1.92411  -1.92024
 Alpha  occ. eigenvalues --   -1.91857  -1.91803  -1.91375  -1.91193  -1.17609
 Alpha  occ. eigenvalues --   -1.14971  -1.11522  -1.10416  -1.09798  -1.09055
 Alpha  occ. eigenvalues --   -1.08007  -1.07022  -1.05234  -1.04146  -1.04079
 Alpha  occ. eigenvalues --   -1.03547  -1.03050  -1.02613  -1.02074  -1.01879
 Alpha  occ. eigenvalues --   -0.93133  -0.93019  -0.89378  -0.89165  -0.88847
 Alpha  occ. eigenvalues --   -0.88668  -0.88536  -0.88049  -0.87306  -0.86806
 Alpha  occ. eigenvalues --   -0.86432  -0.86080  -0.85679  -0.85561  -0.84524
 Alpha  occ. eigenvalues --   -0.84066  -0.83914  -0.83734  -0.82800  -0.82428
 Alpha  occ. eigenvalues --   -0.81763  -0.81662  -0.81423  -0.81009  -0.80279
 Alpha  occ. eigenvalues --   -0.80083  -0.78168  -0.77994  -0.77359  -0.77218
 Alpha  occ. eigenvalues --   -0.76820  -0.76771  -0.76521  -0.75871  -0.75511
 Alpha  occ. eigenvalues --   -0.74903  -0.72684  -0.72332  -0.72005  -0.71750
 Alpha  occ. eigenvalues --   -0.70271  -0.69293  -0.68910  -0.68882  -0.68433
 Alpha  occ. eigenvalues --   -0.68106  -0.66811  -0.66202  -0.65779  -0.65188
 Alpha  occ. eigenvalues --   -0.65187  -0.64922  -0.64578  -0.64299  -0.64200
 Alpha  occ. eigenvalues --   -0.64155  -0.62441  -0.62371  -0.60507  -0.60232
 Alpha  occ. eigenvalues --   -0.59651  -0.59623  -0.59163  -0.59065  -0.58822
 Alpha  occ. eigenvalues --   -0.58652  -0.58144  -0.57919  -0.57740  -0.57184
 Alpha  occ. eigenvalues --   -0.56225  -0.56142  -0.56139  -0.55652  -0.55603
 Alpha  occ. eigenvalues --   -0.55351  -0.54947  -0.54431  -0.54227  -0.54192
 Alpha  occ. eigenvalues --   -0.53764  -0.53637  -0.53520  -0.53084  -0.52965
 Alpha  occ. eigenvalues --   -0.52615  -0.52393  -0.52342  -0.52308  -0.52125
 Alpha  occ. eigenvalues --   -0.52084  -0.51810  -0.51562  -0.51186  -0.50946
 Alpha  occ. eigenvalues --   -0.50763  -0.50719  -0.50708  -0.50300  -0.50149
 Alpha  occ. eigenvalues --   -0.49989  -0.49979  -0.49693  -0.49562  -0.49357
 Alpha  occ. eigenvalues --   -0.49350  -0.49326  -0.49312  -0.49256  -0.48964
 Alpha  occ. eigenvalues --   -0.48775  -0.48571  -0.48346  -0.48234  -0.48141
 Alpha  occ. eigenvalues --   -0.48136  -0.47978  -0.47639  -0.47365  -0.47200
 Alpha  occ. eigenvalues --   -0.46850  -0.46624  -0.46610  -0.46547  -0.46446
 Alpha  occ. eigenvalues --   -0.46237  -0.46158  -0.45960  -0.45837  -0.45768
 Alpha  occ. eigenvalues --   -0.45586  -0.45379  -0.45208  -0.45013  -0.44966
 Alpha  occ. eigenvalues --   -0.44787  -0.44742  -0.44609  -0.44553  -0.44179
 Alpha  occ. eigenvalues --   -0.43921  -0.43860  -0.43360  -0.43264  -0.43225
 Alpha  occ. eigenvalues --   -0.43029  -0.42981  -0.42926  -0.42860  -0.42697
 Alpha  occ. eigenvalues --   -0.42673  -0.42389  -0.42307  -0.42257  -0.42094
 Alpha  occ. eigenvalues --   -0.42089  -0.41991  -0.41879  -0.41571  -0.41559
 Alpha  occ. eigenvalues --   -0.41433  -0.41060  -0.40993  -0.40603  -0.40270
 Alpha  occ. eigenvalues --   -0.40224  -0.39853  -0.39693  -0.39553  -0.39444
 Alpha  occ. eigenvalues --   -0.38900  -0.38401  -0.37953  -0.37640  -0.37512
 Alpha  occ. eigenvalues --   -0.37508  -0.37131  -0.37074  -0.37007  -0.36622
 Alpha  occ. eigenvalues --   -0.36388  -0.35852  -0.35135  -0.34752  -0.34404
 Alpha  occ. eigenvalues --   -0.33961  -0.33345  -0.33192  -0.31582  -0.31408
 Alpha  occ. eigenvalues --   -0.31197  -0.31012  -0.30973  -0.30419  -0.30258
 Alpha  occ. eigenvalues --   -0.29822  -0.29596  -0.29363  -0.24135  -0.23810
 Alpha  occ. eigenvalues --   -0.21097  -0.20824
 Alpha virt. eigenvalues --   -0.08436  -0.08178  -0.01888  -0.01800   0.00189
 Alpha virt. eigenvalues --    0.00284   0.01656   0.02059   0.02609   0.03023
 Alpha virt. eigenvalues --    0.03444   0.05041   0.05228   0.05337   0.05853

 Mulliken charges:
               1
     1  Mg   0.826052
     2  C   -0.012339
     3  C   -0.069424
     4  C   -0.074870
     5  C   -0.110750
     6  N   -0.226802
     7  C   -0.083301
     8  C   -0.038293
     9  C   -0.040661
    10  C    0.001548
    11  C    0.086685
    12  C    0.038276
    13  C   -0.033813
    14  H    0.030045
    15  N   -0.395516
    16  C    0.163770
    17  C   -0.170991
    18  C   -0.041649
    19  C    0.168852
    20  C    0.109747
    21  C    0.017404
    22  O   -0.181337
    23  C    0.052857
    24  N   -0.266019
    25  C   -0.012122
    26  C   -0.046929
    27  C   -0.006089
    28  C    0.066920
    29  C    0.083995
    30  C    0.038650
    31  C   -0.018426
    32  N   -0.393943
    33  C    0.127036
    34  C   -0.170475
    35  C    0.015086
    36  C    0.149497
    37  C    0.114102
    38  C    0.076153
    39  O   -0.199741
    40  C   -0.076697
    41  C    0.177556
    42  O   -0.154519
    43  O   -0.338142
    44  C    0.149816
    45  H   -0.021746
    46  H   -0.018197
    47  H   -0.032787
    48  H   -0.002268
    49  H   -0.002009
    50  H    0.017263
    51  H    0.023471
    52  H    0.018039
    53  H    0.001270
    54  H    0.042096
    55  H    0.018705
    56  H    0.015675
    57  H    0.037186
    58  H    0.036371
    59  H    0.006412
    60  H    0.032712
    61  H   -0.000054
    62  H    0.047138
    63  H    0.021806
    64  H    0.003767
    65  H    0.024777
    66  H    0.025998
    67  H    0.031887
    68  H    0.004412
    69  H    0.015883
    70  H    0.010609
    71  H    0.010205
    72  H    0.020207
    73  H    0.037312
    74  H    0.019396
    75  H    0.024881
    76  H    0.054937
    77  H    0.050929
    78  H    0.046126
    79  H    0.046396
    80  Mg   0.851620
    81  C   -0.100129
    82  C   -0.078311
    83  C   -0.099239
    84  C   -0.088971
    85  N   -0.279378
    86  C   -0.081186
    87  C   -0.019343
    88  C   -0.002810
    89  C   -0.000107
    90  C    0.073888
    91  C    0.027088
    92  C   -0.064903
    93  H    0.020885
    94  N   -0.362110
    95  C    0.140206
    96  C   -0.140688
    97  C   -0.078378
    98  C    0.187262
    99  C    0.142644
   100  C    0.026516
   101  O   -0.197143
   102  C    0.035346
   103  N   -0.347406
   104  C    0.055833
   105  C   -0.054207
   106  C   -0.028390
   107  C    0.061107
   108  C    0.055238
   109  C    0.021392
   110  C    0.018570
   111  N   -0.317897
   112  C    0.107214
   113  C   -0.195287
   114  C   -0.057894
   115  C    0.233645
   116  C    0.136021
   117  C    0.071848
   118  O   -0.182064
   119  C    0.008116
   120  C    0.252106
   121  O   -0.249973
   122  O   -0.351334
   123  C    0.193053
   124  H   -0.033199
   125  H   -0.057986
   126  H   -0.041235
   127  H    0.023641
   128  H    0.018847
   129  H    0.021273
   130  H    0.018761
   131  H    0.026155
   132  H    0.015717
   133  H    0.022981
   134  H    0.041901
   135  H    0.033136
   136  H    0.040399
   137  H    0.001794
   138  H    0.020830
   139  H    0.054661
   140  H    0.038700
   141  H    0.026065
   142  H    0.018360
   143  H    0.011703
   144  H    0.016645
   145  H    0.015997
   146  H    0.011099
   147  H    0.024248
   148  H    0.000203
   149  H    0.028361
   150  H    0.019641
   151  H    0.018978
   152  H    0.013661
   153  H    0.031452
   154  H    0.042870
   155  H    0.030575
   156  H    0.050929
   157  H    0.016617
   158  H    0.033772
 Sum of Mulliken charges =  -0.00000

 Dipole moment (field-independent basis, Debye):
    X=             -0.0407    Y=              4.5634    Z=             -1.8866  Tot=              4.9382
 Quadrupole moment (field-independent basis, Debye-Ang):
   XX=           -239.8762   YY=           -559.6403   ZZ=           -476.3097
   XY=            -83.6972   XZ=             49.4954   YZ=            -31.2210

 Normal termination of Gaussian 16 at Wed Sep  1 05:21:15 2021.
