 Gaussian 16, Revision A.03,
 Gaussian 16:  ES64L-G16RevA.03 25-Dec-2016

 ---------------------------------------------------
 #p cam-b3lyp/Def2SVP td=(nstates=5) density=(CIS=1)
 ---------------------------------------------------

 --------------------------------
 TDDFT excited states in gaussian
 --------------------------------
 Symbolic Z-matrix:
 Charge =  0 Multiplicity = 1

                         Standard orientation:
 ---------------------------------------------------------------------
 Center     Atomic      Atomic             Coordinates (Angstroms)
 Number     Number       Type             X           Y           Z
 ---------------------------------------------------------------------
      1         12           0       -0.710141    0.000491   -0.470852
      2          6           0        2.829706    0.275597    0.019250
      3          6           0       -0.334269   -3.484879    0.008726
      4          6           0       -4.043169   -0.225420   -0.154335
      5          6           0       -0.918164    3.438078   -0.240426
      6          7           0        1.051590   -1.473350   -0.042090
      7          6           0        2.339744   -1.051252    0.133041
      8          6           0        3.176869   -2.188584    0.696553
      9          6           0        2.183799   -3.386665    0.390288
     10          6           0        0.852554   -2.806972    0.097444
     11          6           0        2.585682   -4.376555   -0.754200
     12          6           0        3.577359   -1.879599    2.174821
     13          6           0        5.064237   -2.132454    2.658595
     14          1           0        5.339259   -3.154087    3.776629
     15          7           0       -1.998416   -1.561384   -0.318463
     16          6           0       -1.678255   -2.933770   -0.145170
     17          6           0       -2.886704   -3.736521   -0.107793
     18          6           0       -3.966008   -2.762868   -0.148615
     19          6           0       -3.333271   -1.459149   -0.220010
     20          6           0       -2.844498   -5.192515    0.103074
     21          6           0       -5.451173   -3.164842   -0.141164
     22          8           0       -5.696655   -4.397425    0.008311
     23          6           0       -6.642613   -2.196700   -0.300730
     24          7           0       -2.333834    1.381810    0.041909
     25          6           0       -3.612683    1.076052   -0.064785
     26          6           0       -4.417736    2.312999    0.171196
     27          6           0       -3.380803    3.464050    0.076466
     28          6           0       -2.081783    2.719421    0.038307
     29          6           0       -5.706061    2.601863   -0.712015
     30          6           0       -3.438745    4.545523    1.274793
     31          6           0       -3.825022    6.005735    0.934173
     32          7           0        0.615165    1.547372   -0.375715
     33          6           0        0.402297    2.871350   -0.289960
     34          6           0        1.620781    3.591704   -0.224605
     35          6           0        2.599683    2.598277   -0.147708
     36          6           0        1.938875    1.344925   -0.199703
     37          6           0        1.890606    5.042711   -0.229403
     38          6           0        4.014794    2.452369    0.001415
     39          8           0        4.849647    3.316012    0.152042
     40          6           0        4.228300    0.817449    0.169804
     41          6           0        5.111794    0.318111   -0.890551
     42          8           0        5.054793    0.638292   -2.084600
     43          8           0        5.972641   -0.580069   -0.296637
     44          6           0        6.959491   -1.210029   -1.172182
     45          1           0       -0.283859   -4.566191    0.145325
     46          1           0       -5.115449   -0.233012    0.050373
     47          1           0       -0.914355    4.519277   -0.394755
     48          1           0        4.013660   -2.319592    0.009982
     49          1           0        2.133625   -3.797044    1.399522
     50          1           0        1.769272   -4.384004   -1.477781
     51          1           0        2.715775   -5.408051   -0.427543
     52          1           0        3.460178   -4.090521   -1.339414
     53          1           0        2.901733   -2.565613    2.685232
     54          1           0        3.320889   -0.885495    2.540300
     55          1           0        5.428999   -1.147783    2.950378
     56          1           0        5.677135   -2.321744    1.777855
     57          1           0       -2.241204   -5.353985    0.996728
     58          1           0       -2.301967   -5.670589   -0.712263
     59          1           0       -3.790321   -5.734850    0.111893
     60          1           0       -6.726900   -1.614619    0.617122
     61          1           0       -7.434994   -2.819173   -0.715074
     62          1           0       -6.314666   -1.548401   -1.113992
     63          1           0       -4.820551    2.232008    1.180032
     64          1           0       -3.534050    3.815309   -0.944021
     65          1           0       -6.352272    3.189606   -0.059559
     66          1           0       -6.140513    1.648024   -1.010848
     67          1           0       -5.371539    3.205208   -1.556097
     68          1           0       -2.440491    4.496731    1.709461
     69          1           0       -4.070250    4.128154    2.058970
     70          1           0       -3.134746    6.734584    1.356808
     71          1           0       -4.833390    6.192559    1.304436
     72          1           0       -3.921391    6.195355   -0.135035
     73          1           0        2.924599    5.260377   -0.495068
     74          1           0        1.672461    5.231751    0.821841
     75          1           0        1.046839    5.539325   -0.708332
     76          1           0        4.521427    0.559223    1.186768
     77          1           0        7.512498   -0.472232   -1.753952
     78          1           0        6.464420   -1.924788   -1.831195
     79          1           0        7.683199   -1.741849   -0.554467
 ---------------------------------------------------------------------

 SCF Done:  E(RCAM-B3LYP) =  -2034.88677757     A.U. after   17 cycles

 Excitation energies and oscillator strengths:

 Excited State   1:      Singlet-A      1.6989 eV  729.78 nm  f=0.0000  <S**2>=0.000
     155 ->158        -0.18547
     156 ->157         0.68534
     155 <-158        -0.11153
 This state for optimization and/or second-order correction.
 Total Energy, E(TD-HF/TD-DFT) =  -2034.82434353
 Copying the excited state density for this state as the 1-particle RhoCI density.

 Excited State   2:      Singlet-A      2.2522 eV  550.49 nm  f=0.0000  <S**2>=0.000
     155 ->157         0.64094
     156 ->158         0.28914

 Excited State   3:      Singlet-A      3.2755 eV  378.52 nm  f=0.0000  <S**2>=0.000
     154 ->157         0.67971

 Excited State   4:      Singlet-A      3.4211 eV  362.41 nm  f=0.0000  <S**2>=0.000
     152 ->157         0.49268
     152 ->158         0.10751
     152 ->159        -0.30514
     152 ->160         0.15632
     152 ->161        -0.19991
     153 ->157        -0.20636

 Excited State   5:      Singlet-A      3.4739 eV  356.90 nm  f=0.0000  <S**2>=0.000
     151 ->157        -0.19825
     151 ->159        -0.10959
     152 ->157         0.20651
     153 ->157         0.58158
     156 ->158        -0.18037

 The electronic state is 1-A.
 Alpha  occ. eigenvalues --  -46.88916 -19.26286 -19.20570 -19.19750 -19.18141
 Alpha  occ. eigenvalues --  -14.41943 -14.41410 -14.39942 -14.39835 -10.40107
 Alpha  occ. eigenvalues --  -10.35458 -10.35254 -10.32464 -10.31200 -10.30783
 Alpha  occ. eigenvalues --  -10.30646 -10.30408 -10.30337 -10.30319 -10.29766
 Alpha  occ. eigenvalues --  -10.29091 -10.28958 -10.28742 -10.28571 -10.28110
 Alpha  occ. eigenvalues --  -10.27788 -10.27635 -10.27600 -10.27528 -10.27496
 Alpha  occ. eigenvalues --  -10.27480 -10.27464 -10.27240 -10.27207 -10.27006
 Alpha  occ. eigenvalues --  -10.26794 -10.26685 -10.26445 -10.26415 -10.26244
 Alpha  occ. eigenvalues --  -10.26083 -10.25057 -10.24571  -3.17470  -1.92360
 Alpha  occ. eigenvalues --   -1.91914  -1.91787  -1.16556  -1.10831  -1.08181
 Alpha  occ. eigenvalues --   -1.07251  -1.05461  -1.04735  -1.03752  -1.02349
 Alpha  occ. eigenvalues --   -0.93191  -0.89336  -0.88294  -0.88142  -0.87981
 Alpha  occ. eigenvalues --   -0.87484  -0.86016  -0.84646  -0.83869  -0.82737
 Alpha  occ. eigenvalues --   -0.82027  -0.81376  -0.80495  -0.78232  -0.77657
 Alpha  occ. eigenvalues --   -0.76889  -0.76309  -0.75355  -0.73206  -0.72224
 Alpha  occ. eigenvalues --   -0.69822  -0.69397  -0.68494  -0.66760  -0.66164
 Alpha  occ. eigenvalues --   -0.65645  -0.65128  -0.64775  -0.62970  -0.60154
 Alpha  occ. eigenvalues --   -0.59913  -0.59557  -0.58928  -0.58442  -0.57603
 Alpha  occ. eigenvalues --   -0.56250  -0.55994  -0.55659  -0.54870  -0.54514
 Alpha  occ. eigenvalues --   -0.53704  -0.53303  -0.52947  -0.52643  -0.52107
 Alpha  occ. eigenvalues --   -0.51774  -0.51424  -0.51238  -0.50591  -0.50347
 Alpha  occ. eigenvalues --   -0.50040  -0.49982  -0.49577  -0.49419  -0.48796
 Alpha  occ. eigenvalues --   -0.48473  -0.47948  -0.47752  -0.47663  -0.47602
 Alpha  occ. eigenvalues --   -0.47460  -0.47041  -0.46655  -0.46464  -0.46136
 Alpha  occ. eigenvalues --   -0.45944  -0.45631  -0.45385  -0.44991  -0.44549
 Alpha  occ. eigenvalues --   -0.43785  -0.43666  -0.43567  -0.43285  -0.43094
 Alpha  occ. eigenvalues --   -0.42956  -0.42817  -0.42332  -0.41534  -0.41237
 Alpha  occ. eigenvalues --   -0.41114  -0.40863  -0.40344  -0.40237  -0.38935
 Alpha  occ. eigenvalues --   -0.38753  -0.38257  -0.37733  -0.37647  -0.36456
 Alpha  occ. eigenvalues --   -0.35861  -0.35198  -0.34121  -0.33026  -0.31339
 Alpha  occ. eigenvalues --   -0.31134  -0.30341  -0.30118  -0.29378  -0.24179
 Alpha  occ. eigenvalues --   -0.21320
 Alpha virt. eigenvalues --   -0.08937  -0.01740   0.00274   0.02291   0.02417
 Alpha virt. eigenvalues --    0.04239   0.05000   0.05821   0.06708   0.07708
 Alpha virt. eigenvalues --    0.08238   0.08446   0.09100   0.09589   0.10092

 Mulliken charges:
               1
     1  Mg   0.834831
     2  C   -0.164884
     3  C   -0.119057
     4  C   -0.131921
     5  C   -0.132701
     6  N   -0.307491
     7  C   -0.010191
     8  C   -0.007254
     9  C   -0.027902
    10  C    0.088431
    11  C    0.079208
    12  C    0.036734
    13  C   -0.045533
    14  H    0.033959
    15  N   -0.397245
    16  C    0.156641
    17  C   -0.147330
    18  C   -0.061431
    19  C    0.240724
    20  C    0.129716
    21  C   -0.026733
    22  O   -0.254728
    23  C    0.082747
    24  N   -0.328698
    25  C    0.029246
    26  C   -0.038128
    27  C   -0.050447
    28  C    0.113118
    29  C    0.080209
    30  C    0.054831
    31  C    0.009176
    32  N   -0.343024
    33  C    0.121661
    34  C   -0.200911
    35  C   -0.031697
    36  C    0.200559
    37  C    0.169172
    38  C    0.053544
    39  O   -0.163064
    40  C    0.022694
    41  C    0.221914
    42  O   -0.226000
    43  O   -0.341477
    44  C    0.178491
    45  H   -0.026071
    46  H   -0.057688
    47  H   -0.022781
    48  H   -0.000817
    49  H    0.005718
    50  H    0.016270
    51  H    0.023305
    52  H    0.015255
    53  H    0.007488
    54  H    0.030455
    55  H    0.025798
    56  H    0.020669
    57  H    0.024578
    58  H    0.009480
    59  H    0.043792
    60  H    0.062019
    61  H    0.038655
    62  H    0.023203
    63  H    0.016459
    64  H    0.013152
    65  H    0.018506
    66  H    0.020295
    67  H    0.011842
    68  H    0.009545
    69  H    0.001460
    70  H    0.024620
    71  H    0.014007
    72  H    0.012692
    73  H    0.057019
    74  H    0.022698
    75  H    0.007182
    76  H    0.030163
    77  H    0.047767
    78  H    0.034976
    79  H    0.038526
 Sum of Mulliken charges =  -0.00000

 Dipole moment (field-independent basis, Debye):
    X=             -1.2049    Y=              0.6766    Z=              0.7243  Tot=              1.5602
 Quadrupole moment (field-independent basis, Debye-Ang):
   XX=           -262.8311   YY=           -259.4434   ZZ=           -260.2749
   XY=            -57.6363   XZ=              3.3404   YZ=              4.9063

 Normal termination of Gaussian 16 at Fri Oct  8 18:32:49 2021.
