 Gaussian 16, Revision A.03,
 Gaussian 16:  ES64L-G16RevA.03 25-Dec-2016

 -----------------------------------
 #p cam-b3lyp/Def2SVP td=(nstates=5)
 -----------------------------------

 --------------------------------
 TDDFT excited states in gaussian
 --------------------------------
 Symbolic Z-matrix:
 Charge =  0 Multiplicity = 1

                         Standard orientation:
 ---------------------------------------------------------------------
 Center     Atomic      Atomic             Coordinates (Angstroms)
 Number     Number       Type             X           Y           Z
 ---------------------------------------------------------------------
      1         12           0       22.152643   -0.728773    0.444688
      2          6           0       21.994892    2.325687   -1.341200
      3          6           0       23.119715    1.205127    3.191213
      4          6           0       22.242342   -3.450743    2.278363
      5          6           0       21.983869   -2.465581   -2.562793
      6          7           0       22.468097    1.500575    0.833943
      7          6           0       22.206625    2.558351    0.016708
      8          6           0       22.468118    3.951745    0.613764
      9          6           0       22.955771    3.476664    2.075017
     10          6           0       22.847074    1.982698    1.994781
     11          6           0       24.439327    3.886830    2.431373
     12          6           0       21.187514    4.847573    0.660347
     13          6           0       20.981173    6.104509   -0.175908
     14          1           0       20.227398    7.306892    0.376901
     15          7           0       22.539879   -1.100637    2.482042
     16          6           0       22.992535   -0.184260    3.442211
     17          6           0       23.283855   -0.929865    4.646275
     18          6           0       22.887211   -2.252313    4.463438
     19          6           0       22.477952   -2.304841    3.046368
     20          6           0       23.695473   -0.177385    5.865418
     21          6           0       22.946167   -3.464557    5.392240
     22          8           0       22.585126   -4.604209    5.083196
     23          6           0       23.331361   -3.215294    6.797216
     24          7           0       22.224359   -2.697616   -0.041956
     25          6           0       22.043554   -3.684180    0.887426
     26          6           0       21.607355   -5.026100    0.207436
     27          6           0       21.642213   -4.684408   -1.276509
     28          6           0       22.048468   -3.185246   -1.325477
     29          6           0       22.464546   -6.257747    0.647277
     30          6           0       20.269862   -4.970730   -1.904852
     31          6           0       20.224667   -5.661059   -3.219396
     32          7           0       22.118446   -0.240053   -1.570122
     33          6           0       22.020395   -1.038209   -2.681714
     34          6           0       21.942889   -0.257830   -3.880335
     35          6           0       21.822726    1.150697   -3.440720
     36          6           0       21.933393    1.069503   -1.996788
     37          6           0       21.923907   -0.811126   -5.315551
     38          6           0       21.663833    2.572421   -3.837806
     39          8           0       21.406428    3.071624   -4.946365
     40          6           0       21.766493    3.369896   -2.472877
     41          6           0       22.937367    4.251411   -2.776765
     42          8           0       24.130351    4.009958   -2.637979
     43          8           0       22.540913    5.445748   -3.122088
     44          6           0       23.528054    6.432182   -3.624181
     45          1           0       23.257552    1.937301    3.989162
     46          1           0       22.283233   -4.431300    2.756524
     47          1           0       21.860056   -3.028887   -3.489659
     48          1           0       23.297796    4.396112    0.062545
     49          1           0       22.348998    3.753834    2.937608
     50          1           0       25.079199    4.201961    1.607595
     51          1           0       24.954248    3.045404    2.893684
     52          1           0       24.404236    4.699150    3.157554
     53          1           0       21.092946    5.190270    1.690872
     54          1           0       20.306903    4.258951    0.406314
     55          1           0       20.311302    5.718308   -0.944307
     56          1           0       22.001285    6.329413   -0.487344
     57          1           0       22.979912   -0.296352    6.677834
     58          1           0       23.783761    0.889276    5.657622
     59          1           0       24.653709   -0.502593    6.269405
     60          1           0       22.740321   -2.390219    7.194942
     61          1           0       24.340010   -2.811835    6.887520
     62          1           0       23.158115   -4.056402    7.467742
     63          1           0       20.597605   -5.148389    0.598951
     64          1           0       22.330323   -5.336257   -1.814489
     65          1           0       23.138813   -6.059677    1.480355
     66          1           0       23.097525   -6.658163   -0.143757
     67          1           0       21.813282   -7.112725    0.828252
     68          1           0       19.847533   -3.971700   -2.005113
     69          1           0       19.613564   -5.595947   -1.299982
     70          1           0       19.639859   -4.997141   -3.855606
     71          1           0       19.844515   -6.675555   -3.099866
     72          1           0       21.181103   -5.723245   -3.738943
     73          1           0       22.947232   -0.875352   -5.683547
     74          1           0       21.309424   -0.150440   -5.926922
     75          1           0       21.527297   -1.825641   -5.360700
     76          1           0       20.851203    3.954888   -2.384577
     77          1           0       24.308510    6.683242   -2.906714
     78          1           0       23.086728    7.362558   -3.981038
     79          1           0       24.084323    6.158262   -4.520115
     80         12           0      -22.073913   -0.800972   -0.339428
     81          6           0      -23.818137    1.894515    1.429592
     82          6           0      -19.701983    1.614127   -1.243406
     83          6           0      -20.655138   -3.050414   -2.224812
     84          6           0      -24.414500   -3.025687    0.815659
     85          7           0      -21.905836    1.495065   -0.130693
     86          6           0      -22.655850    2.390685    0.741228
     87          6           0      -22.151210    3.849461    0.718229
     88          6           0      -20.924005    3.686366   -0.353157
     89          6           0      -20.806845    2.175841   -0.636271
     90          6           0      -21.096372    4.514833   -1.611426
     91          6           0      -21.789989    4.328334    2.156882
     92          6           0      -21.015147    5.609546    2.231732
     93          1           0      -21.394320    6.657974    3.253835
     94          7           0      -20.397642   -0.752924   -1.611864
     95          6           0      -19.538228    0.325034   -1.852695
     96          6           0      -18.463267   -0.093643   -2.750388
     97          6           0      -18.717513   -1.492767   -3.058196
     98          6           0      -19.968699   -1.861367   -2.298083
     99          6           0      -17.246256    0.804927   -3.180440
    100          6           0      -18.012907   -2.446708   -3.954028
    101          8           0      -18.314955   -3.623298   -4.102870
    102          6           0      -16.785853   -2.031425   -4.654205
    103          7           0      -22.405742   -2.722807   -0.583276
    104          6           0      -21.773759   -3.445178   -1.510140
    105          6           0      -22.268969   -4.909378   -1.566763
    106          6           0      -23.121868   -4.974915   -0.316840
    107          6           0      -23.405444   -3.451897   -0.017461
    108          6           0      -23.045831   -5.233602   -2.837547
    109          6           0      -22.680962   -5.680881    0.939201
    110          6           0      -21.451699   -5.083907    1.590400
    111          7           0      -23.821694   -0.636451    0.781262
    112          6           0      -24.625114   -1.688987    1.255747
    113          6           0      -25.683933   -1.138644    2.065614
    114          6           0      -25.307881    0.224640    2.177872
    115          6           0      -24.183744    0.499195    1.375888
    116          6           0      -26.778329   -1.861415    2.795301
    117          6           0      -25.715032    1.473511    2.893176
    118          8           0      -26.575378    1.665993    3.778781
    119          6           0      -24.773969    2.564388    2.386902
    120          6           0      -25.583058    3.724330    1.802760
    121          8           0      -26.352071    3.760492    0.797181
    122          8           0      -25.222159    4.844267    2.491857
    123          6           0      -25.832947    6.109940    2.026166
    124          1           0      -18.869725    2.311429   -1.351213
    125          1           0      -20.235132   -3.801265   -2.897252
    126          1           0      -25.208417   -3.670736    1.198140
    127          1           0      -23.012695    4.441061    0.408605
    128          1           0      -19.984537    3.908231    0.153121
    129          1           0      -20.242362    5.186636   -1.702360
    130          1           0      -22.002122    5.102974   -1.468080
    131          1           0      -21.404381    3.995829   -2.518839
    132          1           0      -21.330243    3.466899    2.642545
    133          1           0      -22.715472    4.475222    2.713798
    134          1           0      -21.008608    6.236873    1.340672
    135          1           0      -19.988765    5.389116    2.523666
    136          1           0      -16.371040    0.291505   -2.781275
    137          1           0      -17.280837    1.811396   -2.763674
    138          1           0      -17.255465    0.824190   -4.270305
    139          1           0      -16.846381   -1.037779   -5.098647
    140          1           0      -16.677929   -2.777565   -5.440649
    141          1           0      -16.055179   -1.926357   -3.852798
    142          1           0      -21.384047   -5.545076   -1.534648
    143          1           0      -24.071577   -5.480074   -0.495055
    144          1           0      -22.755698   -6.228214   -3.174206
    145          1           0      -22.821256   -4.520992   -3.630465
    146          1           0      -24.107004   -5.345203   -2.612039
    147          1           0      -22.578460   -6.741367    0.707426
    148          1           0      -23.413520   -5.553286    1.736010
    149          1           0      -20.729631   -5.847563    1.877111
    150          1           0      -21.677188   -4.571332    2.525826
    151          1           0      -20.902391   -4.385824    0.958577
    152          1           0      -26.782130   -1.557486    3.841778
    153          1           0      -26.813178   -2.950727    2.810359
    154          1           0      -27.718700   -1.549770    2.340199
    155          1           0      -24.251336    2.985298    3.246323
    156          1           0      -25.119946    6.657638    1.410271
    157          1           0      -26.084583    6.537739    2.996624
    158          1           0      -26.792978    5.952814    1.532811
 ---------------------------------------------------------------------

 SCF Done:  E(RCAM-B3LYP) =  -4069.81517641     A.U. after   19 cycles

 Excitation energies and oscillator strengths:

 Excited State   1:      Singlet-A      1.6630 eV  745.53 nm  f=0.3983  <S**2>=0.000
     309 -> 316       -0.16582
     311 -> 313        0.68886
     309 <- 316       -0.10534
 This state for optimization and/or second-order correction.
 Total Energy, E(TD-HF/TD-DFT) =  -4069.75406118
 Copying the excited state density for this state as the 1-particle RhoCI density.

 Excited State   2:      Singlet-A      1.7573 eV  705.55 nm  f=0.3818  <S**2>=0.000
     310 -> 315        0.18343
     312 -> 314        0.68375
     310 <- 315        0.10473

 Excited State   3:      Singlet-A      2.1713 eV  571.01 nm  f=0.1371  <S**2>=0.000
     309 -> 313        0.65261
     311 -> 316        0.25468

 Excited State   4:      Singlet-A      2.2202 eV  558.43 nm  f=0.1063  <S**2>=0.000
     310 -> 314        0.63626
     312 -> 315       -0.29385

 Excited State   5:      Singlet-A      3.0269 eV  409.61 nm  f=0.0000  <S**2>=0.000
     312 -> 313        0.70710

 The electronic state is 1-A.
 Alpha  occ. eigenvalues --  -46.88555 -46.87766 -19.25768 -19.25333 -19.19642
 Alpha  occ. eigenvalues --  -19.19610 -19.18901 -19.18774 -19.18477 -19.18217
 Alpha  occ. eigenvalues --  -14.42612 -14.42509 -14.42175 -14.41932 -14.39967
 Alpha  occ. eigenvalues --  -14.39852 -14.39014 -14.38872 -10.39963 -10.38675
 Alpha  occ. eigenvalues --  -10.36003 -10.35470 -10.34747 -10.34659 -10.31984
 Alpha  occ. eigenvalues --  -10.31974 -10.31919 -10.31664 -10.31511 -10.31433
 Alpha  occ. eigenvalues --  -10.31381 -10.31140 -10.31104 -10.30941 -10.30772
 Alpha  occ. eigenvalues --  -10.30702 -10.30626 -10.30553 -10.30479 -10.29455
 Alpha  occ. eigenvalues --  -10.29274 -10.29065 -10.28973 -10.28966 -10.28889
 Alpha  occ. eigenvalues --  -10.28888 -10.28830 -10.28796 -10.28764 -10.28663
 Alpha  occ. eigenvalues --  -10.28652 -10.28609 -10.28599 -10.28430 -10.28261
 Alpha  occ. eigenvalues --  -10.28066 -10.28058 -10.27980 -10.27907 -10.27739
 Alpha  occ. eigenvalues --  -10.27548 -10.27543 -10.27518 -10.27396 -10.27086
 Alpha  occ. eigenvalues --  -10.27018 -10.27011 -10.26979 -10.26849 -10.26550
 Alpha  occ. eigenvalues --  -10.26530 -10.26432 -10.26293 -10.25909 -10.25882
 Alpha  occ. eigenvalues --  -10.25852 -10.25835 -10.25743 -10.25731 -10.25718
 Alpha  occ. eigenvalues --  -10.25670 -10.25638 -10.25253 -10.24890 -10.24714
 Alpha  occ. eigenvalues --  -10.24572  -3.17152  -3.16506  -1.92053  -1.91609
 Alpha  occ. eigenvalues --   -1.91456  -1.91411  -1.90972  -1.90808  -1.17825
 Alpha  occ. eigenvalues --   -1.16011  -1.10394  -1.10112  -1.08417  -1.07813
 Alpha  occ. eigenvalues --   -1.06516  -1.05772  -1.05503  -1.05062  -1.04037
 Alpha  occ. eigenvalues --   -1.02834  -1.02807  -1.02281  -1.01389  -1.00617
 Alpha  occ. eigenvalues --   -0.92316  -0.91874  -0.89704  -0.89605  -0.89072
 Alpha  occ. eigenvalues --   -0.88871  -0.88822  -0.88708  -0.87748  -0.87333
 Alpha  occ. eigenvalues --   -0.87011  -0.86788  -0.85892  -0.85139  -0.84782
 Alpha  occ. eigenvalues --   -0.84368  -0.84064  -0.83509  -0.82952  -0.82906
 Alpha  occ. eigenvalues --   -0.82725  -0.82311  -0.81431  -0.80858  -0.80546
 Alpha  occ. eigenvalues --   -0.80088  -0.78804  -0.78532  -0.77525  -0.77284
 Alpha  occ. eigenvalues --   -0.76903  -0.76822  -0.76220  -0.75977  -0.75509
 Alpha  occ. eigenvalues --   -0.75188  -0.72774  -0.72257  -0.71963  -0.71845
 Alpha  occ. eigenvalues --   -0.70309  -0.69459  -0.69254  -0.68231  -0.67646
 Alpha  occ. eigenvalues --   -0.67641  -0.67154  -0.66958  -0.65902  -0.65312
 Alpha  occ. eigenvalues --   -0.65075  -0.64894  -0.64674  -0.64340  -0.64232
 Alpha  occ. eigenvalues --   -0.63834  -0.62432  -0.61952  -0.60976  -0.60240
 Alpha  occ. eigenvalues --   -0.59541  -0.59174  -0.59093  -0.59011  -0.58526
 Alpha  occ. eigenvalues --   -0.58334  -0.57878  -0.57730  -0.57670  -0.57412
 Alpha  occ. eigenvalues --   -0.56727  -0.56293  -0.56000  -0.55669  -0.55493
 Alpha  occ. eigenvalues --   -0.55312  -0.55002  -0.54816  -0.54337  -0.54302
 Alpha  occ. eigenvalues --   -0.54209  -0.53870  -0.53585  -0.53472  -0.53085
 Alpha  occ. eigenvalues --   -0.52948  -0.52739  -0.52670  -0.52595  -0.52509
 Alpha  occ. eigenvalues --   -0.52168  -0.52140  -0.51451  -0.51158  -0.50844
 Alpha  occ. eigenvalues --   -0.50743  -0.50607  -0.50477  -0.50398  -0.50198
 Alpha  occ. eigenvalues --   -0.50055  -0.49911  -0.49805  -0.49769  -0.49532
 Alpha  occ. eigenvalues --   -0.49442  -0.49091  -0.48853  -0.48823  -0.48739
 Alpha  occ. eigenvalues --   -0.48556  -0.48527  -0.48460  -0.48219  -0.48089
 Alpha  occ. eigenvalues --   -0.48062  -0.47836  -0.47729  -0.47577  -0.47461
 Alpha  occ. eigenvalues --   -0.47031  -0.46769  -0.46662  -0.46533  -0.46348
 Alpha  occ. eigenvalues --   -0.46165  -0.46117  -0.46012  -0.45866  -0.45713
 Alpha  occ. eigenvalues --   -0.45609  -0.45480  -0.45452  -0.45200  -0.45056
 Alpha  occ. eigenvalues --   -0.44955  -0.44684  -0.44545  -0.44387  -0.44366
 Alpha  occ. eigenvalues --   -0.44287  -0.44193  -0.44048  -0.43987  -0.43500
 Alpha  occ. eigenvalues --   -0.43223  -0.43194  -0.43089  -0.42841  -0.42645
 Alpha  occ. eigenvalues --   -0.42515  -0.42448  -0.42212  -0.41931  -0.41862
 Alpha  occ. eigenvalues --   -0.41767  -0.41675  -0.41437  -0.41264  -0.41216
 Alpha  occ. eigenvalues --   -0.40967  -0.40856  -0.40474  -0.40450  -0.40101
 Alpha  occ. eigenvalues --   -0.39965  -0.39872  -0.39542  -0.39241  -0.39117
 Alpha  occ. eigenvalues --   -0.38906  -0.38473  -0.37952  -0.37343  -0.37268
 Alpha  occ. eigenvalues --   -0.37140  -0.36778  -0.36657  -0.36533  -0.36411
 Alpha  occ. eigenvalues --   -0.36122  -0.35877  -0.34481  -0.34316  -0.34108
 Alpha  occ. eigenvalues --   -0.33472  -0.33120  -0.33080  -0.31949  -0.31810
 Alpha  occ. eigenvalues --   -0.31525  -0.31280  -0.30633  -0.30412  -0.30344
 Alpha  occ. eigenvalues --   -0.30328  -0.29184  -0.28745  -0.24261  -0.23945
 Alpha  occ. eigenvalues --   -0.21488  -0.21209
 Alpha virt. eigenvalues --   -0.09304  -0.08551  -0.01893  -0.01673  -0.00222
 Alpha virt. eigenvalues --    0.00319   0.02045   0.02178   0.02660   0.03355
 Alpha virt. eigenvalues --    0.04498   0.05149   0.05209   0.05724   0.05737

 Mulliken charges:
               1
     1  Mg   0.832095
     2  C    0.053287
     3  C   -0.082054
     4  C   -0.070464
     5  C   -0.080623
     6  N   -0.209686
     7  C   -0.071899
     8  C    0.011107
     9  C   -0.072297
    10  C   -0.024600
    11  C    0.046705
    12  C    0.028502
    13  C   -0.068344
    14  H    0.028005
    15  N   -0.362207
    16  C    0.170261
    17  C   -0.116429
    18  C   -0.038005
    19  C    0.148188
    20  C    0.098548
    21  C    0.036633
    22  O   -0.200888
    23  C    0.053968
    24  N   -0.348539
    25  C   -0.000978
    26  C   -0.010939
    27  C   -0.014554
    28  C    0.090634
    29  C    0.058940
    30  C    0.000434
    31  C    0.009585
    32  N   -0.370114
    33  C    0.134140
    34  C   -0.185254
    35  C   -0.007967
    36  C    0.094249
    37  C    0.119453
    38  C    0.044312
    39  O   -0.191206
    40  C   -0.048607
    41  C    0.168027
    42  O   -0.239929
    43  O   -0.279024
    44  C    0.189674
    45  H   -0.020173
    46  H   -0.008657
    47  H   -0.032233
    48  H    0.036474
    49  H    0.020249
    50  H    0.030127
    51  H    0.017500
    52  H    0.014712
    53  H    0.014803
    54  H    0.008432
    55  H    0.040723
    56  H    0.030069
    57  H    0.032426
    58  H    0.010820
    59  H    0.024911
    60  H    0.019478
    61  H    0.028263
    62  H    0.034474
    63  H    0.027659
    64  H    0.006937
    65  H    0.037063
    66  H    0.003361
    67  H    0.012707
    68  H    0.012995
    69  H    0.007174
    70  H    0.015180
    71  H    0.020902
    72  H    0.005633
    73  H    0.033395
    74  H    0.038374
    75  H    0.005106
    76  H    0.046487
    77  H    0.033312
    78  H    0.033823
    79  H    0.035355
    80  Mg   0.833724
    81  C   -0.021264
    82  C   -0.080169
    83  C   -0.082756
    84  C   -0.070304
    85  N   -0.301405
    86  C   -0.047368
    87  C   -0.021579
    88  C   -0.058505
    89  C    0.064050
    90  C    0.100725
    91  C    0.032532
    92  C   -0.071161
    93  H    0.011785
    94  N   -0.386353
    95  C    0.147012
    96  C   -0.156152
    97  C   -0.010719
    98  C    0.125028
    99  C    0.113794
   100  C   -0.027311
   101  O   -0.211681
   102  C    0.063945
   103  N   -0.345408
   104  C    0.087692
   105  C   -0.030119
   106  C   -0.026320
   107  C    0.096074
   108  C    0.087959
   109  C    0.059796
   110  C   -0.013206
   111  N   -0.360265
   112  C    0.064894
   113  C   -0.139139
   114  C   -0.053530
   115  C    0.135986
   116  C    0.107478
   117  C    0.083460
   118  O   -0.200409
   119  C    0.008572
   120  C    0.216112
   121  O   -0.257634
   122  O   -0.336369
   123  C    0.163768
   124  H   -0.033246
   125  H   -0.005307
   126  H   -0.025206
   127  H    0.025821
   128  H    0.008732
   129  H    0.023476
   130  H    0.000246
   131  H    0.025571
   132  H    0.009576
   133  H    0.036933
   134  H    0.030384
   135  H    0.032695
   136  H    0.039148
   137  H    0.020306
   138  H    0.045804
   139  H    0.005854
   140  H    0.040897
   141  H    0.037709
   142  H    0.013763
   143  H   -0.013274
   144  H    0.012824
   145  H    0.026542
   146  H    0.015540
   147  H    0.009182
   148  H    0.003998
   149  H    0.005179
   150  H    0.012482
   151  H    0.021970
   152  H    0.039098
   153  H    0.005106
   154  H    0.032613
   155  H    0.049786
   156  H    0.048531
   157  H    0.042663
   158  H    0.059340
 Sum of Mulliken charges =  -0.00000

 Dipole moment (field-independent basis, Debye):
    X=              4.8321    Y=              1.8797    Z=              3.7187  Tot=              6.3805
 Quadrupole moment (field-independent basis, Debye-Ang):
   XX=           -754.1628   YY=           -467.9576   ZZ=           -523.3446
   XY=             13.0149   XZ=            148.4665   YZ=             14.4269

 Normal termination of Gaussian 16 at Thu Sep  2 20:51:20 2021.
