 Gaussian 16, Revision A.03,
 Gaussian 16:  ES64L-G16RevA.03 25-Dec-2016

 -----------------------------------
 #p cam-b3lyp/Def2SVP td=(nstates=5)
 -----------------------------------

 --------------------------------
 TDDFT excited states in gaussian
 --------------------------------
 Symbolic Z-matrix:
 Charge =  0 Multiplicity = 1

                         Standard orientation:
 ---------------------------------------------------------------------
 Center     Atomic      Atomic             Coordinates (Angstroms)
 Number     Number       Type             X           Y           Z
 ---------------------------------------------------------------------
      1         12           0        8.820653    0.406611   -0.020486
      2          6           0        6.434877   -2.242248   -0.342718
      3          6           0        6.195823    2.493647    0.610079
      4          6           0       10.853912    2.834986   -0.180080
      5          6           0       11.070895   -1.607195   -1.760216
      6          7           0        6.638527    0.051876    0.094120
      7          6           0        5.857427   -1.020510    0.010200
      8          6           0        4.377243   -0.739279    0.406861
      9          6           0        4.333860    0.828819    0.121930
     10          6           0        5.803978    1.152698    0.321383
     11          6           0        3.944180    1.177138   -1.311013
     12          6           0        4.095278   -1.055675    1.914216
     13          6           0        2.615272   -1.121134    2.302357
     14          1           0        2.197003   -2.086314    3.307756
     15          7           0        8.658305    2.259412    0.645564
     16          6           0        7.509858    2.945571    0.858965
     17          6           0        7.917227    4.278270    1.353583
     18          6           0        9.398197    4.376249    1.230208
     19          6           0        9.697249    3.155078    0.526869
     20          6           0        6.953168    5.277059    1.916398
     21          6           0       10.385853    5.411879    1.666257
     22          8           0       11.596710    5.412441    1.255893
     23          6           0        9.869287    6.490745    2.527796
     24          7           0       10.622001    0.685925   -1.037720
     25          6           0       11.331931    1.809577   -0.888092
     26          6           0       12.703676    1.671531   -1.479020
     27          6           0       12.870968    0.127996   -1.852202
     28          6           0       11.454910   -0.363660   -1.463198
     29          6           0       12.987608    2.530105   -2.719280
     30          6           0       14.096974   -0.610126   -1.258483
     31          6           0       13.949921   -0.724383    0.242324
     32          7           0        8.852794   -1.636765   -0.751667
     33          6           0        9.884204   -2.259242   -1.469574
     34          6           0        9.403877   -3.603806   -1.837679
     35          6           0        8.111814   -3.664371   -1.319266
     36          6           0        7.794883   -2.425992   -0.691361
     37          6           0       10.117588   -4.560687   -2.611908
     38          6           0        6.916244   -4.478333   -1.171164
     39          8           0        6.628745   -5.650158   -1.419488
     40          6           0        5.738838   -3.547212   -0.639605
     41          6           0        5.072556   -4.264532    0.502686
     42          8           0        5.679718   -4.462996    1.574756
     43          8           0        3.762043   -4.391631    0.243953
     44          6           0        3.036477   -5.069108    1.351533
     45          1           0        5.440075    3.281180    0.586012
     46          1           0       11.625946    3.607094   -0.164189
     47          1           0       11.748807   -2.322232   -2.229906
     48          1           0        3.636780   -1.250165   -0.208877
     49          1           0        3.726192    1.358976    0.855002
     50          1           0        3.886080    0.286035   -1.935896
     51          1           0        4.727189    1.844532   -1.671533
     52          1           0        3.022082    1.758606   -1.331227
     53          1           0        4.409759   -0.208833    2.524150
     54          1           0        4.587566   -1.981915    2.212641
     55          1           0        1.974820   -1.184586    1.422185
     56          1           0        2.342201   -0.174322    2.768384
     57          1           0        5.920390    4.989757    1.723081
     58          1           0        7.087774    6.201116    1.354518
     59          1           0        7.126794    5.462771    2.976444
     60          1           0        9.069655    7.016572    2.005643
     61          1           0       10.734501    7.088225    2.812879
     62          1           0        9.416410    6.047681    3.415233
     63          1           0       13.470321    1.949575   -0.756959
     64          1           0       12.963631   -0.025065   -2.927684
     65          1           0       13.848517    3.189686   -2.607495
     66          1           0       12.086793    3.098417   -2.949161
     67          1           0       13.130296    1.967685   -3.641636
     68          1           0       15.008724   -0.045120   -1.449339
     69          1           0       14.235696   -1.611347   -1.666605
     70          1           0       14.320543    0.236662    0.597097
     71          1           0       14.561155   -1.543258    0.623175
     72          1           0       12.902408   -0.797916    0.535231
     73          1           0        9.975061   -5.521162   -2.116789
     74          1           0       11.174425   -4.304272   -2.682274
     75          1           0        9.601852   -4.472064   -3.567951
     76          1           0        5.059676   -3.391714   -1.477269
     77          1           0        2.523352   -5.928860    0.920531
     78          1           0        2.426436   -4.305818    1.834901
     79          1           0        3.655080   -5.555803    2.106381
     80         12           0       -8.779697    0.274580   -0.484608
     81          6           0       -7.204319   -1.218517    2.287086
     82          6           0       -8.258235    3.324805    1.102217
     83          6           0       -9.841546    1.840271   -3.225530
     84          6           0       -8.339092   -2.708966   -2.201498
     85          7           0       -7.667866    0.925198    1.428473
     86          6           0       -7.206018    0.167610    2.487079
     87          6           0       -6.997052    0.922040    3.783305
     88          6           0       -7.358920    2.378739    3.407389
     89          6           0       -7.773636    2.249899    1.905011
     90          6           0       -8.493995    3.021392    4.303581
     91          6           0       -5.539891    0.845470    4.424367
     92          6           0       -4.339737    0.712552    3.472754
     93          1           0       -3.457553    1.970106    3.216068
     94          7           0       -9.017638    2.258154   -0.970938
     95          6           0       -8.810365    3.350345   -0.177286
     96          6           0       -9.247893    4.567276   -0.875589
     97          6           0       -9.723282    4.150342   -2.156558
     98          6           0       -9.521730    2.668810   -2.157237
     99          6           0       -9.189568    5.960595   -0.260747
    100          6           0      -10.176113    5.240357   -3.198159
    101          8           0      -10.069007    6.416386   -2.879512
    102          6           0      -10.664776    4.809679   -4.644800
    103          7           0       -8.923217   -0.315099   -2.424212
    104          6           0       -9.554007    0.470923   -3.385833
    105          6           0       -9.778181   -0.374375   -4.763384
    106          6           0       -9.104525   -1.792331   -4.348880
    107          6           0       -8.781369   -1.581323   -2.904726
    108          6           0      -11.278623   -0.478273   -5.166415
    109          6           0       -7.816003   -2.201295   -5.183567
    110          6           0       -7.760186   -3.593070   -5.832296
    111          7           0       -8.055407   -1.660428   -0.048431
    112          6           0       -7.913748   -2.784753   -0.820751
    113          6           0       -7.288129   -3.842485    0.000684
    114          6           0       -7.110061   -3.260197    1.284296
    115          6           0       -7.556952   -1.915239    1.157731
    116          6           0       -6.900339   -5.230845   -0.426988
    117          6           0       -6.542646   -3.536569    2.617523
    118          8           0       -6.115543   -4.569521    3.153672
    119          6           0       -6.781295   -2.238395    3.374221
    120          6           0       -7.689247   -2.388538    4.461090
    121          8           0       -8.934905   -2.431913    4.288579
    122          8           0       -7.012953   -2.439700    5.696144
    123          6           0       -7.807620   -2.428344    6.920133
    124          1           0       -8.279844    4.286634    1.618185
    125          1           0      -10.338523    2.295679   -4.084152
    126          1           0       -8.291099   -3.625418   -2.792579
    127          1           0       -7.720775    0.451839    4.447987
    128          1           0       -6.411056    2.914845    3.376754
    129          1           0       -8.063306    3.804752    4.927181
    130          1           0       -8.891177    2.207674    4.910976
    131          1           0       -9.275933    3.473466    3.692510
    132          1           0       -5.610108   -0.083795    4.991154
    133          1           0       -5.412565    1.676130    5.118931
    134          1           0       -4.661538    0.343109    2.498505
    135          1           0       -3.701842   -0.088193    3.844581
    136          1           0       -8.371732    6.584970   -0.620537
    137          1           0       -9.307964    5.916556    0.821981
    138          1           0      -10.098449    6.519000   -0.484162
    139          1           0      -11.384257    4.002358   -4.506032
    140          1           0       -9.787014    4.476275   -5.197763
    141          1           0      -10.970446    5.643960   -5.276180
    142          1           0       -9.320565    0.220021   -5.553634
    143          1           0       -9.889681   -2.545875   -4.414561
    144          1           0      -11.657910   -1.419281   -4.768532
    145          1           0      -11.438678   -0.356248   -6.237735
    146          1           0      -11.899679    0.331704   -4.784245
    147          1           0       -6.959332   -2.042621   -4.527770
    148          1           0       -7.833263   -1.456455   -5.979181
    149          1           0       -6.739187   -3.894757   -6.067674
    150          1           0       -8.346652   -3.447154   -6.739137
    151          1           0       -8.215364   -4.249637   -5.090491
    152          1           0       -6.731778   -5.138024   -1.499529
    153          1           0       -7.824528   -5.786721   -0.269055
    154          1           0       -6.106635   -5.694876    0.159252
    155          1           0       -5.774622   -2.006254    3.721111
    156          1           0       -8.457495   -3.283896    7.104153
    157          1           0       -8.426079   -1.530924    6.953429
    158          1           0       -7.111502   -2.226937    7.734518
 ---------------------------------------------------------------------

 SCF Done:  E(RCAM-B3LYP) =  -4069.80539515     A.U. after   18 cycles

 Excitation energies and oscillator strengths:

 Excited State   1:      Singlet-A      1.6788 eV  738.52 nm  f=0.2927  <S**2>=0.000
     310 -> 316       -0.17336
     311 -> 313        0.67894
     310 <- 316       -0.10390
 This state for optimization and/or second-order correction.
 Total Energy, E(TD-HF/TD-DFT) =  -4069.74369925
 Copying the excited state density for this state as the 1-particle RhoCI density.

 Excited State   2:      Singlet-A      1.7184 eV  721.51 nm  f=0.4507  <S**2>=0.000
     309 -> 315       -0.17992
     312 -> 314        0.67819
     309 <- 315       -0.10693

 Excited State   3:      Singlet-A      2.1920 eV  565.62 nm  f=0.1019  <S**2>=0.000
     310 -> 313        0.64083
     311 -> 316        0.27776

 Excited State   4:      Singlet-A      2.3101 eV  536.70 nm  f=0.0704  <S**2>=0.000
     309 -> 314        0.61632
     312 -> 315        0.33589

 Excited State   5:      Singlet-A      2.8071 eV  441.69 nm  f=0.0000  <S**2>=0.000
     312 -> 313        0.70706

 The electronic state is 1-A.
 Alpha  occ. eigenvalues --  -46.89091 -46.87698 -19.26099 -19.25948 -19.20391
 Alpha  occ. eigenvalues --  -19.19768 -19.19359 -19.18858 -19.18730 -19.18059
 Alpha  occ. eigenvalues --  -14.42810 -14.42346 -14.42242 -14.41354 -14.40123
 Alpha  occ. eigenvalues --  -14.39479 -14.39306 -14.38488 -10.40180 -10.38919
 Alpha  occ. eigenvalues --  -10.36646 -10.35517 -10.35365 -10.34276 -10.32257
 Alpha  occ. eigenvalues --  -10.32033 -10.31523 -10.31448 -10.31297 -10.31096
 Alpha  occ. eigenvalues --  -10.30799 -10.30793 -10.30761 -10.30469 -10.30411
 Alpha  occ. eigenvalues --  -10.30250 -10.30117 -10.30007 -10.29827 -10.29535
 Alpha  occ. eigenvalues --  -10.29435 -10.29298 -10.29161 -10.28657 -10.28612
 Alpha  occ. eigenvalues --  -10.28532 -10.28505 -10.28474 -10.28438 -10.28341
 Alpha  occ. eigenvalues --  -10.28263 -10.28192 -10.27990 -10.27936 -10.27913
 Alpha  occ. eigenvalues --  -10.27696 -10.27630 -10.27627 -10.27626 -10.27490
 Alpha  occ. eigenvalues --  -10.27421 -10.27395 -10.27369 -10.27323 -10.27296
 Alpha  occ. eigenvalues --  -10.27281 -10.27031 -10.26974 -10.26889 -10.26814
 Alpha  occ. eigenvalues --  -10.26704 -10.26695 -10.26547 -10.26335 -10.26158
 Alpha  occ. eigenvalues --  -10.26112 -10.26108 -10.25996 -10.25926 -10.25756
 Alpha  occ. eigenvalues --  -10.25624 -10.25362 -10.25337 -10.24733 -10.24692
 Alpha  occ. eigenvalues --  -10.24610  -3.17717  -3.16441  -1.92575  -1.92189
 Alpha  occ. eigenvalues --   -1.92022  -1.91322  -1.90909  -1.90751  -1.16453
 Alpha  occ. eigenvalues --   -1.15127  -1.10568  -1.09222  -1.08513  -1.07177
 Alpha  occ. eigenvalues --   -1.07132  -1.06478  -1.04476  -1.04311  -1.03711
 Alpha  occ. eigenvalues --   -1.03663  -1.03137  -1.02775  -1.02313  -1.02051
 Alpha  occ. eigenvalues --   -0.93303  -0.91863  -0.89429  -0.89311  -0.89059
 Alpha  occ. eigenvalues --   -0.89053  -0.88198  -0.88198  -0.87774  -0.87566
 Alpha  occ. eigenvalues --   -0.87183  -0.86968  -0.86237  -0.85723  -0.84858
 Alpha  occ. eigenvalues --   -0.84695  -0.84058  -0.83845  -0.82972  -0.82881
 Alpha  occ. eigenvalues --   -0.82527  -0.81827  -0.81444  -0.81161  -0.80476
 Alpha  occ. eigenvalues --   -0.80255  -0.78704  -0.78312  -0.77388  -0.77113
 Alpha  occ. eigenvalues --   -0.76955  -0.76802  -0.76666  -0.75794  -0.75063
 Alpha  occ. eigenvalues --   -0.74800  -0.72676  -0.72493  -0.71916  -0.71566
 Alpha  occ. eigenvalues --   -0.69822  -0.69498  -0.69066  -0.68754  -0.68582
 Alpha  occ. eigenvalues --   -0.67537  -0.67090  -0.66980  -0.65920  -0.65357
 Alpha  occ. eigenvalues --   -0.65160  -0.64749  -0.64740  -0.64500  -0.64374
 Alpha  occ. eigenvalues --   -0.64175  -0.62598  -0.62152  -0.60391  -0.60352
 Alpha  occ. eigenvalues --   -0.59785  -0.59686  -0.59223  -0.58883  -0.58815
 Alpha  occ. eigenvalues --   -0.58398  -0.57913  -0.57459  -0.57346  -0.57205
 Alpha  occ. eigenvalues --   -0.56309  -0.56208  -0.55819  -0.55762  -0.55417
 Alpha  occ. eigenvalues --   -0.55230  -0.55131  -0.54585  -0.54399  -0.54349
 Alpha  occ. eigenvalues --   -0.53916  -0.53766  -0.53226  -0.53198  -0.53106
 Alpha  occ. eigenvalues --   -0.52791  -0.52743  -0.52651  -0.52497  -0.52350
 Alpha  occ. eigenvalues --   -0.52284  -0.51819  -0.51766  -0.51492  -0.51344
 Alpha  occ. eigenvalues --   -0.51099  -0.51083  -0.50863  -0.50488  -0.50453
 Alpha  occ. eigenvalues --   -0.50133  -0.49944  -0.49820  -0.49535  -0.49503
 Alpha  occ. eigenvalues --   -0.49425  -0.49401  -0.49119  -0.49107  -0.48971
 Alpha  occ. eigenvalues --   -0.48722  -0.48524  -0.48472  -0.48371  -0.48337
 Alpha  occ. eigenvalues --   -0.48293  -0.47584  -0.47511  -0.47360  -0.47194
 Alpha  occ. eigenvalues --   -0.46779  -0.46693  -0.46603  -0.46425  -0.46386
 Alpha  occ. eigenvalues --   -0.46329  -0.46258  -0.46054  -0.45940  -0.45696
 Alpha  occ. eigenvalues --   -0.45561  -0.45130  -0.45111  -0.44959  -0.44763
 Alpha  occ. eigenvalues --   -0.44700  -0.44460  -0.44403  -0.44349  -0.44081
 Alpha  occ. eigenvalues --   -0.44046  -0.43965  -0.43906  -0.43417  -0.43361
 Alpha  occ. eigenvalues --   -0.43276  -0.43189  -0.43088  -0.42919  -0.42830
 Alpha  occ. eigenvalues --   -0.42590  -0.42556  -0.42506  -0.42412  -0.42251
 Alpha  occ. eigenvalues --   -0.41904  -0.41719  -0.41596  -0.41406  -0.41221
 Alpha  occ. eigenvalues --   -0.41032  -0.40762  -0.40754  -0.40724  -0.40472
 Alpha  occ. eigenvalues --   -0.40423  -0.40086  -0.39980  -0.39842  -0.39357
 Alpha  occ. eigenvalues --   -0.39134  -0.38373  -0.37858  -0.37681  -0.37608
 Alpha  occ. eigenvalues --   -0.37242  -0.37225  -0.37185  -0.37137  -0.36802
 Alpha  occ. eigenvalues --   -0.36571  -0.36067  -0.34913  -0.34560  -0.34185
 Alpha  occ. eigenvalues --   -0.33621  -0.33357  -0.33082  -0.31566  -0.31358
 Alpha  occ. eigenvalues --   -0.31260  -0.31137  -0.30933  -0.30421  -0.29916
 Alpha  occ. eigenvalues --   -0.29758  -0.29355  -0.29224  -0.24300  -0.23980
 Alpha  occ. eigenvalues --   -0.21029  -0.20989
 Alpha virt. eigenvalues --   -0.08677  -0.08343  -0.01963  -0.01653   0.00039
 Alpha virt. eigenvalues --    0.00118   0.01506   0.01899   0.02302   0.03221
 Alpha virt. eigenvalues --    0.03280   0.04775   0.04836   0.05017   0.05252

 Mulliken charges:
               1
     1  Mg   0.838636
     2  C   -0.002895
     3  C   -0.094106
     4  C   -0.045992
     5  C   -0.064147
     6  N   -0.256804
     7  C   -0.052425
     8  C   -0.013936
     9  C   -0.086934
    10  C    0.046347
    11  C    0.104828
    12  C    0.053482
    13  C   -0.072292
    14  H    0.037261
    15  N   -0.433118
    16  C    0.168400
    17  C   -0.177207
    18  C   -0.004121
    19  C    0.148700
    20  C    0.110200
    21  C    0.012206
    22  O   -0.249794
    23  C    0.062511
    24  N   -0.341148
    25  C    0.041191
    26  C   -0.028107
    27  C   -0.023949
    28  C    0.074858
    29  C    0.076237
    30  C    0.035170
    31  C   -0.004476
    32  N   -0.310482
    33  C    0.080471
    34  C   -0.169815
    35  C    0.008382
    36  C    0.082979
    37  C    0.127315
    38  C    0.046025
    39  O   -0.188287
    40  C   -0.005188
    41  C    0.212932
    42  O   -0.257205
    43  O   -0.304864
    44  C    0.157483
    45  H   -0.017604
    46  H   -0.017023
    47  H   -0.041666
    48  H    0.001287
    49  H   -0.003868
    50  H    0.025390
    51  H    0.016117
    52  H    0.016959
    53  H    0.010841
    54  H    0.044161
    55  H    0.018535
    56  H    0.017671
    57  H    0.005898
    58  H    0.026676
    59  H    0.039381
    60  H    0.037275
    61  H    0.035477
    62  H    0.031465
    63  H    0.016451
    64  H    0.009306
    65  H    0.023059
    66  H    0.012508
    67  H    0.004596
    68  H    0.006203
    69  H    0.004655
    70  H    0.008715
    71  H    0.018070
    72  H    0.029114
    73  H    0.047604
    74  H    0.008976
    75  H    0.045846
    76  H    0.035110
    77  H    0.043578
    78  H    0.047285
    79  H    0.053629
    80  Mg   0.851522
    81  C   -0.100304
    82  C   -0.078684
    83  C   -0.099097
    84  C   -0.088729
    85  N   -0.279402
    86  C   -0.081712
    87  C   -0.019132
    88  C   -0.002806
    89  C   -0.000322
    90  C    0.073966
    91  C    0.026939
    92  C   -0.063991
    93  H    0.018400
    94  N   -0.362140
    95  C    0.140213
    96  C   -0.140778
    97  C   -0.078252
    98  C    0.187115
    99  C    0.142482
   100  C    0.026514
   101  O   -0.197123
   102  C    0.035362
   103  N   -0.347459
   104  C    0.055785
   105  C   -0.054202
   106  C   -0.028339
   107  C    0.060997
   108  C    0.055148
   109  C    0.021267
   110  C    0.018607
   111  N   -0.317878
   112  C    0.107122
   113  C   -0.195301
   114  C   -0.057854
   115  C    0.233694
   116  C    0.136078
   117  C    0.071470
   118  O   -0.181918
   119  C    0.008260
   120  C    0.252179
   121  O   -0.249646
   122  O   -0.351523
   123  C    0.192932
   124  H   -0.033435
   125  H   -0.057727
   126  H   -0.040757
   127  H    0.024014
   128  H    0.018114
   129  H    0.021132
   130  H    0.019035
   131  H    0.026451
   132  H    0.016171
   133  H    0.022990
   134  H    0.041966
   135  H    0.032816
   136  H    0.040036
   137  H    0.001891
   138  H    0.021139
   139  H    0.054868
   140  H    0.038619
   141  H    0.026311
   142  H    0.018402
   143  H    0.012036
   144  H    0.016869
   145  H    0.016292
   146  H    0.011177
   147  H    0.023876
   148  H    0.000287
   149  H    0.028663
   150  H    0.019898
   151  H    0.019113
   152  H    0.013925
   153  H    0.031919
   154  H    0.042825
   155  H    0.029856
   156  H    0.051329
   157  H    0.016660
   158  H    0.033779
 Sum of Mulliken charges =  -0.00000

 Dipole moment (field-independent basis, Debye):
    X=             -4.0159    Y=              4.9794    Z=             -1.6770  Tot=              6.6132
 Quadrupole moment (field-independent basis, Debye-Ang):
   XX=           -502.1920   YY=           -568.6231   ZZ=           -467.6902
   XY=             11.4834   XZ=              2.2292   YZ=             30.8287

 Normal termination of Gaussian 16 at Wed Sep  1 15:35:00 2021.
