 Gaussian 16, Revision A.03,
 Gaussian 16:  ES64L-G16RevA.03 25-Dec-2016

 ----------------------------------------------------------
 #p cam-b3lyp/Def2SVP td=(nstates=5) density=(transition=1)
 ----------------------------------------------------------

 --------------------------------
 TDDFT excited states in gaussian
 --------------------------------
 Symbolic Z-matrix:
 Charge =  0 Multiplicity = 1

                         Standard orientation:
 ---------------------------------------------------------------------
 Center     Atomic      Atomic             Coordinates (Angstroms)
 Number     Number       Type             X           Y           Z
 ---------------------------------------------------------------------
      1         12           0       -9.098948   -0.981532    0.635641
      2          6           0      -10.046014    2.287873   -0.195925
      3          6           0       -6.569101    0.388761    2.699173
      4          6           0       -7.935720   -4.123113    1.189584
      5          6           0      -11.086708   -2.139310   -1.939118
      6          7           0       -8.546961    1.067875    1.273729
      7          6           0       -9.231421    2.230389    0.907569
      8          6           0       -8.857929    3.383793    1.906985
      9          6           0       -7.713402    2.764404    2.717386
     10          6           0       -7.554534    1.304820    2.165275
     11          6           0       -6.413053    3.593498    2.538692
     12          6           0      -10.106471    3.772846    2.689149
     13          6           0      -10.209676    5.197833    3.207752
     14          1           0       -8.936451    6.073729    3.198070
     15          7           0       -7.498400   -1.806496    1.780685
     16          6           0       -6.558397   -1.073465    2.529771
     17          6           0       -5.586543   -1.963125    3.140841
     18          6           0       -5.966330   -3.319948    2.796713
     19          6           0       -7.164006   -3.120348    1.872728
     20          6           0       -4.504187   -1.513013    4.130359
     21          6           0       -5.370018   -4.652727    3.207019
     22          8           0       -5.865133   -5.699225    2.810277
     23          6           0       -4.324400   -4.669451    4.254952
     24          7           0       -9.538378   -2.877581   -0.235016
     25          6           0       -8.987233   -4.029840    0.238215
     26          6           0       -9.675270   -5.250625   -0.426856
     27          6           0      -10.749019   -4.626180   -1.400038
     28          6           0      -10.554905   -3.112130   -1.127229
     29          6           0       -8.631824   -6.133835   -1.134159
     30          6           0      -12.216841   -5.030928   -1.100388
     31          6           0      -12.652319   -6.106273   -2.090998
     32          7           0      -10.269766   -0.172360   -0.898005
     33          6           0      -10.969010   -0.719577   -1.921525
     34          6           0      -11.415795    0.391866   -2.796079
     35          6           0      -11.183018    1.559515   -2.130223
     36          6           0      -10.436937    1.155094   -0.993823
     37          6           0      -12.184138    0.131159   -4.080764
     38          6           0      -11.367463    3.016749   -2.110348
     39          8           0      -11.905948    3.740121   -2.939569
     40          6           0      -10.715469    3.486165   -0.824142
     41          6           0       -9.822853    4.588478   -1.215637
     42          8           0       -8.703383    4.562703   -1.744654
     43          8           0      -10.487309    5.769654   -0.956074
     44          6           0       -9.812205    6.992365   -1.333354
     45          1           0       -5.855911    0.846424    3.387583
     46          1           0       -7.569737   -5.102609    1.504493
     47          1           0      -11.619353   -2.578642   -2.785216
     48          1           0       -8.519419    4.147191    1.205417
     49          1           0       -7.975766    2.916244    3.764341
     50          1           0       -5.623694    3.094742    1.976068
     51          1           0       -5.935773    3.617741    3.517933
     52          1           0       -6.597962    4.550111    2.050405
     53          1           0      -10.168942    3.023913    3.479226
     54          1           0      -10.983593    3.552054    2.082007
     55          1           0      -10.629606    5.171602    4.212365
     56          1           0      -10.974381    5.605984    2.545955
     57          1           0       -4.414217   -0.430744    4.225546
     58          1           0       -3.532107   -1.894272    3.814783
     59          1           0       -4.683278   -2.003954    5.086189
     60          1           0       -4.765364   -4.322705    5.189853
     61          1           0       -3.410076   -4.190421    3.904830
     62          1           0       -4.012145   -5.684907    4.498965
     63          1           0      -10.105035   -5.857918    0.369432
     64          1           0      -10.392522   -4.863658   -2.403196
     65          1           0       -8.784183   -6.312499   -2.198174
     66          1           0       -8.817265   -7.070141   -0.608246
     67          1           0       -7.614819   -5.743434   -1.109642
     68          1           0      -12.895324   -4.227710   -1.388345
     69          1           0      -12.376913   -5.381614   -0.080654
     70          1           0      -13.124848   -6.858770   -1.459865
     71          1           0      -11.829226   -6.661811   -2.539785
     72          1           0      -13.337231   -5.774717   -2.871923
     73          1           0      -12.178556   -0.903089   -4.425833
     74          1           0      -11.841085    0.751724   -4.907695
     75          1           0      -13.246245    0.266922   -3.873784
     76          1           0      -11.508158    3.818050   -0.154410
     77          1           0       -9.497686    6.887060   -2.371981
     78          1           0       -8.934025    7.210693   -0.725313
     79          1           0      -10.615012    7.715892   -1.471045
     80         12           0        9.360604   -0.317412   -0.181051
     81          6           0        7.231080    2.436343   -0.278455
     82          6           0       11.923162    1.731690    0.853033
     83          6           0       11.357967   -3.030865   -0.404804
     84          6           0        6.735823   -2.258271   -1.634770
     85          7           0        9.540168    1.829687    0.117641
     86          6           0        8.556337    2.767559    0.055189
     87          6           0        9.059326    4.139102    0.523757
     88          6           0       10.612950    3.854796    0.728110
     89          6           0       10.683040    2.333364    0.560138
     90          6           0       11.468534    4.574657   -0.307333
     91          6           0        8.491934    4.646077    1.897325
     92          6           0        8.413889    6.136082    2.106407
     93          1           0        9.154285    7.030888    1.216539
     94          7           0       11.304981   -0.613626    0.255954
     95          6           0       12.210516    0.384306    0.668405
     96          6           0       13.426475   -0.298804    1.024557
     97          6           0       13.298936   -1.679971    0.730627
     98          6           0       11.938014   -1.835983    0.160677
     99          6           0       14.699285    0.423661    1.411072
    100          6           0       14.221738   -2.806704    0.938934
    101          8           0       14.051090   -3.905504    0.455320
    102          6           0       15.588489   -2.588394    1.683810
    103          7           0        9.071883   -2.462806   -0.764705
    104          6           0       10.047609   -3.320941   -0.781127
    105          6           0        9.581692   -4.703252   -1.329468
    106          6           0        8.111880   -4.507085   -1.653722
    107          6           0        7.913182   -2.969250   -1.400726
    108          6           0       10.539413   -5.184742   -2.518650
    109          6           0        7.182272   -5.428139   -0.835569
    110          6           0        6.718904   -6.770517   -1.515427
    111          7           0        7.385376   -0.116717   -0.581066
    112          6           0        6.431415   -0.981115   -1.173318
    113          6           0        5.170302   -0.353003   -1.284608
    114          6           0        5.495181    1.042641   -1.007465
    115          6           0        6.847012    1.068110   -0.559866
    116          6           0        3.939988   -0.934914   -1.956422
    117          6           0        4.894023    2.324851   -1.034747
    118          8           0        3.756704    2.695129   -1.297558
    119          6           0        6.072039    3.340645   -0.433582
    120          6           0        6.196825    4.438248   -1.449093
    121          8           0        6.493440    4.263156   -2.635606
    122          8           0        5.802685    5.709546   -0.935950
    123          6           0        5.889088    6.853772   -1.896442
    124          1           0       12.689000    2.440742    1.176505
    125          1           0       12.104564   -3.797369   -0.621132
    126          1           0        5.884893   -2.817041   -2.029027
    127          1           0        8.875463    4.826914   -0.301897
    128          1           0       10.979865    4.180872    1.701238
    129          1           0       10.898129    5.346968   -0.822641
    130          1           0       11.957811    3.889717   -1.000374
    131          1           0       12.242595    5.208570    0.125260
    132          1           0        9.093559    4.194515    2.685377
    133          1           0        7.522227    4.164830    2.026353
    134          1           0        8.856388    6.340931    3.081008
    135          1           0        7.369190    6.445250    2.071990
    136          1           0       15.495328    0.314772    0.674562
    137          1           0       15.006747    0.060976    2.392795
    138          1           0       14.626040    1.506819    1.507220
    139          1           0       16.270014   -2.180465    0.936888
    140          1           0       16.034571   -3.550042    1.937837
    141          1           0       15.480560   -1.865787    2.491776
    142          1           0        9.735973   -5.365784   -0.477589
    143          1           0        7.918487   -4.590505   -2.722072
    144          1           0        9.961241   -5.378801   -3.421960
    145          1           0       11.015851   -6.147344   -2.331844
    146          1           0       11.219141   -4.346091   -2.674965
    147          1           0        6.294119   -4.835540   -0.613413
    148          1           0        7.692349   -5.624567    0.107597
    149          1           0        5.836964   -6.547311   -2.116848
    150          1           0        6.549254   -7.647812   -0.890896
    151          1           0        7.532003   -6.919885   -2.225019
    152          1           0        3.480807   -1.523191   -1.162382
    153          1           0        4.210324   -1.591253   -2.782762
    154          1           0        3.311359   -0.235154   -2.508613
    155          1           0        5.761848    3.691976    0.551294
    156          1           0        5.212947    6.721331   -2.740300
    157          1           0        6.862020    7.102722   -2.320984
    158          1           0        5.493986    7.641489   -1.254964
 ---------------------------------------------------------------------

 SCF Done:  E(RCAM-B3LYP) =  -4069.83607140     A.U. after   19 cycles

 Excitation energies and oscillator strengths:

 Excited State   1:      Singlet-A      1.6777 eV  739.01 nm  f=0.4695  <S**2>=0.000
     310 -> 316        0.17158
     312 -> 314        0.68312
     310 <- 316        0.10372
 This state for optimization and/or second-order correction.
 Total Energy, E(TD-HF/TD-DFT) =  -4069.77441692
 Copying the excited state density for this state as the 1-particle RhoCI density.

 Excited State   2:      Singlet-A      1.7266 eV  718.09 nm  f=0.3137  <S**2>=0.000
     309 -> 315       -0.17452
     311 -> 313        0.68239
     309 <- 315       -0.10496

 Excited State   3:      Singlet-A      2.1964 eV  564.50 nm  f=0.1001  <S**2>=0.000
     310 -> 314        0.64371
     312 -> 316       -0.27284

 Excited State   4:      Singlet-A      2.2228 eV  557.79 nm  f=0.1585  <S**2>=0.000
     309 -> 313        0.64904
     311 -> 315        0.26079

 Excited State   5:      Singlet-A      2.6773 eV  463.09 nm  f=0.0000  <S**2>=0.000
     312 -> 313        0.70690

 The electronic state is 1-A.
 Alpha  occ. eigenvalues --  -46.88920 -46.88006 -19.24243 -19.24148 -19.19570
 Alpha  occ. eigenvalues --  -19.19449 -19.19290 -19.19101 -19.19035 -19.18229
 Alpha  occ. eigenvalues --  -14.42706 -14.41989 -14.41668 -14.41547 -14.40188
 Alpha  occ. eigenvalues --  -14.39923 -14.39370 -14.39005 -10.39142 -10.39065
 Alpha  occ. eigenvalues --  -10.35490 -10.35310 -10.35206 -10.34348 -10.31787
 Alpha  occ. eigenvalues --  -10.31715 -10.31627 -10.31175 -10.31175 -10.31022
 Alpha  occ. eigenvalues --  -10.30956 -10.30872 -10.30826 -10.30803 -10.30758
 Alpha  occ. eigenvalues --  -10.30709 -10.30444 -10.29896 -10.29717 -10.29347
 Alpha  occ. eigenvalues --  -10.29149 -10.28916 -10.28886 -10.28872 -10.28522
 Alpha  occ. eigenvalues --  -10.28392 -10.28203 -10.28123 -10.28063 -10.27968
 Alpha  occ. eigenvalues --  -10.27958 -10.27865 -10.27853 -10.27791 -10.27789
 Alpha  occ. eigenvalues --  -10.27777 -10.27627 -10.27579 -10.27544 -10.27515
 Alpha  occ. eigenvalues --  -10.27490 -10.27470 -10.27433 -10.27401 -10.27397
 Alpha  occ. eigenvalues --  -10.27186 -10.26916 -10.26826 -10.26603 -10.26383
 Alpha  occ. eigenvalues --  -10.26367 -10.26345 -10.26336 -10.26335 -10.26146
 Alpha  occ. eigenvalues --  -10.26035 -10.26001 -10.25869 -10.25857 -10.25810
 Alpha  occ. eigenvalues --  -10.25327 -10.25257 -10.25108 -10.24876 -10.24576
 Alpha  occ. eigenvalues --  -10.24549  -3.17318  -3.16702  -1.92231  -1.91732
 Alpha  occ. eigenvalues --   -1.91650  -1.91613  -1.91150  -1.91020  -1.15578
 Alpha  occ. eigenvalues --   -1.13444  -1.11145  -1.10290  -1.09814  -1.08635
 Alpha  occ. eigenvalues --   -1.06645  -1.05822  -1.05216  -1.04123  -1.03972
 Alpha  occ. eigenvalues --   -1.03400  -1.02599  -1.02444  -1.02434  -1.01431
 Alpha  occ. eigenvalues --   -0.93169  -0.92123  -0.89316  -0.89061  -0.89001
 Alpha  occ. eigenvalues --   -0.88619  -0.88431  -0.87789  -0.87778  -0.87506
 Alpha  occ. eigenvalues --   -0.86913  -0.86656  -0.86285  -0.85399  -0.84358
 Alpha  occ. eigenvalues --   -0.84111  -0.83707  -0.83006  -0.82536  -0.82227
 Alpha  occ. eigenvalues --   -0.82208  -0.81517  -0.80702  -0.80412  -0.80042
 Alpha  occ. eigenvalues --   -0.79827  -0.78812  -0.77898  -0.77288  -0.77075
 Alpha  occ. eigenvalues --   -0.76885  -0.76607  -0.75878  -0.75766  -0.75078
 Alpha  occ. eigenvalues --   -0.74343  -0.73142  -0.72341  -0.71639  -0.70809
 Alpha  occ. eigenvalues --   -0.69589  -0.68996  -0.68856  -0.68329  -0.68013
 Alpha  occ. eigenvalues --   -0.67737  -0.67317  -0.66884  -0.65817  -0.65274
 Alpha  occ. eigenvalues --   -0.65258  -0.64975  -0.64707  -0.64632  -0.64437
 Alpha  occ. eigenvalues --   -0.63698  -0.61923  -0.61407  -0.60374  -0.59937
 Alpha  occ. eigenvalues --   -0.59664  -0.59446  -0.59342  -0.58892  -0.58592
 Alpha  occ. eigenvalues --   -0.58556  -0.58159  -0.57798  -0.57451  -0.57374
 Alpha  occ. eigenvalues --   -0.56284  -0.55689  -0.55570  -0.54998  -0.54890
 Alpha  occ. eigenvalues --   -0.54648  -0.54579  -0.54031  -0.53471  -0.53432
 Alpha  occ. eigenvalues --   -0.53420  -0.53250  -0.53234  -0.53133  -0.52925
 Alpha  occ. eigenvalues --   -0.52704  -0.52620  -0.52514  -0.52403  -0.52272
 Alpha  occ. eigenvalues --   -0.52070  -0.51676  -0.51606  -0.51530  -0.51178
 Alpha  occ. eigenvalues --   -0.51035  -0.50581  -0.50577  -0.50160  -0.50156
 Alpha  occ. eigenvalues --   -0.49889  -0.49633  -0.49627  -0.49536  -0.49423
 Alpha  occ. eigenvalues --   -0.49309  -0.49141  -0.49111  -0.49042  -0.48824
 Alpha  occ. eigenvalues --   -0.48591  -0.48434  -0.48402  -0.48164  -0.47990
 Alpha  occ. eigenvalues --   -0.47676  -0.47663  -0.47518  -0.47238  -0.47198
 Alpha  occ. eigenvalues --   -0.47168  -0.46951  -0.46942  -0.46729  -0.46541
 Alpha  occ. eigenvalues --   -0.46203  -0.45834  -0.45795  -0.45691  -0.45092
 Alpha  occ. eigenvalues --   -0.45071  -0.45038  -0.44780  -0.44709  -0.44558
 Alpha  occ. eigenvalues --   -0.44542  -0.44278  -0.44259  -0.44218  -0.44114
 Alpha  occ. eigenvalues --   -0.44036  -0.43913  -0.43420  -0.43392  -0.43216
 Alpha  occ. eigenvalues --   -0.43039  -0.42988  -0.42898  -0.42837  -0.42634
 Alpha  occ. eigenvalues --   -0.42609  -0.42502  -0.42434  -0.42162  -0.42025
 Alpha  occ. eigenvalues --   -0.41853  -0.41724  -0.41515  -0.41340  -0.41325
 Alpha  occ. eigenvalues --   -0.41047  -0.40860  -0.40838  -0.40291  -0.40246
 Alpha  occ. eigenvalues --   -0.39900  -0.39780  -0.39450  -0.38722  -0.38647
 Alpha  occ. eigenvalues --   -0.38301  -0.37861  -0.37804  -0.37762  -0.37563
 Alpha  occ. eigenvalues --   -0.37259  -0.37015  -0.36250  -0.36190  -0.36092
 Alpha  occ. eigenvalues --   -0.35785  -0.35654  -0.34398  -0.34145  -0.33888
 Alpha  occ. eigenvalues --   -0.33866  -0.33530  -0.32420  -0.31685  -0.31406
 Alpha  occ. eigenvalues --   -0.31262  -0.31100  -0.31078  -0.30534  -0.30082
 Alpha  occ. eigenvalues --   -0.29792  -0.29790  -0.29506  -0.24213  -0.23606
 Alpha  occ. eigenvalues --   -0.21570  -0.20741
 Alpha virt. eigenvalues --   -0.09082  -0.08473  -0.01679  -0.01273   0.00187
 Alpha virt. eigenvalues --    0.00380   0.02011   0.02375   0.02689   0.03704
 Alpha virt. eigenvalues --    0.04699   0.05186   0.05332   0.05415   0.06076

 Mulliken charges:
               1
     1  Mg  11.999558
     2  C    6.028938
     3  C    5.987781
     4  C    5.970232
     5  C    6.011594
     6  N    7.014748
     7  C    5.962147
     8  C    6.005792
     9  C    5.987261
    10  C    6.032544
    11  C    5.997737
    12  C    6.004682
    13  C    6.000028
    14  H    0.992843
    15  N    6.990644
    16  C    6.045346
    17  C    6.017577
    18  C    6.019566
    19  C    6.036252
    20  C    5.995965
    21  C    6.014185
    22  O    8.030663
    23  C    5.991496
    24  N    6.992708
    25  C    6.037705
    26  C    5.991334
    27  C    6.012465
    28  C    5.970532
    29  C    5.997339
    30  C    6.004863
    31  C    6.002004
    32  N    7.004312
    33  C    5.958801
    34  C    5.970645
    35  C    5.997555
    36  C    5.959741
    37  C    6.004790
    38  C    5.982039
    39  O    7.972087
    40  C    5.998939
    41  C    5.996561
    42  O    7.992361
    43  O    7.999423
    44  C    6.001707
    45  H    1.013467
    46  H    1.001274
    47  H    0.988171
    48  H    1.002771
    49  H    1.007255
    50  H    0.999015
    51  H    0.999319
    52  H    1.014044
    53  H    0.989723
    54  H    1.008085
    55  H    0.996480
    56  H    1.004460
    57  H    1.017925
    58  H    1.018966
    59  H    1.018252
    60  H    1.007536
    61  H    1.008059
    62  H    1.015900
    63  H    0.998779
    64  H    0.995932
    65  H    1.009528
    66  H    1.000297
    67  H    0.995014
    68  H    1.005054
    69  H    0.989700
    70  H    0.994048
    71  H    0.994106
    72  H    1.001372
    73  H    0.980375
    74  H    0.980106
    75  H    0.977630
    76  H    0.992467
    77  H    0.999373
    78  H    0.992927
    79  H    0.997100
    80  Mg  11.999672
    81  C    6.003357
    82  C    5.999355
    83  C    5.997225
    84  C    6.000124
    85  N    7.001658
    86  C    5.996173
    87  C    6.001376
    88  C    5.998518
    89  C    6.003026
    90  C    5.999254
    91  C    6.000404
    92  C    5.999801
    93  H    1.000270
    94  N    6.998457
    95  C    6.004656
    96  C    6.002018
    97  C    6.002220
    98  C    6.003786
    99  C    5.999330
   100  C    6.000911
   101  O    8.003386
   102  C    5.999710
   103  N    6.998934
   104  C    6.003394
   105  C    5.999517
   106  C    6.000500
   107  C    5.997718
   108  C    5.999688
   109  C    6.000638
   110  C    5.999792
   111  N    7.000304
   112  C    5.996035
   113  C    5.996290
   114  C    5.999188
   115  C    5.996332
   116  C    5.999846
   117  C    5.998293
   118  O    7.996018
   119  C    5.999204
   120  C    5.999629
   121  O    8.000098
   122  O    7.999555
   123  C    5.999982
   124  H    1.001932
   125  H    1.000395
   126  H    0.998029
   127  H    1.000644
   128  H    1.000535
   129  H    1.002055
   130  H    1.000021
   131  H    1.000799
   132  H    0.998714
   133  H    1.000247
   134  H    0.999688
   135  H    1.000383
   136  H    1.002499
   137  H    1.002083
   138  H    1.002107
   139  H    1.001254
   140  H    1.001802
   141  H    1.000479
   142  H    0.999562
   143  H    1.000431
   144  H    1.001194
   145  H    1.000184
   146  H    0.999692
   147  H    0.999624
   148  H    0.998641
   149  H    0.999987
   150  H    0.999098
   151  H    1.000053
   152  H    0.996064
   153  H    0.998784
   154  H    0.998801
   155  H    0.998769
   156  H    1.000443
   157  H    0.999655
   158  H    0.999711
 Sum of Mulliken charges = 624.00000

 Dipole moment (field-independent basis, Debye):
    X=              8.7533    Y=             -4.0018    Z=              7.4142  Tot=             12.1493
 Quadrupole moment (field-independent basis, Debye-Ang):
   XX=           -104.6350   YY=              4.4967   ZZ=              3.5017
   XY=             26.0576   XZ=            -56.3207   YZ=             -7.8645

 Normal termination of Gaussian 16 at Wed Sep 22 22:53:47 2021.
