 Gaussian 16, Revision A.03,
 Gaussian 16:  ES64L-G16RevA.03 25-Dec-2016

 -----------------------------------
 #p cam-b3lyp/Def2SVP td=(nstates=5)
 -----------------------------------

 --------------------------------
 TDDFT excited states in gaussian
 --------------------------------
 Symbolic Z-matrix:
 Charge =  0 Multiplicity = 1

                         Standard orientation:
 ---------------------------------------------------------------------
 Center     Atomic      Atomic             Coordinates (Angstroms)
 Number     Number       Type             X           Y           Z
 ---------------------------------------------------------------------
      1         12           0       22.796852   -0.716631    0.235813
      2          6           0       22.259375    2.254744   -1.585237
      3          6           0       23.622151    1.201431    2.965526
      4          6           0       23.405587   -3.498607    2.016423
      5          6           0       22.514994   -2.596497   -2.701847
      6          7           0       22.767791    1.441705    0.585132
      7          6           0       22.536646    2.493522   -0.195281
      8          6           0       22.644056    3.881971    0.468978
      9          6           0       23.364931    3.394816    1.817768
     10          6           0       23.288101    1.888377    1.768879
     11          6           0       24.787397    3.880507    1.955716
     12          6           0       21.212444    4.605711    0.745118
     13          6           0       21.309779    6.133540    0.786519
     14          1           0       20.467581    6.852320   -0.298804
     15          7           0       23.278230   -1.135560    2.296566
     16          6           0       23.631582   -0.150278    3.251528
     17          6           0       23.678692   -0.813998    4.534878
     18          6           0       23.595789   -2.183134    4.297838
     19          6           0       23.397360   -2.350394    2.823917
     20          6           0       24.011914   -0.112426    5.838028
     21          6           0       23.607067   -3.366617    5.238052
     22          8           0       23.438753   -4.469660    4.806436
     23          6           0       23.748309   -3.204412    6.718687
     24          7           0       23.139397   -2.727535   -0.278005
     25          6           0       23.302221   -3.715359    0.649040
     26          6           0       23.297702   -5.056205   -0.136369
     27          6           0       22.492594   -4.803147   -1.398387
     28          6           0       22.721823   -3.279021   -1.529784
     29          6           0       24.731158   -5.424122   -0.516742
     30          6           0       21.066944   -5.206823   -1.317298
     31          6           0       20.260588   -4.812560   -0.104684
     32          7           0       22.426730   -0.322696   -1.751788
     33          6           0       22.345862   -1.159665   -2.848795
     34          6           0       22.042666   -0.351437   -4.039993
     35          6           0       21.979449    0.971750   -3.569613
     36          6           0       22.210764    0.935075   -2.221605
     37          6           0       21.900147   -0.844493   -5.414958
     38          6           0       21.630912    2.326379   -3.904873
     39          8           0       21.240755    2.835481   -4.996459
     40          6           0       21.782363    3.199441   -2.570754
     41          6           0       22.836079    4.236996   -2.859697
     42          8           0       23.886945    3.972348   -3.364020
     43          8           0       22.527542    5.558308   -2.436772
     44          6           0       23.682324    6.507079   -2.425154
     45          1           0       23.937516    1.791872    3.827626
     46          1           0       23.695508   -4.415746    2.534094
     47          1           0       22.243289   -3.129657   -3.615577
     48          1           0       23.201990    4.562061   -0.175883
     49          1           0       22.745742    3.817759    2.609822
     50          1           0       24.744702    4.761498    2.595929
     51          1           0       25.278060    4.033809    0.994311
     52          1           0       25.259850    3.124332    2.582599
     53          1           0       20.811796    4.278343    1.705000
     54          1           0       20.474784    4.291125    0.006604
     55          1           0       22.385601    6.283066    0.692847
     56          1           0       21.070336    6.533844    1.771486
     57          1           0       23.818313    0.939450    5.631288
     58          1           0       25.091040   -0.244180    5.911628
     59          1           0       23.390776   -0.454242    6.666197
     60          1           0       22.769502   -2.780623    6.943927
     61          1           0       24.518106   -2.497563    7.027146
     62          1           0       23.905374   -4.173712    7.193099
     63          1           0       22.924481   -5.917667    0.416345
     64          1           0       22.837207   -5.333275   -2.285634
     65          1           0       25.082587   -5.251391   -1.534026
     66          1           0       24.862512   -6.483300   -0.295649
     67          1           0       25.403297   -4.891024    0.156634
     68          1           0       20.938736   -6.279161   -1.466677
     69          1           0       20.611245   -4.724008   -2.181579
     70          1           0       19.533423   -4.082352   -0.460990
     71          1           0       20.694745   -4.373525    0.794058
     72          1           0       19.684159   -5.681172    0.213268
     73          1           0       22.884510   -1.152073   -5.767680
     74          1           0       21.465736    0.001128   -5.948048
     75          1           0       21.275527   -1.737824   -5.456411
     76          1           0       20.777460    3.574791   -2.376523
     77          1           0       23.902350    6.847066   -3.437082
     78          1           0       24.587462    6.077138   -1.993813
     79          1           0       23.517981    7.452462   -1.908894
     80         12           0      -22.196764   -0.649834   -0.100837
     81          6           0      -23.633079    2.101363    1.692908
     82          6           0      -20.339177    1.475507   -1.778300
     83          6           0      -21.614287   -3.183074   -2.157010
     84          6           0      -24.655524   -2.747428    1.655105
     85          7           0      -21.986266    1.537036   -0.002970
     86          6           0      -22.678772    2.492233    0.767472
     87          6           0      -22.233859    3.977656    0.488716
     88          6           0      -21.074815    3.662715   -0.642238
     89          6           0      -21.090813    2.150050   -0.838689
     90          6           0      -21.354017    4.410195   -2.016201
     91          6           0      -21.761390    4.795992    1.740537
     92          6           0      -20.957362    6.056121    1.443438
     93          1           0      -21.658102    7.371641    1.829378
     94          7           0      -21.038605   -0.844603   -1.691488
     95          6           0      -20.277368    0.128592   -2.295080
     96          6           0      -19.509617   -0.383759   -3.410381
     97          6           0      -19.901804   -1.778605   -3.489239
     98          6           0      -20.856747   -1.995224   -2.344617
     99          6           0      -18.524209    0.342019   -4.199427
    100          6           0      -19.447441   -2.867890   -4.445215
    101          8           0      -19.752973   -4.022794   -4.342424
    102          6           0      -18.635763   -2.379644   -5.615576
    103          7           0      -23.068399   -2.669874   -0.273512
    104          6           0      -22.595389   -3.521033   -1.218443
    105          6           0      -23.235976   -4.927052   -1.070557
    106          6           0      -24.089863   -4.770589    0.235556
    107          6           0      -23.897992   -3.313308    0.609059
    108          6           0      -24.073928   -5.488011   -2.269623
    109          6           0      -23.694964   -5.701513    1.435829
    110          6           0      -24.194454   -7.154246    1.273711
    111          7           0      -23.814847   -0.451934    1.328643
    112          6           0      -24.628062   -1.353758    1.975483
    113          6           0      -25.383220   -0.672473    2.950353
    114          6           0      -25.105411    0.640358    2.867664
    115          6           0      -24.133824    0.780008    1.830688
    116          6           0      -26.275340   -1.427312    3.927223
    117          6           0      -25.379900    2.008955    3.316969
    118          8           0      -26.153502    2.421810    4.142017
    119          6           0      -24.417018    3.012807    2.520696
    120          6           0      -25.280916    3.826846    1.611089
    121          8           0      -25.687311    3.623991    0.489158
    122          8           0      -25.529697    4.989016    2.314008
    123          6           0      -26.360500    6.017065    1.643092
    124          1           0      -19.722862    2.105824   -2.422563
    125          1           0      -21.494907   -3.924170   -2.951002
    126          1           0      -25.242973   -3.519074    2.158050
    127          1           0      -23.047602    4.471466   -0.042649
    128          1           0      -20.126675    4.045463   -0.263846
    129          1           0      -20.426088    4.848277   -2.383478
    130          1           0      -22.138127    5.165682   -2.058624
    131          1           0      -21.590624    3.687650   -2.796652
    132          1           0      -21.221647    4.015020    2.277714
    133          1           0      -22.506843    5.090748    2.479456
    134          1           0      -20.739292    6.094816    0.376547
    135          1           0      -20.078947    6.067575    2.088103
    136          1           0      -17.629560   -0.211461   -3.914269
    137          1           0      -18.513690    1.400506   -3.938984
    138          1           0      -18.602877    0.295562   -5.285403
    139          1           0      -17.575487   -2.454888   -5.374592
    140          1           0      -19.069653   -1.515090   -6.118795
    141          1           0      -18.959244   -3.035746   -6.423163
    142          1           0      -22.426131   -5.568343   -0.721433
    143          1           0      -25.147093   -4.826735   -0.024645
    144          1           0      -25.114907   -5.734388   -2.058432
    145          1           0      -23.641774   -6.464996   -2.484904
    146          1           0      -24.097820   -4.857798   -3.158639
    147          1           0      -24.140069   -5.315009    2.351986
    148          1           0      -22.609732   -5.617629    1.508434
    149          1           0      -25.030314   -7.193546    0.574948
    150          1           0      -24.452839   -7.492314    2.277160
    151          1           0      -23.459585   -7.833747    0.840996
    152          1           0      -26.399727   -0.872362    4.857158
    153          1           0      -25.848535   -2.415483    4.099155
    154          1           0      -27.236680   -1.653680    3.465513
    155          1           0      -23.830853    3.633098    3.199163
    156          1           0      -27.009542    6.418705    2.421150
    157          1           0      -26.965598    5.638249    0.819542
    158          1           0      -25.572080    6.706167    1.338797
 ---------------------------------------------------------------------

 SCF Done:  E(RCAM-B3LYP) =  -4069.81321918     A.U. after   18 cycles

 Excitation energies and oscillator strengths:

 Excited State   1:      Singlet-A      1.6957 eV  731.16 nm  f=0.2745  <S**2>=0.000
     309 -> 315       -0.16883
     311 -> 313        0.66693
     312 -> 314        0.16744
     309 <- 315       -0.10289
 This state for optimization and/or second-order correction.
 Total Energy, E(TD-HF/TD-DFT) =  -4069.75090255
 Copying the excited state density for this state as the 1-particle RhoCI density.

 Excited State   2:      Singlet-A      1.6974 eV  730.44 nm  f=0.4922  <S**2>=0.000
     310 -> 316       -0.17240
     311 -> 313       -0.16772
     312 -> 314        0.66563
     310 <- 316       -0.10441

 Excited State   3:      Singlet-A      2.1842 eV  567.65 nm  f=0.1174  <S**2>=0.000
     309 -> 313        0.64718
     311 -> 315        0.27031

 Excited State   4:      Singlet-A      2.2114 eV  560.66 nm  f=0.1395  <S**2>=0.000
     310 -> 314        0.65075
     312 -> 316        0.26507

 Excited State   5:      Singlet-A      3.0523 eV  406.20 nm  f=0.0000  <S**2>=0.000
     312 -> 313        0.70711

 The electronic state is 1-A.
 Alpha  occ. eigenvalues --  -46.88648 -46.88567 -19.24523 -19.23838 -19.20068
 Alpha  occ. eigenvalues --  -19.19918 -19.19106 -19.19106 -19.18943 -19.18266
 Alpha  occ. eigenvalues --  -14.43439 -14.42186 -14.41365 -14.41317 -14.39731
 Alpha  occ. eigenvalues --  -14.39623 -14.39081 -14.38845 -10.39423 -10.38971
 Alpha  occ. eigenvalues --  -10.35264 -10.35211 -10.34766 -10.34764 -10.31875
 Alpha  occ. eigenvalues --  -10.31707 -10.31296 -10.31201 -10.31145 -10.30973
 Alpha  occ. eigenvalues --  -10.30907 -10.30862 -10.30633 -10.30543 -10.30364
 Alpha  occ. eigenvalues --  -10.30185 -10.30102 -10.30099 -10.29462 -10.29413
 Alpha  occ. eigenvalues --  -10.29377 -10.29085 -10.28903 -10.28882 -10.28855
 Alpha  occ. eigenvalues --  -10.28831 -10.28759 -10.28483 -10.28411 -10.28392
 Alpha  occ. eigenvalues --  -10.28335 -10.28267 -10.28224 -10.28153 -10.27746
 Alpha  occ. eigenvalues --  -10.27664 -10.27553 -10.27251 -10.27180 -10.27151
 Alpha  occ. eigenvalues --  -10.27143 -10.26989 -10.26938 -10.26818 -10.26776
 Alpha  occ. eigenvalues --  -10.26763 -10.26748 -10.26735 -10.26718 -10.26702
 Alpha  occ. eigenvalues --  -10.26675 -10.26613 -10.26441 -10.26149 -10.25877
 Alpha  occ. eigenvalues --  -10.25704 -10.25645 -10.25596 -10.25561 -10.25545
 Alpha  occ. eigenvalues --  -10.25421 -10.25141 -10.25129 -10.24703 -10.24487
 Alpha  occ. eigenvalues --  -10.24451  -3.17143  -3.17110  -1.92065  -1.92006
 Alpha  occ. eigenvalues --   -1.91574  -1.91546  -1.91459  -1.91434  -1.15702
 Alpha  occ. eigenvalues --   -1.15638  -1.12141  -1.11361  -1.10787  -1.07463
 Alpha  occ. eigenvalues --   -1.07406  -1.06680  -1.05322  -1.03804  -1.03563
 Alpha  occ. eigenvalues --   -1.03293  -1.02960  -1.02499  -1.01793  -1.01588
 Alpha  occ. eigenvalues --   -0.93011  -0.92976  -0.90073  -0.89464  -0.88927
 Alpha  occ. eigenvalues --   -0.88858  -0.88245  -0.88119  -0.87873  -0.87143
 Alpha  occ. eigenvalues --   -0.86960  -0.86841  -0.86246  -0.86018  -0.84732
 Alpha  occ. eigenvalues --   -0.83891  -0.83598  -0.83188  -0.82654  -0.82499
 Alpha  occ. eigenvalues --   -0.82173  -0.82044  -0.81139  -0.80706  -0.80072
 Alpha  occ. eigenvalues --   -0.79948  -0.78937  -0.78109  -0.77372  -0.77132
 Alpha  occ. eigenvalues --   -0.76971  -0.76639  -0.76310  -0.75540  -0.75015
 Alpha  occ. eigenvalues --   -0.74815  -0.72767  -0.72483  -0.71358  -0.71318
 Alpha  occ. eigenvalues --   -0.69729  -0.69640  -0.68875  -0.68747  -0.67868
 Alpha  occ. eigenvalues --   -0.67718  -0.67149  -0.66952  -0.65855  -0.65040
 Alpha  occ. eigenvalues --   -0.64965  -0.64605  -0.64410  -0.64229  -0.63886
 Alpha  occ. eigenvalues --   -0.63434  -0.61794  -0.61456  -0.60409  -0.60076
 Alpha  occ. eigenvalues --   -0.59965  -0.59470  -0.59172  -0.59008  -0.58816
 Alpha  occ. eigenvalues --   -0.58635  -0.58328  -0.57839  -0.57620  -0.56869
 Alpha  occ. eigenvalues --   -0.56421  -0.56125  -0.55787  -0.55765  -0.54997
 Alpha  occ. eigenvalues --   -0.54812  -0.54567  -0.54461  -0.54277  -0.54125
 Alpha  occ. eigenvalues --   -0.54116  -0.54006  -0.53744  -0.53656  -0.53641
 Alpha  occ. eigenvalues --   -0.53070  -0.52654  -0.52462  -0.52374  -0.51944
 Alpha  occ. eigenvalues --   -0.51908  -0.51658  -0.51617  -0.51555  -0.51333
 Alpha  occ. eigenvalues --   -0.50992  -0.50868  -0.50759  -0.50538  -0.50229
 Alpha  occ. eigenvalues --   -0.50186  -0.50036  -0.49797  -0.49718  -0.49670
 Alpha  occ. eigenvalues --   -0.49612  -0.49479  -0.49235  -0.49151  -0.49102
 Alpha  occ. eigenvalues --   -0.48825  -0.48402  -0.48327  -0.48248  -0.47964
 Alpha  occ. eigenvalues --   -0.47808  -0.47760  -0.47744  -0.47676  -0.47202
 Alpha  occ. eigenvalues --   -0.47049  -0.46751  -0.46735  -0.46381  -0.46335
 Alpha  occ. eigenvalues --   -0.45904  -0.45889  -0.45741  -0.45584  -0.45442
 Alpha  occ. eigenvalues --   -0.45431  -0.45297  -0.45246  -0.45172  -0.45037
 Alpha  occ. eigenvalues --   -0.44983  -0.44841  -0.44714  -0.44346  -0.44197
 Alpha  occ. eigenvalues --   -0.43976  -0.43808  -0.43758  -0.43529  -0.43471
 Alpha  occ. eigenvalues --   -0.43182  -0.43181  -0.43133  -0.42878  -0.42755
 Alpha  occ. eigenvalues --   -0.42551  -0.42546  -0.42492  -0.42067  -0.41849
 Alpha  occ. eigenvalues --   -0.41812  -0.41615  -0.41584  -0.41112  -0.41069
 Alpha  occ. eigenvalues --   -0.40957  -0.40943  -0.40773  -0.40470  -0.40406
 Alpha  occ. eigenvalues --   -0.40299  -0.39773  -0.39550  -0.39337  -0.38785
 Alpha  occ. eigenvalues --   -0.38370  -0.38098  -0.37749  -0.37742  -0.37311
 Alpha  occ. eigenvalues --   -0.37156  -0.37006  -0.36539  -0.36457  -0.36338
 Alpha  occ. eigenvalues --   -0.36220  -0.35730  -0.34709  -0.34635  -0.34545
 Alpha  occ. eigenvalues --   -0.33933  -0.33232  -0.32587  -0.31739  -0.31394
 Alpha  occ. eigenvalues --   -0.31308  -0.30826  -0.30566  -0.30341  -0.30105
 Alpha  occ. eigenvalues --   -0.30036  -0.29737  -0.29356  -0.24169  -0.23585
 Alpha  occ. eigenvalues --   -0.21414  -0.20957
 Alpha virt. eigenvalues --   -0.08987  -0.08529  -0.01765  -0.01126   0.00410
 Alpha virt. eigenvalues --    0.00885   0.02146   0.02469   0.02679   0.03233
 Alpha virt. eigenvalues --    0.04626   0.04948   0.05273   0.05591   0.05855

 Mulliken charges:
               1
     1  Mg   0.813700
     2  C   -0.040341
     3  C   -0.100332
     4  C   -0.056103
     5  C   -0.065196
     6  N   -0.248684
     7  C   -0.044796
     8  C   -0.042263
     9  C   -0.088375
    10  C    0.097227
    11  C    0.104633
    12  C    0.047588
    13  C   -0.047317
    14  H    0.044991
    15  N   -0.365842
    16  C    0.130105
    17  C   -0.165512
    18  C   -0.010031
    19  C    0.116011
    20  C    0.118463
    21  C   -0.027533
    22  O   -0.177934
    23  C    0.053326
    24  N   -0.336403
    25  C    0.059154
    26  C   -0.036002
    27  C    0.001037
    28  C    0.092591
    29  C    0.078979
    30  C    0.053799
    31  C   -0.013960
    32  N   -0.352947
    33  C    0.068138
    34  C   -0.192121
    35  C    0.046567
    36  C    0.100704
    37  C    0.125871
    38  C    0.023003
    39  O   -0.217237
    40  C    0.037670
    41  C    0.193547
    42  O   -0.181802
    43  O   -0.372708
    44  C    0.178953
    45  H   -0.015772
    46  H   -0.006724
    47  H   -0.026808
    48  H    0.020226
    49  H    0.010230
    50  H    0.008612
    51  H    0.034983
    52  H    0.001641
    53  H    0.003164
    54  H    0.019026
    55  H    0.008199
    56  H    0.020929
    57  H    0.008444
    58  H    0.052508
    59  H    0.037125
    60  H    0.038102
    61  H    0.030896
    62  H    0.035338
    63  H   -0.003200
    64  H   -0.009946
    65  H    0.023932
    66  H    0.009706
    67  H    0.009341
    68  H    0.006481
    69  H   -0.008914
    70  H    0.008017
    71  H    0.038123
    72  H    0.006339
    73  H    0.030669
    74  H    0.042252
    75  H    0.013569
    76  H    0.046790
    77  H    0.037699
    78  H    0.033007
    79  H    0.033395
    80  Mg   0.840110
    81  C   -0.023590
    82  C   -0.059949
    83  C   -0.059496
    84  C   -0.088246
    85  N   -0.312927
    86  C   -0.052841
    87  C    0.013276
    88  C   -0.070201
    89  C    0.084916
    90  C    0.032871
    91  C    0.022264
    92  C   -0.067085
    93  H    0.013103
    94  N   -0.403468
    95  C    0.093553
    96  C   -0.114425
    97  C   -0.089669
    98  C    0.139395
    99  C    0.129794
   100  C   -0.007899
   101  O   -0.175139
   102  C    0.037071
   103  N   -0.268493
   104  C    0.008193
   105  C    0.022485
   106  C   -0.064382
   107  C   -0.003249
   108  C    0.067808
   109  C    0.012969
   110  C    0.024891
   111  N   -0.316130
   112  C    0.150923
   113  C   -0.226515
   114  C    0.063310
   115  C    0.099519
   116  C    0.138231
   117  C    0.034453
   118  O   -0.135711
   119  C   -0.039687
   120  C    0.217470
   121  O   -0.203408
   122  O   -0.356831
   123  C    0.167137
   124  H   -0.052208
   125  H   -0.001813
   126  H   -0.022110
   127  H    0.024664
   128  H    0.022130
   129  H    0.009531
   130  H    0.028694
   131  H    0.021751
   132  H    0.009431
   133  H    0.037177
   134  H    0.040143
   135  H    0.040322
   136  H    0.035131
   137  H    0.015724
   138  H    0.025440
   139  H    0.055365
   140  H    0.027335
   141  H    0.014965
   142  H    0.011962
   143  H    0.007783
   144  H    0.012406
   145  H    0.017602
   146  H    0.029892
   147  H    0.004761
   148  H    0.008075
   149  H    0.011349
   150  H    0.020271
   151  H    0.015885
   152  H    0.034502
   153  H    0.007359
   154  H    0.021761
   155  H    0.051789
   156  H    0.045602
   157  H    0.055984
   158  H    0.036948
 Sum of Mulliken charges =  -0.00000

 Dipole moment (field-independent basis, Debye):
    X=              4.1404    Y=              0.8290    Z=              5.5027  Tot=              6.9361
 Quadrupole moment (field-independent basis, Debye-Ang):
   XX=           -617.8085   YY=           -481.0094   ZZ=           -523.9745
   XY=             15.7029   XZ=            194.4357   YZ=             17.0640

 Normal termination of Gaussian 16 at Tue Sep 14 16:09:28 2021.
