 Gaussian 16, Revision A.03,
 Gaussian 16:  ES64L-G16RevA.03 25-Dec-2016

 -----------------------------------
 #p cam-b3lyp/Def2SVP td=(nstates=5)
 -----------------------------------

 --------------------------------
 TDDFT excited states in gaussian
 --------------------------------
 Symbolic Z-matrix:
 Charge =  0 Multiplicity = 1

                         Standard orientation:
 ---------------------------------------------------------------------
 Center     Atomic      Atomic             Coordinates (Angstroms)
 Number     Number       Type             X           Y           Z
 ---------------------------------------------------------------------
      1         12           0       16.630071   -0.358469    0.320147
      2          6           0       15.145212    2.076800   -1.526514
      3          6           0       17.787686    1.851816    2.702927
      4          6           0       18.212845   -2.950338    1.901415
      5          6           0       15.856441   -2.703145   -2.324636
      6          7           0       16.649119    1.732289    0.427937
      7          6           0       15.739855    2.553145   -0.319941
      8          6           0       15.598927    3.885435    0.300448
      9          6           0       16.770454    3.852971    1.381500
     10          6           0       17.130623    2.393543    1.548643
     11          6           0       18.059530    4.713128    0.944917
     12          6           0       14.154885    4.236482    0.773826
     13          6           0       13.684913    5.611287    0.422393
     14          1           0       14.754879    6.765851    0.552916
     15          7           0       17.776115   -0.536196    2.105522
     16          6           0       18.121341    0.522734    2.891556
     17          6           0       18.868761    0.014122    3.990152
     18          6           0       18.954510   -1.426866    3.858163
     19          6           0       18.221566   -1.750538    2.588560
     20          6           0       19.524985    0.940222    5.037397
     21          6           0       19.549605   -2.499660    4.715671
     22          8           0       19.666846   -3.705028    4.467870
     23          6           0       20.041942   -2.025034    6.135094
     24          7           0       17.092951   -2.556910   -0.194594
     25          6           0       17.651618   -3.375575    0.661670
     26          6           0       17.507383   -4.838760    0.248242
     27          6           0       16.750206   -4.737702   -1.106699
     28          6           0       16.559678   -3.228329   -1.242721
     29          6           0       18.914501   -5.615415    0.115195
     30          6           0       15.369008   -5.519790   -0.980789
     31          6           0       14.245090   -5.010380   -0.044934
     32          7           0       15.834265   -0.310363   -1.628078
     33          6           0       15.548692   -1.330556   -2.515698
     34          6           0       14.756591   -0.724071   -3.604983
     35          6           0       14.532125    0.588131   -3.314673
     36          6           0       15.230982    0.789546   -2.069409
     37          6           0       14.419135   -1.419525   -4.878660
     38          6           0       13.912021    1.843896   -3.736610
     39          8           0       13.260906    2.124871   -4.728848
     40          6           0       14.312939    2.849781   -2.570070
     41          6           0       15.154655    3.902595   -3.174022
     42          8           0       16.206745    3.763882   -3.821969
     43          8           0       14.498167    5.075967   -2.862457
     44          6           0       15.242686    6.296316   -3.199632
     45          1           0       18.126675    2.510493    3.505042
     46          1           0       18.637649   -3.746793    2.517016
     47          1           0       15.546300   -3.410939   -3.095378
     48          1           0       15.839023    4.582627   -0.503285
     49          1           0       16.368587    4.232632    2.320402
     50          1           0       17.870522    5.392332    0.113617
     51          1           0       18.766244    3.999634    0.521379
     52          1           0       18.403625    5.144065    1.884209
     53          1           0       14.091866    4.144588    1.858153
     54          1           0       13.548019    3.496344    0.252471
     55          1           0       12.893946    5.972223    1.078634
     56          1           0       13.217917    5.826939   -0.538700
     57          1           0       18.852633    1.367521    5.781254
     58          1           0       20.020550    1.681633    4.410860
     59          1           0       20.215112    0.414604    5.697013
     60          1           0       20.960549   -1.450460    6.015976
     61          1           0       20.032401   -2.888929    6.799444
     62          1           0       19.316994   -1.406289    6.664362
     63          1           0       16.872142   -5.341922    0.976823
     64          1           0       17.297115   -5.167470   -1.945970
     65          1           0       18.973630   -6.273325    0.982977
     66          1           0       19.740834   -4.904948    0.154698
     67          1           0       19.090742   -6.272126   -0.735772
     68          1           0       15.459602   -6.582466   -0.756400
     69          1           0       14.970315   -5.393255   -1.987860
     70          1           0       13.451948   -4.756243   -0.748236
     71          1           0       14.561688   -4.173443    0.576220
     72          1           0       13.881274   -5.760091    0.657645
     73          1           0       13.456820   -0.980205   -5.139620
     74          1           0       14.360063   -2.502481   -4.768368
     75          1           0       15.064539   -1.005703   -5.652352
     76          1           0       13.327643    3.258692   -2.347843
     77          1           0       14.510158    7.074957   -2.985012
     78          1           0       15.396612    6.261706   -4.278158
     79          1           0       16.230013    6.390150   -2.746967
     80         12           0      -16.146749   -0.821865    0.165291
     81          6           0      -18.151234    1.920928    0.998826
     82          6           0      -13.712480    1.194968   -0.715884
     83          6           0      -14.547146   -3.472002   -1.325295
     84          6           0      -18.928884   -2.946523    0.624711
     85          7           0      -15.969890    1.276115    0.257662
     86          6           0      -16.850067    2.247695    0.680798
     87          6           0      -16.185962    3.616185    0.760852
     88          6           0      -14.850918    3.360888   -0.009613
     89          6           0      -14.784174    1.874532   -0.070177
     90          6           0      -14.596083    4.069871   -1.322213
     91          6           0      -16.043602    4.194150    2.205128
     92          6           0      -15.401216    5.582886    2.291843
     93          1           0      -16.174308    6.627837    3.082983
     94          7           0      -14.309769   -1.093852   -0.984903
     95          6           0      -13.377314   -0.125264   -1.099290
     96          6           0      -12.196871   -0.674943   -1.706223
     97          6           0      -12.470878   -2.023800   -1.990878
     98          6           0      -13.834865   -2.239397   -1.435977
     99          6           0      -10.953390    0.131624   -2.015691
    100          6           0      -11.593692   -3.071097   -2.594762
    101          8           0      -11.950141   -4.225460   -2.952878
    102          6           0      -10.106021   -2.804042   -2.788389
    103          7           0      -16.673604   -2.861808   -0.299043
    104          6           0      -15.863639   -3.711744   -0.972253
    105          6           0      -16.492961   -5.206998   -0.933567
    106          6           0      -17.655559   -5.042662    0.107271
    107          6           0      -17.749318   -3.555765    0.231835
    108          6           0      -16.945703   -5.612720   -2.390532
    109          6           0      -17.225348   -5.590447    1.517011
    110          6           0      -15.921124   -5.112094    2.135827
    111          7           0      -18.191221   -0.610582    0.773598
    112          6           0      -19.147783   -1.580044    0.900911
    113          6           0      -20.309024   -0.951263    1.331528
    114          6           0      -20.051730    0.448750    1.388787
    115          6           0      -18.737489    0.608412    1.035957
    116          6           0      -21.653301   -1.537617    1.583399
    117          6           0      -20.583961    1.805210    1.650955
    118          8           0      -21.695142    2.235141    1.938681
    119          6           0      -19.314407    2.810112    1.499534
    120          6           0      -19.686157    4.002845    0.692707
    121          8           0      -20.481817    3.990250   -0.293044
    122          8           0      -19.171727    5.059673    1.306929
    123          6           0      -19.798751    6.316768    0.946060
    124          1           0      -12.830515    1.806894   -0.916831
    125          1           0      -14.037554   -4.333487   -1.763411
    126          1           0      -19.725472   -3.647171    0.879791
    127          1           0      -16.900827    4.283614    0.279221
    128          1           0      -13.967408    3.628545    0.570949
    129          1           0      -15.186794    4.963961   -1.521525
    130          1           0      -14.714077    3.358112   -2.139707
    131          1           0      -13.517697    4.208415   -1.402121
    132          1           0      -15.494579    3.488516    2.829159
    133          1           0      -17.030938    4.251043    2.662254
    134          1           0      -15.509777    6.129130    1.355030
    135          1           0      -14.358150    5.518561    2.603044
    136          1           0      -11.053209    1.205679   -1.859473
    137          1           0      -10.659573    0.167010   -3.064464
    138          1           0      -10.076462   -0.189300   -1.452616
    139          1           0      -10.001657   -2.052564   -3.570514
    140          1           0       -9.604309   -3.632799   -3.287421
    141          1           0       -9.581768   -2.590252   -1.856261
    142          1           0      -15.723908   -5.918775   -0.633472
    143          1           0      -18.532132   -5.464287   -0.384574
    144          1           0      -16.549104   -4.958831   -3.167416
    145          1           0      -18.024925   -5.595673   -2.543358
    146          1           0      -16.587209   -6.593082   -2.701029
    147          1           0      -17.187955   -6.653533    1.278990
    148          1           0      -17.969347   -5.460722    2.302393
    149          1           0      -15.328791   -4.575579    1.394305
    150          1           0      -15.329869   -5.861182    2.661379
    151          1           0      -16.271076   -4.475735    2.948688
    152          1           0      -21.654966   -2.373204    2.283772
    153          1           0      -21.972831   -1.930164    0.618478
    154          1           0      -22.382032   -0.792936    1.901909
    155          1           0      -19.127248    3.140185    2.521032
    156          1           0      -19.960266    6.922937    1.838326
    157          1           0      -20.780282    6.250189    0.477345
    158          1           0      -19.089974    6.825539    0.291878
 ---------------------------------------------------------------------

 SCF Done:  E(RCAM-B3LYP) =  -4069.81587675     A.U. after   19 cycles

 Excitation energies and oscillator strengths:

 Excited State   1:      Singlet-A      1.6991 eV  729.71 nm  f=0.3923  <S**2>=0.000
     309 -> 315       -0.18547
     312 -> 314        0.68154
     309 <- 315       -0.10860
 This state for optimization and/or second-order correction.
 Total Energy, E(TD-HF/TD-DFT) =  -4069.75343604
 Copying the excited state density for this state as the 1-particle RhoCI density.

 Excited State   2:      Singlet-A      1.7146 eV  723.10 nm  f=0.3834  <S**2>=0.000
     310 -> 316        0.16537
     311 -> 313        0.68643
     310 <- 316        0.10272

 Excited State   3:      Singlet-A      2.1454 eV  577.91 nm  f=0.1681  <S**2>=0.000
     310 -> 313        0.66339
     311 -> 316       -0.22682

 Excited State   4:      Singlet-A      2.2667 eV  546.98 nm  f=0.0454  <S**2>=0.000
     309 -> 314        0.60926
     312 -> 315        0.34931

 Excited State   5:      Singlet-A      2.8790 eV  430.65 nm  f=0.0000  <S**2>=0.000
     312 -> 313        0.70709

 The electronic state is 1-A.
 Alpha  occ. eigenvalues --  -46.89400 -46.89333 -19.26681 -19.25738 -19.20341
 Alpha  occ. eigenvalues --  -19.19639 -19.19577 -19.19127 -19.19069 -19.18472
 Alpha  occ. eigenvalues --  -14.42922 -14.42375 -14.42274 -14.41844 -14.39782
 Alpha  occ. eigenvalues --  -14.39584 -14.39564 -14.38044 -10.39605 -10.39258
 Alpha  occ. eigenvalues --  -10.35783 -10.35774 -10.35493 -10.34846 -10.32139
 Alpha  occ. eigenvalues --  -10.32064 -10.32039 -10.31918 -10.31856 -10.31110
 Alpha  occ. eigenvalues --  -10.31035 -10.30951 -10.30801 -10.30647 -10.30417
 Alpha  occ. eigenvalues --  -10.30256 -10.30116 -10.29977 -10.29783 -10.29670
 Alpha  occ. eigenvalues --  -10.29317 -10.29276 -10.29178 -10.28899 -10.28545
 Alpha  occ. eigenvalues --  -10.28418 -10.28416 -10.28332 -10.28325 -10.28269
 Alpha  occ. eigenvalues --  -10.28237 -10.28216 -10.28191 -10.27973 -10.27921
 Alpha  occ. eigenvalues --  -10.27901 -10.27885 -10.27834 -10.27806 -10.27784
 Alpha  occ. eigenvalues --  -10.27723 -10.27666 -10.27648 -10.27572 -10.27493
 Alpha  occ. eigenvalues --  -10.27460 -10.27431 -10.27093 -10.26669 -10.26571
 Alpha  occ. eigenvalues --  -10.26520 -10.26507 -10.26498 -10.26491 -10.26308
 Alpha  occ. eigenvalues --  -10.26165 -10.26141 -10.25924 -10.25916 -10.25685
 Alpha  occ. eigenvalues --  -10.25652 -10.25574 -10.25440 -10.24906 -10.24814
 Alpha  occ. eigenvalues --  -10.24293  -3.17788  -3.17737  -1.92697  -1.92640
 Alpha  occ. eigenvalues --   -1.92214  -1.92182  -1.92103  -1.92038  -1.18117
 Alpha  occ. eigenvalues --   -1.16048  -1.10284  -1.09683  -1.08815  -1.08388
 Alpha  occ. eigenvalues --   -1.07557  -1.05940  -1.05431  -1.05208  -1.04382
 Alpha  occ. eigenvalues --   -1.03860  -1.03357  -1.02975  -1.02479  -1.01797
 Alpha  occ. eigenvalues --   -0.92461  -0.91875  -0.89620  -0.89304  -0.89183
 Alpha  occ. eigenvalues --   -0.88879  -0.88425  -0.88088  -0.88006  -0.87360
 Alpha  occ. eigenvalues --   -0.87159  -0.86991  -0.86330  -0.85701  -0.84824
 Alpha  occ. eigenvalues --   -0.84733  -0.83783  -0.83457  -0.82930  -0.82501
 Alpha  occ. eigenvalues --   -0.81877  -0.81622  -0.81356  -0.81290  -0.80689
 Alpha  occ. eigenvalues --   -0.80046  -0.78900  -0.78166  -0.77606  -0.77442
 Alpha  occ. eigenvalues --   -0.77378  -0.77284  -0.76145  -0.75888  -0.75255
 Alpha  occ. eigenvalues --   -0.75057  -0.72770  -0.72550  -0.72260  -0.71768
 Alpha  occ. eigenvalues --   -0.69950  -0.69930  -0.69347  -0.69202  -0.68438
 Alpha  occ. eigenvalues --   -0.68372  -0.67704  -0.67516  -0.65553  -0.65317
 Alpha  occ. eigenvalues --   -0.65222  -0.65086  -0.64787  -0.64698  -0.64583
 Alpha  occ. eigenvalues --   -0.64474  -0.62760  -0.62622  -0.61036  -0.60382
 Alpha  occ. eigenvalues --   -0.59799  -0.59503  -0.59269  -0.59000  -0.58860
 Alpha  occ. eigenvalues --   -0.58553  -0.58059  -0.57632  -0.57566  -0.57248
 Alpha  occ. eigenvalues --   -0.56228  -0.56055  -0.56007  -0.55821  -0.55622
 Alpha  occ. eigenvalues --   -0.55485  -0.55339  -0.55151  -0.54960  -0.54504
 Alpha  occ. eigenvalues --   -0.54417  -0.53627  -0.53294  -0.53276  -0.53236
 Alpha  occ. eigenvalues --   -0.53159  -0.52947  -0.52556  -0.52478  -0.52369
 Alpha  occ. eigenvalues --   -0.52208  -0.52024  -0.51738  -0.51596  -0.51586
 Alpha  occ. eigenvalues --   -0.51138  -0.50999  -0.50972  -0.50585  -0.50469
 Alpha  occ. eigenvalues --   -0.50133  -0.49940  -0.49736  -0.49545  -0.49419
 Alpha  occ. eigenvalues --   -0.49128  -0.48999  -0.48875  -0.48665  -0.48600
 Alpha  occ. eigenvalues --   -0.48600  -0.48560  -0.48509  -0.48379  -0.48202
 Alpha  occ. eigenvalues --   -0.48123  -0.47777  -0.47466  -0.47321  -0.47260
 Alpha  occ. eigenvalues --   -0.47220  -0.46926  -0.46826  -0.46786  -0.46515
 Alpha  occ. eigenvalues --   -0.46404  -0.46220  -0.45982  -0.45960  -0.45876
 Alpha  occ. eigenvalues --   -0.45698  -0.45463  -0.45270  -0.45201  -0.44854
 Alpha  occ. eigenvalues --   -0.44753  -0.44618  -0.44476  -0.44303  -0.43994
 Alpha  occ. eigenvalues --   -0.43881  -0.43745  -0.43545  -0.43438  -0.43299
 Alpha  occ. eigenvalues --   -0.43227  -0.43068  -0.42991  -0.42897  -0.42852
 Alpha  occ. eigenvalues --   -0.42605  -0.42386  -0.42375  -0.42221  -0.42186
 Alpha  occ. eigenvalues --   -0.42094  -0.42019  -0.41787  -0.41769  -0.41622
 Alpha  occ. eigenvalues --   -0.41458  -0.41256  -0.40888  -0.40828  -0.40621
 Alpha  occ. eigenvalues --   -0.40519  -0.39874  -0.39630  -0.39600  -0.39272
 Alpha  occ. eigenvalues --   -0.38692  -0.37951  -0.37918  -0.37577  -0.37329
 Alpha  occ. eigenvalues --   -0.37227  -0.36940  -0.36806  -0.36599  -0.36480
 Alpha  occ. eigenvalues --   -0.36345  -0.36319  -0.34751  -0.34290  -0.34100
 Alpha  occ. eigenvalues --   -0.33971  -0.33560  -0.32926  -0.31970  -0.31302
 Alpha  occ. eigenvalues --   -0.31194  -0.31172  -0.31061  -0.30812  -0.30460
 Alpha  occ. eigenvalues --   -0.30125  -0.29962  -0.28529  -0.24492  -0.24089
 Alpha  occ. eigenvalues --   -0.21792  -0.21036
 Alpha virt. eigenvalues --   -0.09393  -0.08566  -0.02437  -0.01309  -0.00323
 Alpha virt. eigenvalues --   -0.00048   0.01773   0.01864   0.02090   0.02481
 Alpha virt. eigenvalues --    0.04422   0.04633   0.04649   0.04851   0.05359

 Mulliken charges:
               1
     1  Mg   0.798346
     2  C    0.018710
     3  C   -0.098343
     4  C   -0.026544
     5  C   -0.072686
     6  N   -0.371540
     7  C   -0.042124
     8  C   -0.004770
     9  C   -0.083369
    10  C    0.109752
    11  C    0.079500
    12  C    0.115817
    13  C   -0.087207
    14  H   -0.012781
    15  N   -0.377594
    16  C    0.154407
    17  C   -0.133048
    18  C   -0.038182
    19  C    0.104450
    20  C    0.104469
    21  C    0.019103
    22  O   -0.205571
    23  C    0.005659
    24  N   -0.192994
    25  C   -0.005868
    26  C   -0.021543
    27  C    0.004526
    28  C    0.005368
    29  C    0.043635
    30  C   -0.019980
    31  C   -0.000263
    32  N   -0.317245
    33  C    0.124307
    34  C   -0.222888
    35  C    0.035469
    36  C    0.083055
    37  C    0.127745
    38  C    0.060018
    39  O   -0.156870
    40  C   -0.043869
    41  C    0.209633
    42  O   -0.230219
    43  O   -0.341712
    44  C    0.182853
    45  H   -0.025393
    46  H   -0.002653
    47  H   -0.021256
    48  H    0.011635
    49  H    0.000519
    50  H    0.022072
    51  H    0.023955
    52  H    0.028412
    53  H    0.014370
    54  H    0.017143
    55  H    0.020223
    56  H    0.040198
    57  H    0.031520
    58  H    0.040645
    59  H   -0.006120
    60  H    0.059150
    61  H    0.025894
    62  H    0.020765
    63  H    0.023721
    64  H    0.011343
    65  H    0.021429
    66  H    0.027483
    67  H    0.019102
    68  H    0.016383
    69  H   -0.003146
    70  H    0.022409
    71  H    0.020469
    72  H    0.015713
    73  H    0.023387
    74  H    0.018846
    75  H    0.042642
    76  H    0.039104
    77  H    0.040836
    78  H    0.037768
    79  H    0.041817
    80  Mg   0.807818
    81  C    0.045495
    82  C   -0.061134
    83  C   -0.047215
    84  C   -0.073268
    85  N   -0.322608
    86  C   -0.057806
    87  C    0.013240
    88  C   -0.034182
    89  C    0.074987
    90  C    0.092331
    91  C    0.063792
    92  C   -0.073658
    93  H    0.013762
    94  N   -0.299749
    95  C    0.075898
    96  C   -0.092488
    97  C   -0.003256
    98  C    0.074273
    99  C    0.096240
   100  C   -0.003948
   101  O   -0.229641
   102  C    0.052583
   103  N   -0.284291
   104  C    0.052239
   105  C   -0.096606
   106  C    0.025682
   107  C    0.020348
   108  C    0.057887
   109  C    0.029672
   110  C    0.003975
   111  N   -0.330780
   112  C    0.139867
   113  C   -0.184921
   114  C    0.005568
   115  C    0.046748
   116  C    0.122843
   117  C    0.080764
   118  O   -0.165201
   119  C   -0.062078
   120  C    0.199354
   121  O   -0.251046
   122  O   -0.299831
   123  C    0.166059
   124  H   -0.050018
   125  H   -0.001686
   126  H   -0.028096
   127  H    0.004740
   128  H    0.004211
   129  H    0.033371
   130  H    0.011625
   131  H    0.004368
   132  H   -0.001665
   133  H    0.022242
   134  H    0.025098
   135  H    0.040093
   136  H    0.004980
   137  H    0.026577
   138  H    0.032515
   139  H    0.022929
   140  H    0.017837
   141  H    0.042468
   142  H    0.018034
   143  H    0.003631
   144  H    0.022365
   145  H    0.011600
   146  H    0.017937
   147  H    0.004125
   148  H    0.005113
   149  H    0.037423
   150  H    0.019561
   151  H    0.011946
   152  H    0.013029
   153  H    0.020300
   154  H    0.033476
   155  H    0.052742
   156  H    0.035624
   157  H    0.061864
   158  H    0.031923
 Sum of Mulliken charges =  -0.00000

 Dipole moment (field-independent basis, Debye):
    X=              5.5437    Y=              2.3852    Z=              5.7617  Tot=              8.3438
 Quadrupole moment (field-independent basis, Debye-Ang):
   XX=           -763.9505   YY=           -466.7550   ZZ=           -531.9481
   XY=             37.8707   XZ=             39.0351   YZ=             17.8547

 Normal termination of Gaussian 16 at Tue Sep 14 15:44:11 2021.
